INSANE! Membrane UpperLeaflet>PSPI:POPI:POPS:YOPS:POPE:YOPE:POPC:YOPC:ERGO=6.0:14.0:21.0:9.0:9.0:21.0:12.0:48.0:60.0 LowerLeaflet>PSPI:POPI:POPS:YOPS:POPE:YOPE:POPC:YOPC:ERGO=6.0:14.0:21.0:9.0:9.0:21.0:12.0:48.0:60.0
49592
    1PSPI    C1    1  17.980   1.334  10.152  0.1833 -0.3233  0.1412
    1PSPI    C2    2  17.928   1.518  10.503 -0.0378 -0.2318  0.0617
    1PSPI    C3    3  18.295   1.487  10.347  0.0404 -0.1287  0.2222
    1PSPI   PO4    4  17.937   1.383   9.977 -0.4648 -0.2101  0.1247
    1PSPI   GL1    5  17.903   1.614   9.685  0.2843 -0.1445  0.1210
    1PSPI   GL2    6  17.625   1.674   9.438 -0.2639 -0.1729 -0.1416
    1PSPI   C1A    7  18.062   1.629   9.267  0.0962  0.2114  0.1702
    1PSPI   C2A    8  18.169   1.603   8.811  0.4046  0.0392 -0.1673
    1PSPI   C3A    9  18.196   1.494   8.407 -0.0769 -0.1732 -0.2583
    1PSPI   C4A   10  18.434   1.579   8.128  0.2807 -0.1821 -0.0757
    1PSPI   C1B   11  17.706   1.732   8.971  0.0010 -0.1551  0.2032
    1PSPI   C2B   12  17.753   1.652   8.547  0.3150 -0.1142 -0.4016
    1PSPI   C3B   13  17.766   1.731   8.126  0.3839  0.1659  0.3518
    1PSPI   C4B   14  17.598   1.910   7.830 -0.1931 -0.3058  0.0672
    2PSPI    C1   15   4.946  17.270  10.666 -0.1493 -0.1303 -0.2394
    2PSPI    C2   16   5.192  16.960  10.723 -0.1338 -0.0491  0.1630
    2PSPI    C3   17   5.053  17.166  11.037 -0.1792  0.3252 -0.0967
    2PSPI   PO4   18   4.866  17.189  10.424  0.0271 -0.0198  0.0596
    2PSPI   GL1   19   4.678  17.123  10.028 -0.1512  0.3270  0.0481
    2PSPI   GL2   20   4.835  16.809   9.995  0.0469  0.0871 -0.1798
    2PSPI   C1A   21   4.862  17.175   9.638 -0.1065  0.0231 -0.0815
    2PSPI   C2A   22   4.831  17.344   9.224  0.0425 -0.1073  0.0363
    2PSPI   C3A   23   4.905  17.482   8.821  0.0873 -0.3223 -0.0206
    2PSPI   C4A   24   4.830  17.473   8.424 -0.1498  0.1582 -0.0889
    2PSPI   C1B   25   4.923  16.683   9.566 -0.1474 -0.1437 -0.1628
    2PSPI   C2B   26   4.839  16.854   9.042 -0.0033 -0.1069  0.0092
    2PSPI   C3B   27   4.928  16.954   8.611  0.0890 -0.1812 -0.1154
    2PSPI   C4B   28   4.859  17.001   8.243  0.2851 -0.1048  0.2183
    3PSPI    C1   29   9.432   3.938  10.665 -0.1798  0.2398  0.0278
    3PSPI    C2   30   9.771   4.150  10.643 -0.0479  0.0390  0.0996
    3PSPI    C3   31   9.549   4.162  10.976  0.0039 -0.0018  0.1357
    3PSPI   PO4   32   9.394   3.902  10.450  0.3259  0.3487  0.0829
    3PSPI   GL1   33   9.484   3.737  10.081  0.1268  0.0737 -0.2311
    3PSPI   GL2   34   9.383   3.988   9.957  0.1141 -0.1390 -0.1294
    3PSPI   C1A   35   9.461   3.414   9.848 -0.4366  0.1953  0.1581
    3PSPI   C2A   36   9.406   3.292   9.432  0.1550  0.1370 -0.1610
    3PSPI   C3A   37   9.309   3.267   8.972 -0.0088 -0.0516 -0.0427
    3PSPI   C4A   38   9.102   3.208   8.608 -0.0422 -0.0098 -0.0380
    3PSPI   C1B   39   9.330   3.863   9.497 -0.0119  0.1667  0.0014
    3PSPI   C2B   40   9.314   3.753   9.031 -0.1107 -0.0359  0.3139
    3PSPI   C3B   41   9.556   3.853   8.686  0.0166 -0.2087  0.2385
    3PSPI   C4B   42   9.769   3.833   8.333  0.1814 -0.2163  0.0796
    4PSPI    C1   43  13.923  17.092  10.398  0.1256  0.1604  0.2361
    4PSPI    C2   44  14.310  17.192  10.381  0.0962  0.2446  0.0423
    4PSPI    C3   45  14.041  17.456  10.515  0.0856  0.2424  0.0254
    4PSPI   PO4   46  13.951  16.962  10.119  0.4143 -0.0098 -0.0051
    4PSPI   GL1   47  13.879  16.843   9.737 -0.0102 -0.3625  0.2124
    4PSPI   GL2   48  13.628  17.094   9.772  0.0003  0.0355 -0.0378
    4PSPI   C1A   49  13.939  16.912   9.254  0.0769  0.1138 -0.0089
    4PSPI   C2A   50  13.792  17.040   8.794 -0.1208 -0.3646  0.2106
    4PSPI   C3A   51  13.940  16.989   8.439 -0.2195  0.1779  0.1662
    4PSPI   C4A   52  14.318  16.720   8.153 -0.0820 -0.1527  0.0304
    4PSPI   C1B   53  13.510  17.271   9.402  0.0350 -0.2355 -0.0708
    4PSPI   C2B   54  13.512  17.409   9.025 -0.0974 -0.1626 -0.1497
    4PSPI   C3B   55  13.725  17.784   8.925  0.2218  0.0551 -0.3271
    4PSPI   C4B   56  14.038  17.936   8.710  0.1229  0.1308 -0.0654
    5PSPI    C1   57  16.599   4.704   9.830 -0.1296 -0.2583  0.0694
    5PSPI    C2   58  16.641   4.744  10.226 -0.1732 -0.1405  0.0626
    5PSPI    C3   59  16.914   4.542  10.015  0.1308  0.2412  0.0797
    5PSPI   PO4   60  16.295   4.582   9.788  0.1923  0.5088  0.1012
    5PSPI   GL1   61  16.000   4.397   9.444 -0.2212 -0.2041  0.3886
    5PSPI   GL2   62  16.204   4.518   9.271  0.2311 -0.3205 -0.0655
    5PSPI   C1A   63  15.631   4.464   9.149 -0.0816 -0.1364 -0.0596
    5PSPI   C2A   64  15.457   4.530   8.744  0.3345  0.1947 -0.0190
    5PSPI   C3A   65  15.130   4.838   8.492 -0.1266  0.0304 -0.1562
    5PSPI   C4A   66  14.812   4.694   8.231 -0.1828 -0.3824  0.1895
    5PSPI   C1B   67  16.005   4.654   8.815 -0.2017  0.1548 -0.0515
    5PSPI   C2B   68  16.032   4.614   8.391  0.1500  0.0974 -0.1401
    5PSPI   C3B   69  16.074   4.840   7.981  0.2464  0.0824 -0.1264
    5PSPI   C4B   70  16.138   5.078   7.652  0.3480  0.1542 -0.2850
    6PSPI    C1   71   2.681  11.979  10.692  0.0278 -0.1407  0.0567
    6PSPI    C2   72   2.996  12.119  10.894 -0.0021  0.1844 -0.1149
    6PSPI    C3   73   2.673  11.990  11.092  0.1594  0.0339  0.0554
    6PSPI   PO4   74   2.932  11.820  10.509  0.3377  0.1332 -0.1332
    6PSPI   GL1   75   2.977  11.830  10.092  0.0190  0.0206 -0.1189
    6PSPI   GL2   76   3.289  11.886  10.007 -0.0026  0.1780  0.1234
    6PSPI   C1A   77   2.792  11.876   9.746  0.0896 -0.1611 -0.0227
    6PSPI   C2A   78   2.758  11.770   9.250  0.2220  0.2638 -0.2491
    6PSPI   C3A   79   2.875  11.683   8.805  0.1913  0.0564 -0.1511
    6PSPI   C4A   80   2.878  11.707   8.343  0.2973 -0.2334  0.0927
    6PSPI   C1B   81   3.286  11.866   9.457  0.0893 -0.1469 -0.2114
    6PSPI   C2B   82   3.287  11.837   8.989  0.1872  0.0558 -0.0299
    6PSPI   C3B   83   3.304  12.020   8.580  0.1447 -0.1042 -0.0491
    6PSPI   C4B   84   3.212  11.901   8.111 -0.1060  0.1578  0.1065
    7PSPI    C1   85  17.211   3.654   9.792  0.0114  0.0728 -0.1301
    7PSPI    C2   86  17.290   4.042   9.844  0.1507  0.0179  0.0797
    7PSPI    C3   87  17.292   3.794  10.157 -0.2134 -0.1045 -0.0101
    7PSPI   PO4   88  16.935   3.668   9.707 -0.0588 -0.2885 -0.1908
    7PSPI   GL1   89  16.775   3.372   9.338  0.0252 -0.0123 -0.0867
    7PSPI   GL2   90  16.595   3.573   9.399 -0.1610 -0.0332 -0.0544
    7PSPI   C1A   91  16.883   3.563   8.947  0.2424  0.0155  0.1569
    7PSPI   C2A   92  16.952   3.365   8.493 -0.2712 -0.0644  0.2344
    7PSPI   C3A   93  16.922   2.983   8.217  0.2373  0.0517  0.0311
    7PSPI   C4A   94  17.055   2.835   7.933  0.2709 -0.3043 -0.1216
    7PSPI   C1B   95  16.454   3.726   8.959  0.1326 -0.0089  0.0529
    7PSPI   C2B   96  16.216   3.609   8.560  0.3507 -0.0774 -0.1254
    7PSPI   C3B   97  15.994   3.586   8.142 -0.0661  0.1648 -0.1723
    7PSPI   C4B   98  15.866   3.813   7.853 -0.1652 -0.0555 -0.1272
    8PSPI    C1   99  11.940   8.135  10.108  0.1365  0.0141 -0.1125
    8PSPI    C2  100  12.072   8.513  10.129  0.0575  0.0294  0.1518
    8PSPI    C3  101  11.811   8.407   9.845  0.2084  0.1318 -0.0276
    8PSPI   PO4  102  12.183   8.000   9.998 -0.0331  0.0332  0.1070
    8PSPI   GL1  103  12.329   7.804   9.667  0.0060  0.0586 -0.0598
    8PSPI   GL2  104  11.967   7.844   9.598  0.0344 -0.4730  0.1116
    8PSPI   C1A  105  12.492   7.904   9.220  0.1287  0.2601 -0.1017
    8PSPI   C2A  106  12.517   8.026   8.781 -0.1307 -0.2142  0.0682
    8PSPI   C3A  107  12.480   7.971   8.448  0.1624 -0.2646 -0.0195
    8PSPI   C4A  108  12.600   8.135   8.047 -0.0385  0.2174  0.3415
    8PSPI   C1B  109  11.612   8.008   9.433 -0.0042 -0.1030 -0.2418
    8PSPI   C2B  110  11.409   8.091   8.989  0.2097 -0.3579 -0.2248
    8PSPI   C3B  111  11.429   8.080   8.516 -0.0957 -0.0772  0.0144
    8PSPI   C4B  112  11.427   8.274   8.110  0.2014  0.3310 -0.2010
    9PSPI    C1  113  10.070   5.553  10.029 -0.0166 -0.3787  0.1058
    9PSPI    C2  114  10.061   5.758  10.372  0.0161  0.1358 -0.1904
    9PSPI    C3  115   9.731   5.573  10.241 -0.0752  0.1797 -0.0265
    9PSPI   PO4  116  10.280   5.800   9.888 -0.2940  0.0124 -0.0667
    9PSPI   GL1  117  10.222   6.142   9.619 -0.0535  0.0792  0.0405
    9PSPI   GL2  118   9.928   6.249   9.552 -0.3335  0.0024 -0.0454
    9PSPI   C1A  119  10.369   5.996   9.272  0.2812 -0.0137  0.1390
    9PSPI   C2A  120  10.350   6.035   8.835  0.0402  0.1756 -0.1959
    9PSPI   C3A  121  10.156   6.069   8.433  0.2838 -0.0169 -0.0256
    9PSPI   C4A  122  10.228   5.817   8.170  0.0193  0.0347  0.0741
    9PSPI   C1B  123   9.968   6.266   9.142  0.4799 -0.2353  0.0049
    9PSPI   C2B  124   9.850   6.279   8.737  0.3604  0.1535 -0.1024
    9PSPI   C3B  125   9.762   6.394   8.355 -0.0955  0.2002  0.1316
    9PSPI   C4B  126   9.648   6.705   7.968 -0.2216 -0.0909 -0.2184
   10PSPI    C1  127  13.923   6.931  10.337  0.2914 -0.0651  0.0382
   10PSPI    C2  128  13.752   7.290  10.378 -0.1824 -0.2789 -0.0008
   10PSPI    C3  129  14.060   7.187  10.612  0.0189  0.1828 -0.0518
   10PSPI   PO4  130  13.936   6.954  10.007 -0.1648 -0.1498 -0.0235
   10PSPI   GL1  131  13.893   7.029   9.657 -0.1830  0.0116 -0.2315
   10PSPI   GL2  132  14.217   7.164   9.473  0.0478 -0.0825  0.2721
   10PSPI   C1A  133  13.528   6.899   9.533  0.1589 -0.0537  0.0093
   10PSPI   C2A  134  13.132   6.820   9.314  0.3045  0.1161  0.0750
   10PSPI   C3A  135  12.936   6.596   8.972  0.0211  0.0614  0.0577
   10PSPI   C4A  136  12.883   6.160   8.802  0.1063  0.0030 -0.0382
   10PSPI   C1B  137  14.212   7.042   9.061 -0.1460 -0.3078 -0.0828
   10PSPI   C2B  138  14.202   6.976   8.619  0.0482  0.1777 -0.1243
   10PSPI   C3B  139  14.065   7.009   8.250  0.0134  0.1608  0.0631
   10PSPI   C4B  140  13.752   7.216   7.950 -0.0057 -0.2756  0.1784
   11PSPI    C1  141  13.413  10.765  10.493 -0.0731 -0.1264  0.0951
   11PSPI    C2  142  13.140  11.030  10.618 -0.0556 -0.0117 -0.1050
   11PSPI    C3  143  13.261  10.736  10.862 -0.0981  0.1458  0.1081
   11PSPI   PO4  144  13.310  10.861  10.171  0.0503  0.0376 -0.1242
   11PSPI   GL1  145  12.988  10.679   9.861 -0.1688  0.3228  0.0880
   11PSPI   GL2  146  13.340  10.504   9.744 -0.0224 -0.0975 -0.1426
   11PSPI   C1A  147  12.682  10.865   9.518 -0.1149 -0.3299  0.0289
   11PSPI   C2A  148  12.545  11.131   9.168 -0.1668  0.1193 -0.2015
   11PSPI   C3A  149  12.239  11.301   8.785 -0.0419  0.0250  0.1097
   11PSPI   C4A  150  12.137  11.454   8.319  0.0628 -0.0580 -0.1180
   11PSPI   C1B  151  13.111  10.553   9.408 -0.0992  0.1282  0.0584
   11PSPI   C2B  152  13.101  10.512   9.014 -0.0220  0.2182  0.1669
   11PSPI   C3B  153  13.312  10.612   8.657  0.2497  0.1834  0.0252
   11PSPI   C4B  154  13.412  10.720   8.180  0.2662 -0.1237 -0.0721
   12PSPI    C1  155   1.835   0.827  10.530  0.1078  0.1481  0.0804
   12PSPI    C2  156   1.801   0.672  10.897 -0.1420 -0.0680 -0.0300
   12PSPI    C3  157   1.540   0.948  10.772 -0.1632 -0.1224 -0.1063
   12PSPI   PO4  158   2.034   0.838  10.410  0.2847 -0.2402 -0.0303
   12PSPI   GL1  159   2.180   1.004  10.098 -0.3535 -0.0884 -0.1489
   12PSPI   GL2  160   1.888   1.031   9.939 -0.2232  0.2423  0.1689
   12PSPI   C1A  161   2.122   1.390   9.704 -0.3058 -0.2559  0.1772
   12PSPI   C2A  162   2.178   1.469   9.253 -0.1179 -0.0863  0.1440
   12PSPI   C3A  163   2.470   1.607   8.880 -0.0834  0.2571  0.1427
   12PSPI   C4A  164   2.601   1.567   8.410 -0.2188 -0.4614  0.2269
   12PSPI   C1B  165   2.051   0.829   9.595 -0.4576 -0.2139  0.0125
   12PSPI   C2B  166   2.051   0.913   9.216 -0.1592 -0.0162  0.3088
   12PSPI   C3B  167   2.244   1.099   8.964 -0.0863 -0.0151 -0.0212
   12PSPI   C4B  168   2.280   1.253   8.547 -0.0025  0.0113  0.0891
   13PSPI    C1  169   0.050  15.856  10.810 -0.0339  0.0005  0.0308
   13PSPI    C2  170   0.056  15.903  11.207  0.2033  0.2789 -0.0024
   13PSPI    C3  171   0.204  15.570  11.043 -0.0266  0.0996  0.1489
   13PSPI   PO4  172   0.239  16.089  10.615 -0.0621 -0.1742 -0.3386
   13PSPI   GL1  173   0.233  16.159  10.172 -0.0405  0.3074  0.2944
   13PSPI   GL2  174   0.427  16.445  10.240  0.0393  0.1355 -0.1823
   13PSPI   C1A  175   0.295  15.790   9.917  0.4152  0.2802  0.0081
   13PSPI   C2A  176   0.263  15.838   9.495  0.3360  0.2934  0.1129
   13PSPI   C3A  177   0.146  16.173   9.168  0.1691 -0.2951  0.0582
   13PSPI   C4A  178  -0.063  16.053   8.767 -0.1030 -0.3574 -0.2156
   13PSPI   C1B  179   0.608  16.577   9.891  0.0171  0.3122  0.0317
   13PSPI   C2B  180   0.909  16.771   9.527  0.1350  0.0447 -0.0835
   13PSPI   C3B  181   1.032  16.965   9.158 -0.1292  0.1686 -0.1213
   13PSPI   C4B  182   1.449  17.108   8.913  0.2816 -0.2261  0.0107
   14PSPI    C1  183   5.761  12.279  10.211  0.0804  0.1107 -0.0216
   14PSPI    C2  184   5.363  12.272  10.252  0.0603  0.0196 -0.2206
   14PSPI    C3  185   5.593  12.061  10.502 -0.0355 -0.1949 -0.3107
   14PSPI   PO4  186   5.816  12.211   9.966  0.4018  0.2452 -0.1225
   14PSPI   GL1  187   6.008  12.275   9.569 -0.2717 -0.1415 -0.0370
   14PSPI   GL2  188   5.901  12.082   9.445  0.1091 -0.0724 -0.0490
   14PSPI   C1A  189   5.676  12.586   9.399  0.0407 -0.1898  0.1990
   14PSPI   C2A  190   5.442  12.587   9.066  0.1938 -0.0776 -0.0243
   14PSPI   C3A  191   5.214  12.713   8.637 -0.0437  0.3040 -0.0945
   14PSPI   C4A  192   4.906  12.701   8.438  0.0388  0.2490 -0.0969
   14PSPI   C1B  193   5.802  12.175   8.973 -0.5221  0.1548  0.0905
   14PSPI   C2B  194   5.589  12.032   8.646 -0.2755 -0.1049 -0.1533
   14PSPI   C3B  195   5.475  11.814   8.283  0.2278  0.1982 -0.1115
   14PSPI   C4B  196   5.239  11.585   8.020 -0.1336 -0.0933 -0.0260
   15PSPI    C1  197   7.405   4.954  10.153 -0.1932  0.0517  0.2283
   15PSPI    C2  198   7.011   4.936  10.085 -0.1569 -0.1498  0.0596
   15PSPI    C3  199   7.262   4.717   9.864  0.0505 -0.0264  0.1696
   15PSPI   PO4  200   7.487   5.242  10.075 -0.3292 -0.0870 -0.1441
   15PSPI   GL1  201   7.593   5.332   9.667 -0.2962  0.3438  0.2449
   15PSPI   GL2  202   7.654   4.962   9.561 -0.0567 -0.0778  0.0083
   15PSPI   C1A  203   7.347   5.424   9.340  0.1516  0.1836 -0.0558
   15PSPI   C2A  204   7.381   5.513   8.911 -0.0669 -0.2488  0.1842
   15PSPI   C3A  205   7.395   5.767   8.585 -0.2865 -0.1349 -0.0032
   15PSPI   C4A  206   7.359   6.259   8.625 -0.0351 -0.0845  0.0260
   15PSPI   C1B  207   7.656   5.149   9.154 -0.2288 -0.0997 -0.4787
   15PSPI   C2B  208   7.683   5.107   8.778  0.1060  0.1258 -0.0720
   15PSPI   C3B  209   7.664   4.777   8.316 -0.2187 -0.0090  0.1126
   15PSPI   C4B  210   7.729   4.376   8.024  0.0112 -0.0912  0.0260
   16PSPI    C1  211  11.458  11.475  10.534 -0.1800 -0.0694 -0.0394
   16PSPI    C2  212  11.220  11.610  10.826 -0.0164 -0.1142  0.1167
   16PSPI    C3  213  11.353  11.233  10.835  0.2264 -0.0303  0.1415
   16PSPI   PO4  214  11.376  11.428  10.269 -0.0061 -0.1243  0.0955
   16PSPI   GL1  215  11.674  11.537   9.971 -0.3683  0.1035 -0.0611
   16PSPI   GL2  216  11.551  11.243   9.829  0.1079  0.3054 -0.2607
   16PSPI   C1A  217  11.652  11.540   9.499  0.0933 -0.1998  0.3663
   16PSPI   C2A  218  11.541  11.649   9.036 -0.1045 -0.0940 -0.2583
   16PSPI   C3A  219  11.498  12.013   8.828  0.1939 -0.0810  0.1079
   16PSPI   C4A  220  11.708  12.244   8.503 -0.1783 -0.0280  0.1131
   16PSPI   C1B  221  11.104  11.297   9.620 -0.1330  0.0797  0.0125
   16PSPI   C2B  222  10.898  11.416   9.292 -0.0821 -0.0836 -0.1553
   16PSPI   C3B  223  10.613  11.695   9.143  0.3993 -0.1644  0.0041
   16PSPI   C4B  224  10.714  11.661   8.727 -0.0535  0.1217 -0.3808
   17PSPI    C1  225   3.892   2.273  11.168 -0.2524  0.0054 -0.2112
   17PSPI    C2  226   3.540   2.099  11.242  0.0212 -0.3613  0.2889
   17PSPI    C3  227   3.735   2.288  11.536 -0.0098  0.3310 -0.1160
   17PSPI   PO4  228   4.064   2.094  10.944 -0.0780 -0.2041 -0.2398
   17PSPI   GL1  229   4.149   1.974  10.531  0.3975 -0.3356  0.5079
   17PSPI   GL2  230   3.838   1.920  10.390  0.1272 -0.1909 -0.0740
   17PSPI   C1A  231   4.343   2.200  10.241 -0.5411  0.0212 -0.0016
   17PSPI   C2A  232   4.691   2.430   9.912  0.0975  0.0944  0.0101
   17PSPI   C3A  233   5.067   2.499   9.731  0.0455  0.3487 -0.3105
   17PSPI   C4A  234   5.287   2.825   9.664 -0.0803 -0.0309 -0.0390
   17PSPI   C1B  235   3.912   2.122   9.936  0.3050 -0.2862  0.0016
   17PSPI   C2B  236   3.757   2.152   9.552  0.0108  0.0594  0.2860
   17PSPI   C3B  237   3.830   2.033   9.053 -0.1962 -0.1704  0.0511
   17PSPI   C4B  238   4.135   2.074   8.701  0.0600  0.0546 -0.0631
   18PSPI    C1  239   4.557  18.277  10.595  0.0546 -0.1562 -0.1452
   18PSPI    C2  240   4.345  18.611  10.651 -0.0930 -0.2652 -0.0458
   18PSPI    C3  241   4.732  18.634  10.551 -0.0539 -0.0648  0.1435
   18PSPI   PO4  242   4.539  18.141  10.403  0.0029 -0.1204 -0.0338
   18PSPI   GL1  243   4.818  18.098  10.053 -0.0472  0.1376  0.0558
   18PSPI   GL2  244   5.031  18.272  10.282  0.0534  0.1319  0.0367
   18PSPI   C1A  245   4.647  18.195   9.639 -0.0555  0.0526  0.0638
   18PSPI   C2A  246   4.784  18.366   9.110 -0.1323  0.0256 -0.2578
   18PSPI   C3A  247   4.930  18.395   8.623 -0.0827 -0.0458 -0.0082
   18PSPI   C4A  248   4.809  18.296   8.249 -0.0468  0.0665  0.0267
   18PSPI   C1B  249   5.023  18.472   9.847 -0.1789  0.2435 -0.0662
   18PSPI   C2B  250   5.097  18.600   9.431 -0.0256  0.0465  0.2149
   18PSPI   C3B  251   5.106  18.792   9.023 -0.0991 -0.1719 -0.1173
   18PSPI   C4B  252   5.327  18.732   8.586  0.1649  0.0652 -0.1693
   19PSPI    C1  253   3.146  14.738  10.788  0.0571 -0.0569 -0.1155
   19PSPI    C2  254   3.522  14.688  10.916 -0.0290 -0.0160  0.1591
   19PSPI    C3  255   3.306  14.998  11.047  0.0183  0.2728 -0.4144
   19PSPI   PO4  256   3.171  14.718  10.565 -0.0742 -0.2819 -0.3818
   19PSPI   GL1  257   3.136  14.866  10.181 -0.0662 -0.0226  0.3377
   19PSPI   GL2  258   3.477  14.762  10.058 -0.0283 -0.1667  0.1022
   19PSPI   C1A  259   3.065  14.933   9.792 -0.0049  0.1706  0.1138
   19PSPI   C2A  260   3.059  14.837   9.397  0.1814  0.1428 -0.0153
   19PSPI   C3A  261   2.951  14.929   8.998  0.0320  0.0625  0.2092
   19PSPI   C4A  262   2.566  14.800   8.755 -0.2936 -0.0799  0.0531
   19PSPI   C1B  263   3.536  14.753   9.614  0.1656  0.0553  0.1096
   19PSPI   C2B  264   3.506  14.637   9.156 -0.1323  0.1455  0.1690
   19PSPI   C3B  265   3.491  14.693   8.836  0.0138 -0.0629  0.1298
   19PSPI   C4B  266   3.269  14.481   8.613 -0.1070  0.3066  0.0638
   20PSPI    C1  267   0.765   8.610  10.320 -0.2944 -0.3854 -0.1596
   20PSPI    C2  268   0.638   8.623  10.699  0.2783  0.0782  0.0328
   20PSPI    C3  269   0.826   8.297  10.562  0.1032 -0.0765  0.1539
   20PSPI   PO4  270   0.642   8.862  10.216 -0.2124  0.0742 -0.1127
   20PSPI   GL1  271   0.500   8.971   9.765 -0.3123 -0.0040 -0.0291
   20PSPI   GL2  272   0.187   9.076   9.702  0.2130  0.1864 -0.0684
   20PSPI   C1A  273   0.623   8.920   9.400 -0.0205  0.0119 -0.0826
   20PSPI   C2A  274   0.470   8.906   9.035 -0.0496  0.0204  0.2467
   20PSPI   C3A  275   0.384   9.049   8.526 -0.0744  0.0892 -0.3540
   20PSPI   C4A  276   0.575   9.327   8.318  0.1787  0.0461  0.0071
   20PSPI   C1B  277   0.132   9.096   9.364  0.0863 -0.1005 -0.0055
   20PSPI   C2B  278   0.158   9.315   8.892 -0.3282 -0.1436  0.1570
   20PSPI   C3B  279   0.090   9.570   8.515 -0.3907 -0.1125 -0.2310
   20PSPI   C4B  280   0.274   9.698   8.185 -0.0978 -0.1701  0.3987
   21POPI    C1  281   1.352  12.994  10.893 -0.1171 -0.1738 -0.1414
   21POPI    C2  282   1.703  12.818  10.970  0.0226  0.2002  0.1052
   21POPI    C3  283   1.379  12.723  11.186 -0.0069 -0.0684 -0.0529
   21POPI   PO4  284   1.337  13.011  10.647  0.0767 -0.0016 -0.0572
   21POPI   GL1  285   1.398  13.104  10.291  0.2571  0.0113  0.2624
   21POPI   GL2  286   1.371  13.436  10.238  0.0843 -0.2381  0.0037
   21POPI   C1A  287   1.242  13.077   9.896  0.1699  0.0549 -0.1155
   21POPI   D2A  288   1.327  13.218   9.543 -0.1634  0.1610 -0.1193
   21POPI   C3A  289   1.435  13.115   9.188  0.0849  0.1460  0.4150
   21POPI   C4A  290   1.773  13.163   9.024 -0.0786 -0.1133 -0.4592
   21POPI   C1B  291   1.486  13.656   9.798 -0.2225  0.2025  0.4099
   21POPI   C2B  292   1.523  13.903   9.526  0.1590 -0.0070  0.1127
   21POPI   C3B  293   1.404  14.128   9.262 -0.1359 -0.1075  0.2257
   21POPI   C4B  294   0.966  14.270   9.153 -0.1394 -0.0827 -0.1246
   22POPI    C1  295   6.006  16.937  10.716  0.6279  0.1979 -0.0163
   22POPI    C2  296   5.964  16.553  10.613 -0.2301  0.2642  0.0160
   22POPI    C3  297   6.004  16.653  10.998  0.0297  0.2114  0.0047
   22POPI   PO4  298   5.775  17.075  10.556 -0.0202 -0.2921 -0.0138
   22POPI   GL1  299   5.669  17.044  10.133  0.2978  0.0777 -0.0830
   22POPI   GL2  300   5.320  16.907  10.206 -0.0199 -0.0382 -0.1485
   22POPI   C1A  301   5.701  17.201   9.764  0.4258 -0.0272 -0.0602
   22POPI   D2A  302   5.781  17.349   9.350  0.0191  0.0808 -0.4230
   22POPI   C3A  303   5.787  17.102   9.010 -0.1272 -0.3537 -0.4849
   22POPI   C4A  304   5.923  17.161   8.596  0.0900 -0.1022  0.0689
   22POPI   C1B  305   5.310  16.880   9.791 -0.1987  0.4145  0.1885
   22POPI   C2B  306   5.334  17.028   9.349  0.2577 -0.1384  0.1430
   22POPI   C3B  307   5.330  16.868   8.950  0.1084  0.3268  0.0098
   22POPI   C4B  308   5.464  16.870   8.526 -0.1726 -0.1440  0.1664
   23POPI    C1  309  16.516  17.199  10.630  0.1476  0.0702  0.0464
   23POPI    C2  310  16.503  17.444  10.946  0.0935 -0.1582  0.2243
   23POPI    C3  311  16.337  17.080  10.968  0.1498 -0.2023 -0.0454
   23POPI   PO4  312  16.467  17.319  10.443 -0.1071 -0.0100  0.0883
   23POPI   GL1  313  16.656  17.282   9.995  0.2567  0.3726 -0.0181
   23POPI   GL2  314  16.907  17.460  10.052 -0.0372 -0.1664  0.0714
   23POPI   C1A  315  16.737  17.143   9.538  0.0195 -0.2451 -0.2178
   23POPI   D2A  316  16.915  16.989   9.241 -0.0254  0.2780 -0.2915
   23POPI   C3A  317  16.804  16.571   9.099 -0.0049 -0.1516 -0.0614
   23POPI   C4A  318  16.428  16.358   8.908 -0.1160  0.1558 -0.0239
   23POPI   C1B  319  17.218  17.233   9.709  0.2398  0.1922 -0.0055
   23POPI   C2B  320  17.413  17.087   9.323 -0.0398  0.0912 -0.0187
   23POPI   C3B  321  17.461  16.762   8.935 -0.1032 -0.0691 -0.0543
   23POPI   C4B  322  17.548  16.518   8.580 -0.0277 -0.4229 -0.1458
   24POPI    C1  323  15.778   1.511  10.272 -0.1417  0.0026  0.2221
   24POPI    C2  324  15.993   1.846  10.234  0.0285 -0.1188  0.1026
   24POPI    C3  325  15.695   1.829  10.499 -0.1425  0.2096 -0.0631
   24POPI   PO4  326  15.734   1.463   9.992  0.0210  0.2673 -0.0952
   24POPI   GL1  327  15.417   1.640   9.671 -0.2532 -0.0305  0.0834
   24POPI   GL2  328  15.179   1.366   9.671  0.3137  0.0171 -0.1926
   24POPI   C1A  329  15.270   1.581   9.257  0.1488 -0.0602 -0.1868
   24POPI   D2A  330  15.369   1.479   8.945  0.0382  0.3210  0.1901
   24POPI   C3A  331  15.199   1.621   8.635 -0.0391  0.1270  0.0718
   24POPI   C4A  332  15.085   1.627   8.222  0.1113 -0.0804 -0.2171
   24POPI   C1B  333  15.334   1.008   9.368  0.1344  0.0495 -0.2082
   24POPI   C2B  334  15.287   1.007   8.997  0.2001  0.2070  0.2799
   24POPI   C3B  335  15.250   1.024   8.573  0.1343 -0.0976 -0.2417
   24POPI   C4B  336  15.272   1.209   8.121  0.1625 -0.0602  0.2447
   25POPI    C1  337   8.232  11.082  10.576  0.0944  0.0065  0.1177
   25POPI    C2  338   8.337  10.702  10.645  0.2326  0.0096 -0.0671
   25POPI    C3  339   8.607  10.994  10.687  0.1380  0.0836  0.0325
   25POPI   PO4  340   8.110  11.084  10.226  0.2184 -0.1254 -0.2783
   25POPI   GL1  341   8.186  10.940   9.847 -0.1812  0.1416  0.0758
   25POPI   GL2  342   7.927  11.040   9.637  0.0716 -0.0815  0.1379
   25POPI   C1A  343   8.330  11.116   9.413 -0.1008 -0.0726 -0.0170
   25POPI   D2A  344   8.552  11.076   9.084 -0.1268 -0.1014 -0.1579
   25POPI   C3A  345   8.539  11.040   8.739 -0.0088  0.0269  0.4678
   25POPI   C4A  346   8.710  11.106   8.297 -0.1231  0.1335  0.1856
   25POPI   C1B  347   7.786  10.956   9.308  0.0845 -0.1822  0.0825
   25POPI   C2B  348   7.556  10.900   8.907  0.0734  0.1453  0.1415
   25POPI   C3B  349   7.183  10.833   8.592 -0.0423  0.2988  0.1556
   25POPI   C4B  350   6.888  10.613   8.290 -0.3812 -0.0599 -0.1637
   26POPI    C1  351  14.186   2.197  10.450 -0.0706 -0.0383  0.1555
   26POPI    C2  352  14.176   2.073  10.830 -0.2885  0.1158  0.2021
   26POPI    C3  353  14.392   2.395  10.730  0.0546 -0.1305  0.1298
   26POPI   PO4  354  13.999   2.192  10.370 -0.2559  0.1886  0.0151
   26POPI   GL1  355  14.049   1.947   9.981 -0.0839 -0.1435 -0.1328
   26POPI   GL2  356  14.108   2.308   9.899  0.1570 -0.0814 -0.0945
   26POPI   C1A  357  13.950   1.927   9.656 -0.3238  0.1132  0.2980
   26POPI   D2A  358  14.076   2.137   9.434 -0.0939 -0.3163  0.0294
   26POPI   C3A  359  14.514   2.275   9.389  0.0676 -0.0899 -0.2073
   26POPI   C4A  360  14.803   2.642   9.449 -0.1531 -0.0747 -0.2205
   26POPI   C1B  361  13.800   2.497   9.625 -0.0128 -0.0619  0.1497
   26POPI   C2B  362  13.750   2.328   9.115  0.1140 -0.0062 -0.0471
   26POPI   C3B  363  13.662   2.362   8.628 -0.0933  0.1536 -0.1000
   26POPI   C4B  364  13.281   2.270   8.299  0.3278  0.1909 -0.1649
   27POPI    C1  365   6.186   2.876  10.250  0.4070 -0.2255 -0.1134
   27POPI    C2  366   6.265   3.198  10.474  0.0974 -0.3493  0.1814
   27POPI    C3  367   6.119   3.243  10.104 -0.1331 -0.1500  0.2940
   27POPI   PO4  368   6.363   2.759  10.168  0.0354 -0.1285  0.2447
   27POPI   GL1  369   6.321   2.462   9.837 -0.1184  0.2551 -0.3079
   27POPI   GL2  370   6.445   2.275  10.037  0.0951 -0.5851 -0.2348
   27POPI   C1A  371   6.241   2.548   9.424 -0.0171 -0.1417  0.2954
   27POPI   D2A  372   6.270   2.260   9.003  0.2026  0.0021  0.0395
   27POPI   C3A  373   6.625   2.217   8.801 -0.5320 -0.1422 -0.1493
   27POPI   C4A  374   7.086   2.265   8.647  0.1481  0.0387 -0.0724
   27POPI   C1B  375   6.319   2.004   9.648  0.1242 -0.3904 -0.2061
   27POPI   C2B  376   6.065   2.020   9.342  0.2632  0.0582  0.2019
   27POPI   C3B  377   5.678   1.965   9.229  0.1707  0.0282 -0.1451
   27POPI   C4B  378   5.522   1.621   9.022 -0.1669  0.1940  0.2065
   28POPI    C1  379  16.647   9.582  10.348  0.1219  0.0734  0.1120
   28POPI    C2  380  16.733   9.946  10.489  0.1715  0.0376  0.1746
   28POPI    C3  381  16.529   9.687  10.716  0.0338  0.0673  0.0856
   28POPI   PO4  382  16.833   9.517  10.227 -0.2680  0.3263  0.0996
   28POPI   GL1  383  16.734   9.303   9.709 -0.3857  0.0215 -0.1055
   28POPI   GL2  384  16.468   9.459   9.799 -0.0569 -0.1235  0.0132
   28POPI   C1A  385  16.767   9.266   9.313  0.0132 -0.2386  0.3101
   28POPI   D2A  386  16.885   9.009   8.942  0.0597 -0.1328 -0.0405
   28POPI   C3A  387  16.961   9.248   8.535  0.0831  0.0178  0.4277
   28POPI   C4A  388  17.102   9.172   8.074  0.2384  0.0387  0.3239
   28POPI   C1B  389  16.508   9.741   9.445  0.0038  0.0525 -0.0639
   28POPI   C2B  390  16.546   9.636   8.941 -0.2874 -0.0412 -0.0211
   28POPI   C3B  391  16.716   9.712   8.547 -0.0282 -0.0054 -0.1022
   28POPI   C4B  392  16.982   9.957   8.313 -0.5507 -0.1995  0.2913
   29POPI    C1  393   1.889  17.000  10.503  0.0703  0.1084 -0.1427
   29POPI    C2  394   2.015  16.984  10.883 -0.0510  0.0001 -0.1064
   29POPI    C3  395   1.627  17.036  10.803 -0.0256  0.0244 -0.2162
   29POPI   PO4  396   2.173  16.936  10.400 -0.0295 -0.2265  0.3745
   29POPI   GL1  397   2.295  16.795  10.099 -0.0174  0.1074 -0.1152
   29POPI   GL2  398   2.324  16.427   9.993 -0.0347 -0.4731 -0.1193
   29POPI   C1A  399   2.273  16.996   9.753  0.0647  0.0262 -0.0255
   29POPI   D2A  400   2.257  16.893   9.277 -0.1254 -0.0336  0.1741
   29POPI   C3A  401   2.493  16.742   8.965 -0.1167 -0.0727  0.0034
   29POPI   C4A  402   2.625  16.716   8.516 -0.1803 -0.0269  0.1234
   29POPI   C1B  403   2.427  16.511   9.677  0.0220  0.3136  0.1497
   29POPI   C2B  404   2.639  16.306   9.253 -0.2100  0.2982  0.1325
   29POPI   C3B  405   2.813  16.220   8.825 -0.2335  0.0475  0.2321
   29POPI   C4B  406   3.180  16.264   8.609  0.1402  0.1246  0.0530
   30POPI    C1  407   5.841   4.115  10.359  0.0611  0.1424 -0.0985
   30POPI    C2  408   6.060   4.442  10.430  0.1100  0.0773  0.0543
   30POPI    C3  409   5.672   4.437  10.526  0.0644  0.1564 -0.1220
   30POPI   PO4  410   5.846   4.110  10.078 -0.1404 -0.1024  0.0486
   30POPI   GL1  411   5.857   4.131   9.624 -0.0938 -0.0297 -0.0434
   30POPI   GL2  412   6.129   4.190   9.593 -0.1044  0.0516  0.2695
   30POPI   C1A  413   5.735   3.762   9.321  0.1025 -0.0620  0.1569
   30POPI   D2A  414   5.705   3.734   8.920  0.1029 -0.0616  0.0650
   30POPI   C3A  415   5.438   4.061   8.746  0.0955 -0.0018 -0.2092
   30POPI   C4A  416   5.039   4.247   8.828 -0.3721 -0.0415  0.2472
   30POPI   C1B  417   6.166   4.050   9.155  0.1339  0.1643 -0.4555
   30POPI   C2B  418   6.175   4.139   8.738  0.2172 -0.1754  0.2779
   30POPI   C3B  419   6.288   4.387   8.484  0.1090  0.2572  0.2269
   30POPI   C4B  420   6.172   4.744   8.244  0.0896 -0.0190 -0.3343
   31POPI    C1  421   1.126  13.548  10.893 -0.1872  0.0703  0.0944
   31POPI    C2  422   0.809  13.469  11.123 -0.1081 -0.0422  0.1658
   31POPI    C3  423   1.175  13.361  11.243 -0.0280  0.1933  0.1394
   31POPI   PO4  424   1.090  13.507  10.674 -0.2100  0.0481 -0.0766
   31POPI   GL1  425   0.875  13.348  10.277 -0.1562 -0.0237 -0.2116
   31POPI   GL2  426   0.898  13.041  10.308 -0.0542  0.0451 -0.1835
   31POPI   C1A  427   1.020  13.529   9.894  0.0431 -0.2127 -0.5710
   31POPI   D2A  428   1.048  13.821   9.572 -0.0621 -0.1265  0.0398
   31POPI   C3A  429   1.295  13.627   9.151  0.0021 -0.0317  0.1261
   31POPI   C4A  430   1.134  13.346   8.880  0.1317 -0.0360  0.2126
   31POPI   C1B  431   0.684  13.074   9.847 -0.1250 -0.2937 -0.0060
   31POPI   C2B  432   0.839  13.378   9.444 -0.1744  0.2519 -0.2203
   31POPI   C3B  433   0.763  13.722   9.187  0.0571 -0.2031 -0.0919
   31POPI   C4B  434   0.457  14.039   9.039 -0.1394  0.4661  0.1140
   32POPI    C1  435  11.374   4.758  10.526 -0.0220 -0.1280  0.0741
   32POPI    C2  436  11.280   5.063  10.767  0.1756 -0.1738  0.2116
   32POPI    C3  437  11.663   4.984  10.685  0.1068 -0.0831 -0.2185
   32POPI   PO4  438  11.240   4.818  10.311 -0.2367 -0.0410 -0.1080
   32POPI   GL1  439  11.332   4.982   9.958 -0.3769 -0.0725  0.1326
   32POPI   GL2  440  11.369   5.268   9.788 -0.1537  0.0806 -0.0093
   32POPI   C1A  441  11.658   4.726   9.843  0.2991  0.5915  0.3281
   32POPI   D2A  442  11.617   4.420   9.533  0.1110 -0.0911  0.1317
   32POPI   C3A  443  11.424   4.023   9.440  0.0084 -0.2796  0.2330
   32POPI   C4A  444  11.358   3.668   9.601  0.0150 -0.2913  0.1079
   32POPI   C1B  445  11.215   5.027   9.461  0.2714 -0.1262  0.0833
   32POPI   C2B  446  11.229   5.081   9.019 -0.0694  0.3390  0.1071
   32POPI   C3B  447  10.902   5.045   8.648 -0.1488  0.1890 -0.0112
   32POPI   C4B  448  10.726   5.221   8.332  0.0938 -0.3167  0.2113
   33POPI    C1  449  17.098   7.230   9.710  0.1079 -0.1254 -0.0662
   33POPI    C2  450  16.907   7.087  10.031  0.2121 -0.0376  0.0354
   33POPI    C3  451  17.306   7.116  10.031  0.2136 -0.0507 -0.1074
   33POPI   PO4  452  16.960   7.450   9.619 -0.1863  0.0413 -0.0728
   33POPI   GL1  453  16.664   7.513   9.371 -0.0145 -0.3780 -0.2307
   33POPI   GL2  454  16.354   7.610   9.544  0.1623  0.3299 -0.2344
   33POPI   C1A  455  16.615   7.257   8.987  0.1199  0.3055 -0.3455
   33POPI   D2A  456  16.643   7.268   8.591 -0.0119  0.1059 -0.4099
   33POPI   C3A  457  16.528   7.353   8.257 -0.4049  0.3835  0.0124
   33POPI   C4A  458  16.346   7.333   7.859  0.0216 -0.1246 -0.0873
   33POPI   C1B  459  16.364   7.736   9.059 -0.0357 -0.1007 -0.0607
   33POPI   C2B  460  16.311   7.644   8.620 -0.1094 -0.3214 -0.1346
   33POPI   C3B  461  16.122   7.715   8.242  0.0872  0.0809  0.4062
   33POPI   C4B  462  15.882   7.764   7.918  0.1354  0.3097 -0.2945
   34POPI    C1  463   2.424  17.872  10.415  0.0985  0.0740 -0.0414
   34POPI    C2  464   2.781  17.900  10.595  0.1108 -0.3554  0.0126
   34POPI    C3  465   2.447  17.874  10.814  0.0334  0.1208 -0.0379
   34POPI   PO4  466   2.492  17.701  10.265 -0.0745  0.0001 -0.1495
   34POPI   GL1  467   2.548  17.479   9.862 -0.0856 -0.1274  0.2011
   34POPI   GL2  468   2.775  17.688   9.721 -0.3911 -0.0079  0.2421
   34POPI   C1A  469   2.563  17.359   9.469 -0.0268 -0.2699  0.1035
   34POPI   D2A  470   2.340  17.378   9.066 -0.2469  0.0894 -0.0948
   34POPI   C3A  471   2.422  17.236   8.689 -0.0030 -0.2760 -0.2743
   34POPI   C4A  472   2.347  17.151   8.289 -0.2921  0.0531 -0.1152
   34POPI   C1B  473   2.875  17.939   9.370 -0.0758  0.0350 -0.0534
   34POPI   C2B  474   2.964  18.047   8.864  0.1492 -0.0112  0.1210
   34POPI   C3B  475   3.013  18.448   8.538 -0.0698  0.1015  0.1276
   34POPI   C4B  476   2.980  18.818   8.197 -0.1976  0.0788  0.1902
   35POPI    C1  477  11.951  13.789  10.910 -0.0012 -0.1514  0.0333
   35POPI    C2  478  11.976  13.965  11.268  0.0899  0.0202 -0.0563
   35POPI    C3  479  11.768  13.626  11.226 -0.1282  0.1312  0.1085
   35POPI   PO4  480  12.214  13.733  10.793 -0.0055 -0.1456  0.0877
   35POPI   GL1  481  12.140  13.404  10.538  0.2237 -0.0651 -0.3092
   35POPI   GL2  482  12.191  13.054  10.598 -0.0293  0.0599  0.1985
   35POPI   C1A  483  12.139  13.489  10.040  0.1803 -0.1868  0.0628
   35POPI   D2A  484  12.181  13.373   9.549  0.1808 -0.1276 -0.0927
   35POPI   C3A  485  12.291  13.059   9.348 -0.0020 -0.0980  0.1711
   35POPI   C4A  486  12.248  12.905   8.919  0.0557 -0.1726  0.1346
   35POPI   C1B  487  12.501  13.205  10.197 -0.0411  0.2632 -0.0035
   35POPI   C2B  488  12.979  13.194  10.107 -0.0507 -0.1366 -0.1030
   35POPI   C3B  489  13.405  12.982  10.103  0.1265 -0.0945 -0.0294
   35POPI   C4B  490  13.774  12.743  10.036 -0.0330 -0.0502  0.1061
   36POPI    C1  491  18.262   2.624   9.767 -0.0022  0.0440  0.0688
   36POPI    C2  492  18.201   2.730  10.148 -0.1217 -0.0495  0.0764
   36POPI    C3  493  18.293   2.351  10.058  0.0979  0.0136  0.0297
   36POPI   PO4  494  18.092   2.756   9.658 -0.2771  0.3982 -0.2528
   36POPI   GL1  495  18.158   2.958   9.286 -0.3589  0.3916  0.3661
   36POPI   GL2  496  18.436   3.053   9.417  0.1925 -0.1313 -0.0944
   36POPI   C1A  497  18.560   2.865   8.973  0.1840  0.3488  0.2366
   36POPI   D2A  498  18.643   2.588   8.710  0.0060 -0.2040  0.3158
   36POPI   C3A  499  18.450   2.429   8.291 -0.0060  0.2080  0.0130
   36POPI   C4A  500  18.444   2.027   8.011 -0.0231 -0.0739 -0.3950
   36POPI   C1B  501  18.423   3.324   9.092 -0.4468  0.0171  0.1758
   36POPI   C2B  502  18.566   3.314   8.735  0.2977 -0.1613 -0.2916
   36POPI   C3B  503  18.779   3.003   8.517  0.1332  0.0774  0.2586
   36POPI   C4B  504  18.823   2.729   8.233  0.0281 -0.3028  0.0567
   37POPI    C1  505  12.965   0.032  10.634 -0.0029 -0.0439 -0.0672
   37POPI    C2  506  13.293  -0.108  10.816 -0.0479 -0.1231 -0.0470
   37POPI    C3  507  13.242  -0.167  10.424  0.1087  0.1556 -0.1118
   37POPI   PO4  508  12.956   0.272  10.615  0.1438 -0.0162 -0.3583
   37POPI   GL1  509  12.868   0.596  10.404  0.0991 -0.1426 -0.1299
   37POPI   GL2  510  13.189   0.556  10.230  0.1116  0.3242 -0.0208
   37POPI   C1A  511  12.866   0.320   9.993  0.4184  0.1000 -0.2550
   37POPI   D2A  512  12.679   0.256   9.654 -0.0540  0.0279  0.0471
   37POPI   C3A  513  12.462  -0.008   9.361  0.1071  0.2525  0.0878
   37POPI   C4A  514  12.224  -0.414   9.593  0.2138  0.0809 -0.1891
   37POPI   C1B  515  13.047   0.718   9.844  0.1105  0.0531  0.4261
   37POPI   C2B  516  12.832   0.686   9.422  0.0630  0.3483 -0.3135
   37POPI   C3B  517  12.825   0.783   9.058 -0.0826  0.2590 -0.1701
   37POPI   C4B  518  12.976   0.989   8.615  0.3816 -0.3575  0.1394
   38POPI    C1  519  16.360  11.878  10.883 -0.0268  0.2039  0.1343
   38POPI    C2  520  15.975  11.978  10.838 -0.1011  0.2448  0.7669
   38POPI    C3  521  16.073  11.651  11.047  0.2021 -0.0091  0.2470
   38POPI   PO4  522  16.534  12.141  10.720 -0.1052  0.2951  0.1772
   38POPI   GL1  523  16.741  12.222  10.333  0.2246 -0.1546  0.2008
   38POPI   GL2  524  16.544  12.443  10.018  0.1445 -0.0678  0.1893
   38POPI   C1A  525  17.129  12.213   9.979 -0.0135  0.0446  0.1296
   38POPI   D2A  526  17.419  12.263   9.651  0.2208  0.0883  0.1162
   38POPI   C3A  527  17.405  12.122   9.186 -0.0322  0.3612 -0.4510
   38POPI   C4A  528  17.598  11.962   8.805  0.3405  0.1997 -0.0114
   38POPI   C1B  529  16.465  12.116   9.880  0.2675  0.0778  0.0880
   38POPI   C2B  530  16.338  12.086   9.467  0.0310 -0.4779  0.1332
   38POPI   C3B  531  16.476  12.209   9.068  0.2375  0.1331 -0.1591
   38POPI   C4B  532  16.611  12.560   8.875 -0.1716  0.1025 -0.3168
   39POPI    C1  533   2.488  11.508  10.924 -0.0940  0.0949  0.0900
   39POPI    C2  534   2.617  11.132  10.964 -0.1447  0.0747  0.0653
   39POPI    C3  535   2.697  11.402  11.248 -0.2483  0.0052  0.1617
   39POPI   PO4  536   2.494  11.518  10.604  0.0334  0.1633 -0.2714
   39POPI   GL1  537   2.559  11.543  10.197 -0.0435 -0.1702 -0.0270
   39POPI   GL2  538   2.475  11.914  10.220 -0.0114 -0.0331  0.1885
   39POPI   C1A  539   2.511  11.461   9.782  0.0809  0.1518 -0.1340
   39POPI   D2A  540   2.496  11.201   9.478 -0.4674  0.1954 -0.4179
   39POPI   C3A  541   2.663  11.293   9.041  0.3393  0.3477 -0.0675
   39POPI   C4A  542   2.821  11.217   8.632  0.1026 -0.0214  0.2135
   39POPI   C1B  543   2.199  11.836   9.807 -0.1470 -0.2565  0.0083
   39POPI   C2B  544   1.961  12.063   9.471  0.0506 -0.2727  0.0711
   39POPI   C3B  545   1.934  12.213   9.051  0.1018  0.0475 -0.0600
   39POPI   C4B  546   1.983  12.298   8.620  0.2153 -0.0286 -0.2775
   40POPI    C1  547   8.612   6.649  10.183 -0.2992 -0.0718  0.1158
   40POPI    C2  548   8.762   6.599  10.550 -0.2676 -0.0688  0.1033
   40POPI    C3  549   8.872   6.915  10.331 -0.5693  0.1306  0.2335
   40POPI   PO4  550   8.293   6.607  10.246 -0.2537  0.2739  0.0330
   40POPI   GL1  551   8.056   6.629   9.889  0.4014 -0.0760 -0.0671
   40POPI   GL2  552   8.360   6.713   9.686  0.0944 -0.1130  0.0824
   40POPI   C1A  553   7.984   6.277   9.537 -0.2621 -0.0053  0.0189
   40POPI   D2A  554   8.153   5.935   9.195 -0.4910  0.1070 -0.0642
   40POPI   C3A  555   8.471   5.970   9.003 -0.1623 -0.0859  0.1432
   40POPI   C4A  556   8.883   6.003   8.947 -0.1143 -0.0735  0.0644
   40POPI   C1B  557   8.016   6.783   9.411  0.0816 -0.1743  0.0805
   40POPI   C2B  558   7.987   7.006   9.041 -0.0106  0.1727 -0.0197
   40POPI   C3B  559   7.721   7.107   8.636  0.2033 -0.0863  0.1107
   40POPI   C4B  560   7.541   7.259   8.320 -0.1710  0.0343  0.0614
   41POPI    C1  561   2.948  16.380  10.731  0.1819 -0.1263  0.1924
   41POPI    C2  562   2.885  16.002  10.844 -0.3039 -0.0729  0.1201
   41POPI    C3  563   2.582  16.263  10.839  0.0383  0.3382  0.2307
   41POPI   PO4  564   3.062  16.241  10.444  0.2433  0.2533  0.0076
   41POPI   GL1  565   2.877  15.811  10.171 -0.0644  0.1264 -0.0131
   41POPI   GL2  566   2.700  15.582  10.479 -0.1557 -0.0515  0.1247
   41POPI   C1A  567   3.043  15.577   9.862 -0.5664  0.2166  0.1827
   41POPI   D2A  568   3.208  15.741   9.514 -0.0679  0.0065  0.3016
   41POPI   C3A  569   2.994  15.891   9.258  0.0701  0.1064 -0.0224
   41POPI   C4A  570   3.158  15.809   8.841  0.2058 -0.1209  0.0295
   41POPI   C1B  571   2.427  15.581  10.159  0.0959 -0.0930  0.1420
   41POPI   C2B  572   2.169  15.435   9.845  0.2121  0.0914 -0.0518
   41POPI   C3B  573   2.140  15.457   9.410  0.0010  0.0155 -0.3340
   41POPI   C4B  574   2.140  15.411   8.952  0.1575  0.0670  0.0004
   42POPI    C1  575   0.880   2.482  10.049  0.1990 -0.1146 -0.1754
   42POPI    C2  576   1.241   2.389  10.194  0.3608  0.3315 -0.2769
   42POPI    C3  577   1.050   2.715  10.325 -0.1447 -0.0583 -0.0057
   42POPI   PO4  578   0.829   2.328   9.899  0.0841  0.2286  0.1748
   42POPI   GL1  579   0.837   2.407   9.522  0.1600  0.0530 -0.3266
   42POPI   GL2  580   0.868   2.137   9.351 -0.1872 -0.0690  0.1458
   42POPI   C1A  581   1.266   2.525   9.246  0.2544  0.2061  0.1712
   42POPI   D2A  582   1.436   2.399   8.896  0.0609 -0.1466  0.0745
   42POPI   C3A  583   1.553   2.341   8.503  0.1462 -0.0741  0.1103
   42POPI   C4A  584   1.530   2.372   8.064 -0.1112 -0.1675  0.1563
   42POPI   C1B  585   0.741   1.905   8.897 -0.0488 -0.1017  0.1782
   42POPI   C2B  586   0.920   1.738   8.439  0.1748 -0.3792  0.2840
   42POPI   C3B  587   0.630   1.745   8.027 -0.1151 -0.0597  0.1629
   42POPI   C4B  588   0.456   1.509   7.747  0.1097 -0.1058  0.1419
   43POPI    C1  589  15.874   5.273   9.747  0.1297 -0.0165  0.0704
   43POPI    C2  590  15.503   5.316   9.891  0.2158  0.2493  0.2208
   43POPI    C3  591  15.810   5.261  10.142  0.2330 -0.3818  0.0797
   43POPI   PO4  592  15.933   5.012   9.611  0.0277  0.1465  0.1128
   43POPI   GL1  593  15.828   5.021   9.067 -0.1989 -0.0501 -0.0525
   43POPI   GL2  594  16.116   5.205   9.128  0.0501  0.0783 -0.3159
   43POPI   C1A  595  15.674   4.992   8.622 -0.1423  0.0295  0.0273
   43POPI   D2A  596  15.583   4.837   8.248 -0.0003  0.0274  0.1278
   43POPI   C3A  597  15.647   5.154   8.001  0.0391 -0.1588 -0.0300
   43POPI   C4A  598  15.567   5.196   7.571  0.0535 -0.0752 -0.1889
   43POPI   C1B  599  16.100   5.298   8.755  0.1154 -0.0369 -0.0606
   43POPI   C2B  600  16.020   5.227   8.350 -0.0807 -0.0787 -0.0717
   43POPI   C3B  601  16.136   5.441   8.024  0.0317 -0.0757  0.1834
   43POPI   C4B  602  16.092   5.769   7.716 -0.1290  0.0346  0.4213
   44POPI    C1  603  16.866   6.110   9.509 -0.1756 -0.1693  0.1692
   44POPI    C2  604  16.540   6.292   9.651  0.1063  0.4528  0.0536
   44POPI    C3  605  16.869   6.265   9.878  0.0488  0.0118  0.0939
   44POPI   PO4  606  16.803   5.828   9.418  0.0348 -0.4076  0.0680
   44POPI   GL1  607  16.758   5.609   9.106  0.0403 -0.1635 -0.3622
   44POPI   GL2  608  16.751   5.338   9.120 -0.2177  0.2652  0.1239
   44POPI   C1A  609  17.063   5.648   8.812  0.0182 -0.0276  0.1564
   44POPI   D2A  610  17.069   5.578   8.348 -0.0765 -0.2647 -0.1414
   44POPI   C3A  611  17.138   5.631   7.997 -0.4305  0.0915 -0.0153
   44POPI   C4A  612  17.125   5.933   7.745  0.2898  0.0559  0.1794
   44POPI   C1B  613  16.626   5.387   8.637  0.4111  0.2254  0.2378
   44POPI   C2B  614  16.598   5.341   8.226  0.0982 -0.0936 -0.1154
   44POPI   C3B  615  16.561   5.327   7.770  0.1626 -0.1997 -0.1718
   44POPI   C4B  616  16.720   5.391   7.416  0.0010  0.1103 -0.2912
   45POPI    C1  617   4.567  15.898  11.051 -0.0841  0.1349  0.0732
   45POPI    C2  618   4.484  15.599  11.304 -0.1375  0.1374  0.0585
   45POPI    C3  619   4.698  15.913  11.429 -0.1045  0.1058  0.0813
   45POPI   PO4  620   4.440  15.901  10.820 -0.2185 -0.1017  0.2508
   45POPI   GL1  621   4.627  15.762  10.434  0.0677 -0.0058  0.0426
   45POPI   GL2  622   4.807  15.523  10.385  0.1197 -0.0951  0.0138
   45POPI   C1A  623   4.439  15.794  10.033 -0.0891 -0.1769 -0.3793
   45POPI   D2A  624   4.401  15.495   9.711 -0.1362  0.0869 -0.3087
   45POPI   C3A  625   4.687  15.501   9.409 -0.2436  0.2234  0.0830
   45POPI   C4A  626   4.792  15.592   8.973  0.2654  0.2753  0.1050
   45POPI   C1B  627   4.998  15.500   9.863 -0.0812 -0.0077  0.2058
   45POPI   C2B  628   5.141  15.392   9.483  0.1041  0.0339 -0.1024
   45POPI   C3B  629   5.281  15.439   9.087  0.1284  0.1745 -0.0043
   45POPI   C4B  630   5.191  15.166   8.689 -0.0714 -0.1260  0.0107
   46POPI    C1  631   9.336  13.587  10.707  0.0391  0.1523 -0.0661
   46POPI    C2  632   9.274  13.523  11.097 -0.2490 -0.1542 -0.1574
   46POPI    C3  633   9.192  13.881  10.938  0.2270  0.0934  0.1295
   46POPI   PO4  634   9.192  13.378  10.593 -0.0156  0.2054  0.0299
   46POPI   GL1  635   8.917  13.441  10.296  0.0360  0.2517  0.1787
   46POPI   GL2  636   8.881  13.681   9.942  0.0406 -0.1454 -0.0557
   46POPI   C1A  637   8.829  13.224   9.842 -0.2229 -0.1387  0.2904
   46POPI   D2A  638   8.661  12.847   9.531  0.1085 -0.0822  0.2227
   46POPI   C3A  639   8.788  12.842   9.037  0.2734  0.2359  0.1441
   46POPI   C4A  640   8.779  13.066   8.716 -0.1682  0.3387 -0.0925
   46POPI   C1B  641   9.024  13.864   9.655  0.2542  0.2879  0.4003
   46POPI   C2B  642   9.083  13.772   9.154 -0.0711  0.0408 -0.0975
   46POPI   C3B  643   9.104  13.915   8.637  0.3898 -0.0069 -0.2486
   46POPI   C4B  644   9.247  13.922   8.275  0.0870  0.1631  0.0112
   47POPI    C1  645   3.653  12.672  10.379 -0.2977  0.0972  0.0825
   47POPI    C2  646   3.893  12.870  10.630  0.0004  0.0701 -0.1746
   47POPI    C3  647   3.497  12.920  10.651  0.0391  0.2857  0.1096
   47POPI   PO4  648   3.708  12.426  10.336  0.1361  0.1986 -0.1064
   47POPI   GL1  649   3.889  12.137  10.082  0.1872  0.0543  0.0335
   47POPI   GL2  650   3.752  11.825  10.273  0.1259 -0.0561  0.2743
   47POPI   C1A  651   3.632  12.128   9.678  0.1785 -0.0768  0.0046
   47POPI   D2A  652   3.600  12.171   9.183  0.2991 -0.2835 -0.1390
   47POPI   C3A  653   3.830  12.235   8.800  0.1483 -0.0317 -0.1248
   47POPI   C4A  654   4.144  12.128   8.489  0.0945 -0.4094  0.0687
   47POPI   C1B  655   3.611  11.595   9.854  0.1018 -0.2131 -0.1386
   47POPI   C2B  656   3.530  11.310   9.473  0.1044 -0.2371  0.3927
   47POPI   C3B  657   3.574  10.926   9.168  0.1266  0.2388  0.0583
   47POPI   C4B  658   3.541  10.662   8.966  0.0035  0.2148  0.3344
   48POPI    C1  659   0.829  10.163  10.313  0.1612 -0.1981 -0.0996
   48POPI    C2  660   1.202  10.259  10.205  0.1215 -0.0501 -0.1080
   48POPI    C3  661   1.102  10.248  10.592  0.1235 -0.0491 -0.1073
   48POPI   PO4  662   0.693  10.339  10.102  0.0435  0.2441  0.0642
   48POPI   GL1  663   0.685  10.175   9.669  0.0340 -0.1788 -0.1947
   48POPI   GL2  664   0.330  10.012   9.629 -0.2085  0.1432 -0.2335
   48POPI   C1A  665   0.651  10.145   9.262  0.1417 -0.0298  0.0876
   48POPI   D2A  666   0.737  10.107   8.866 -0.3977 -0.0716  0.1331
   48POPI   C3A  667   0.572  10.491   8.583  0.2781 -0.0085 -0.0484
   48POPI   C4A  668   0.336  10.804   8.406  0.1344  0.1369 -0.1082
   48POPI   C1B  669   0.227   9.931   9.321  0.2106 -0.0126 -0.0833
   48POPI   C2B  670   0.268   9.842   8.921 -0.0507  0.0207 -0.3710
   48POPI   C3B  671   0.516   9.768   8.652 -0.0207 -0.0531  0.0766
   48POPI   C4B  672   0.946   9.740   8.436  0.2233  0.2448  0.0065
   49POPI    C1  673   7.398  16.963  11.080  0.1548 -0.0022  0.1097
   49POPI    C2  674   7.769  16.970  11.231  0.1938 -0.0186  0.0158
   49POPI    C3  675   7.603  17.306  11.092  0.2166 -0.0324 -0.0453
   49POPI   PO4  676   7.418  16.750  10.867  0.0579 -0.0169  0.0962
   49POPI   GL1  677   7.615  16.711  10.412  0.1038  0.0977 -0.1776
   49POPI   GL2  678   7.984  16.760  10.271  0.1540  0.1159  0.1158
   49POPI   C1A  679   7.671  17.070  10.192  0.0037  0.0173  0.1042
   49POPI   D2A  680   7.539  17.431  10.015 -0.1165  0.1579  0.0869
   49POPI   C3A  681   7.894  17.705  10.031  0.5020  0.0881  0.3014
   49POPI   C4A  682   8.160  18.010  10.121 -0.2481 -0.1734 -0.0735
   49POPI   C1B  683   7.849  16.790   9.812 -0.1836 -0.1413 -0.1981
   49POPI   C2B  684   7.988  16.771   9.490 -0.1545 -0.3134 -0.0817
   49POPI   C3B  685   8.149  16.705   9.188 -0.0249 -0.0790 -0.1519
   49POPI   C4B  686   8.346  16.751   8.812  0.1526 -0.3152 -0.1741
   50POPI    C1  687   3.187  15.530  10.988 -0.0115 -0.2471  0.0051
   50POPI    C2  688   3.048  15.369  11.327  0.1114  0.0884  0.2197
   50POPI    C3  689   3.041  15.766  11.276  0.1977  0.0488 -0.1259
   50POPI   PO4  690   3.092  15.304  10.748  0.1014 -0.0387  0.0976
   50POPI   GL1  691   2.876  15.109  10.516 -0.5110  0.0311 -0.2470
   50POPI   GL2  692   2.485  15.170  10.694 -0.1774  0.1208 -0.1244
   50POPI   C1A  693   2.726  15.082  10.147  0.1345 -0.1175 -0.4384
   50POPI   D2A  694   2.633  15.318   9.840  0.1808 -0.0543 -0.1098
   50POPI   C3A  695   2.867  15.317   9.427 -0.2372 -0.1462 -0.1006
   50POPI   C4A  696   2.860  15.467   9.019 -0.3189 -0.0969  0.2201
   50POPI   C1B  697   2.255  15.078  10.347 -0.1540  0.1447 -0.0601
   50POPI   C2B  698   2.220  14.949  10.004  0.4366 -0.1034 -0.0844
   50POPI   C3B  699   2.474  14.864   9.594 -0.0825 -0.1103  0.2255
   50POPI   C4B  700   2.474  15.079   9.173  0.4247 -0.2041  0.0569
   51POPI    C1  701   0.339  13.421  10.468  0.0455 -0.0087  0.1039
   51POPI    C2  702   0.281  13.545  10.844 -0.1850  0.1844  0.0069
   51POPI    C3  703   0.628  13.621  10.659 -0.0522  0.0456  0.1958
   51POPI   PO4  704   0.198  13.219  10.452  0.1330 -0.1000 -0.1455
   51POPI   GL1  705   0.072  12.843  10.174  0.4005 -0.1400 -0.3527
   51POPI   GL2  706   0.263  13.009  10.004 -0.0948  0.2553  0.0425
   51POPI   C1A  707  -0.346  12.883   9.996  0.1471  0.5817 -0.0571
   51POPI   D2A  708  -0.451  12.600   9.676  0.1961  0.3165 -0.1005
   51POPI   C3A  709  -0.749  12.579   9.327  0.1516 -0.3124  0.0520
   51POPI   C4A  710  -0.814  12.818   8.918 -0.3470 -0.1624 -0.3308
   51POPI   C1B  711   0.010  12.949   9.671  0.0975 -0.0278 -0.1286
   51POPI   C2B  712   0.041  13.030   9.289 -0.0444  0.1048  0.0134
   51POPI   C3B  713  -0.179  13.292   8.997  0.1815  0.0180 -0.1187
   51POPI   C4B  714  -0.524  13.209   8.745  0.2443 -0.1507 -0.0339
   52POPI    C1  715  10.734  16.673  11.073 -0.2027 -0.0843 -0.1141
   52POPI    C2  716  10.482  16.966  10.968  0.0228  0.2918  0.3519
   52POPI    C3  717  10.623  16.948  11.342  0.4137 -0.1202  0.1945
   52POPI   PO4  718  10.965  16.708  10.842 -0.0447  0.1163  0.0735
   52POPI   GL1  719  11.139  16.713  10.391 -0.0686 -0.0884 -0.2842
   52POPI   GL2  720  11.022  16.562  10.144 -0.2734  0.1530 -0.0252
   52POPI   C1A  721  11.115  17.107  10.195  0.0231  0.0980 -0.0044
   52POPI   D2A  722  11.105  17.458  10.069 -0.0257  0.2392 -0.0675
   52POPI   C3A  723  10.837  17.724   9.838 -0.2878  0.0589  0.0309
   52POPI   C4A  724  10.549  18.075   9.599 -0.1209  0.0217 -0.1645
   52POPI   C1B  725  11.287  16.772   9.850 -0.0654  0.0990  0.0149
   52POPI   C2B  726  11.227  16.952   9.511 -0.3830 -0.0440 -0.2219
   52POPI   C3B  727  10.999  16.916   9.138  0.4333 -0.3386  0.0833
   52POPI   C4B  728  10.645  16.691   8.972  0.0157  0.3471  0.4808
   53POPI    C1  729   9.836  14.543  10.750  0.1428 -0.0737  0.1361
   53POPI    C2  730   9.517  14.462  10.523  0.0453  0.0434  0.2292
   53POPI    C3  731   9.601  14.840  10.622  0.1291 -0.0004  0.3278
   53POPI   PO4  732  10.005  14.406  10.658 -0.4985  0.1398 -0.0498
   53POPI   GL1  733  10.223  14.305  10.266  0.4250  0.0513  0.1332
   53POPI   GL2  734  10.120  13.923  10.278 -0.0643  0.2864 -0.3434
   53POPI   C1A  735  10.039  14.050   9.842  0.0732  0.3376  0.1184
   53POPI   D2A  736   9.872  14.028   9.463 -0.1366  0.1056 -0.1868
   53POPI   C3A  737  10.099  13.960   9.074 -0.3518  0.2047 -0.1998
   53POPI   C4A  738  10.340  13.939   8.744  0.2313 -0.3189 -0.0210
   53POPI   C1B  739   9.749  14.020  10.210  0.0316  0.0144  0.1545
   53POPI   C2B  740   9.531  14.130   9.837  0.2599 -0.1024  0.1086
   53POPI   C3B  741   9.382  14.190   9.445 -0.1946 -0.0652  0.0494
   53POPI   C4B  742   9.115  14.238   9.068 -0.0629  0.1445 -0.1000
   54POPI    C1  743   7.096  17.543  10.424 -0.1943 -0.0390  0.1590
   54POPI    C2  744   7.108  17.899  10.607 -0.1071 -0.0960  0.2650
   54POPI    C3  745   7.236  17.571  10.797  0.1260 -0.1338  0.0493
   54POPI   PO4  746   6.832  17.436  10.462  0.4413  0.0352 -0.0437
   54POPI   GL1  747   6.564  17.421  10.111 -0.0669  0.1966  0.0826
   54POPI   GL2  748   6.269  17.344  10.037  0.2241  0.2031 -0.3171
   54POPI   C1A  749   6.655  17.343   9.756  0.0580  0.4702  0.1669
   54POPI   D2A  750   6.706  17.226   9.323  0.1708 -0.0787  0.0604
   54POPI   C3A  751   6.774  17.481   9.043  0.1142  0.1174 -0.0790
   54POPI   C4A  752   6.791  17.757   8.806  0.1509 -0.0885  0.1034
   54POPI   C1B  753   6.198  17.138   9.608  0.2757  0.2104 -0.1746
   54POPI   C2B  754   6.231  17.172   9.256  0.0100  0.3111  0.0101
   54POPI   C3B  755   6.357  17.314   8.876  0.1574 -0.1305 -0.1732
   54POPI   C4B  756   6.420  17.511   8.512  0.2095  0.0728  0.3304
   55POPI    C1  757  15.134  13.815  10.739 -0.0586 -0.1886 -0.3755
   55POPI    C2  758  15.175  13.515  11.001 -0.2087  0.0697 -0.0489
   55POPI    C3  759  15.445  13.810  10.990 -0.2019  0.0590 -0.1874
   55POPI   PO4  760  15.110  13.725  10.560 -0.1837  0.0325  0.2409
   55POPI   GL1  761  15.155  13.626  10.206 -0.0544  0.0507  0.3075
   55POPI   GL2  762  15.160  13.374   9.952 -0.1324 -0.0378 -0.1580
   55POPI   C1A  763  15.537  13.693  10.000 -0.2455  0.3059  0.2511
   55POPI   D2A  764  15.718  13.686   9.494 -0.2579 -0.0693  0.0380
   55POPI   C3A  765  15.539  13.844   9.194  0.1524  0.0226 -0.1747
   55POPI   C4A  766  15.425  14.015   8.794 -0.1057 -0.3173 -0.0909
   55POPI   C1B  767  15.229  13.517   9.534 -0.0952 -0.4847  0.0481
   55POPI   C2B  768  15.419  13.211   9.372  0.1282 -0.2595  0.2293
   55POPI   C3B  769  15.748  13.378   9.115  0.1063 -0.1048 -0.1999
   55POPI   C4B  770  15.835  13.574   8.724 -0.1325  0.0582 -0.1841
   56POPI    C1  771   5.804  15.092  10.817 -0.2587 -0.1563  0.0178
   56POPI    C2  772   6.064  14.921  10.565  0.0825  0.0958  0.1906
   56POPI    C3  773   5.950  14.728  10.896 -0.0002 -0.0405  0.0837
   56POPI   PO4  774   5.823  15.330  10.637 -0.4957 -0.1250 -0.0721
   56POPI   GL1  775   5.760  15.465  10.245 -0.0525  0.0392 -0.1584
   56POPI   GL2  776   5.822  15.794  10.042  0.1197  0.1349 -0.0611
   56POPI   C1A  777   5.462  15.268   9.837 -0.1647 -0.1737  0.0360
   56POPI   D2A  778   5.762  14.984   9.546  0.0174 -0.0749  0.3186
   56POPI   C3A  779   5.921  15.058   9.323 -0.1757 -0.0690  0.1246
   56POPI   C4A  780   6.129  15.232   9.072 -0.0863  0.1432 -0.1756
   56POPI   C1B  781   5.739  16.063   9.692 -0.1035 -0.0534  0.1917
   56POPI   C2B  782   5.787  16.038   9.254 -0.1569 -0.0243  0.2718
   56POPI   C3B  783   5.830  16.083   8.856  0.2670 -0.1610 -0.2159
   56POPI   C4B  784   6.125  16.256   8.618  0.0160  0.0843  0.0060
   57POPI    C1  785   8.020  15.271  10.222 -0.0802  0.0570  0.0218
   57POPI    C2  786   7.878  14.976  10.453  0.1106  0.0192  0.0923
   57POPI    C3  787   7.865  15.355  10.581  0.0949  0.0133  0.1087
   57POPI   PO4  788   8.078  15.113  10.007 -0.3270 -0.1299  0.0067
   57POPI   GL1  789   8.031  14.910   9.634  0.2213 -0.0182 -0.0369
   57POPI   GL2  790   8.235  15.141   9.495 -0.0688 -0.2887  0.1417
   57POPI   C1A  791   7.973  14.828   9.215  0.2510  0.0966  0.3083
   57POPI   D2A  792   8.155  14.933   8.777  0.2513 -0.0660 -0.0289
   57POPI   C3A  793   8.052  14.676   8.313  0.1687 -0.0405 -0.0291
   57POPI   C4A  794   7.655  14.428   8.421  0.2217 -0.3407  0.0067
   57POPI   C1B  795   8.467  15.059   9.154  0.1828 -0.1469 -0.0568
   57POPI   C2B  796   8.644  15.155   8.746 -0.0658  0.1139 -0.0650
   57POPI   C3B  797   8.950  15.301   8.490 -0.1714 -0.0169 -0.0233
   57POPI   C4B  798   9.299  15.590   8.404 -0.0349 -0.1168 -0.1860
   58POPI    C1  799   3.666   7.397  10.042 -0.0157 -0.0840 -0.0733
   58POPI    C2  800   3.854   7.376  10.394 -0.0427 -0.0828 -0.0588
   58POPI    C3  801   3.477   7.509  10.376 -0.0342 -0.0629 -0.0907
   58POPI   PO4  802   3.739   7.603   9.838 -0.1711  0.0415 -0.0566
   58POPI   GL1  803   3.918   7.670   9.577 -0.0723  0.1957  0.3376
   58POPI   GL2  804   3.583   7.840   9.471  0.1964 -0.0381 -0.2639
   58POPI   C1A  805   4.228   7.493   9.228  0.0250  0.0235 -0.3211
   58POPI   D2A  806   4.375   7.220   8.851  0.1910 -0.0777  0.0301
   58POPI   C3A  807   4.531   7.287   8.502  0.1096  0.2065 -0.1083
   58POPI   C4A  808   4.403   7.271   8.012 -0.0746  0.1893  0.2446
   58POPI   C1B  809   3.938   7.971   9.168 -0.2894  0.4119 -0.1508
   58POPI   C2B  810   3.833   8.167   8.786 -0.1710 -0.2578 -0.2549
   58POPI   C3B  811   3.747   8.548   8.614 -0.1244 -0.1051  0.0980
   58POPI   C4B  812   3.500   8.855   8.607  0.3345 -0.4120  0.0131
   59POPI    C1  813   3.342   1.752  10.780 -0.1788  0.1209  0.2270
   59POPI    C2  814   3.738   1.740  10.836 -0.1138  0.1586 -0.1922
   59POPI    C3  815   3.494   1.554  11.092  0.1700  0.1776  0.0978
   59POPI   PO4  816   3.356   1.767  10.512 -0.0426 -0.1643  0.0417
   59POPI   GL1  817   3.360   1.884  10.124  0.0009  0.0302  0.1706
   59POPI   GL2  818   3.484   2.231  10.249  0.0538 -0.1118  0.0440
   59POPI   C1A  819   3.358   1.902   9.679  0.1203 -0.0638 -0.0393
   59POPI   D2A  820   3.389   1.938   9.206  0.2167 -0.1507 -0.0205
   59POPI   C3A  821   3.487   1.864   8.688  0.0353  0.1572 -0.1164
   59POPI   C4A  822   3.805   1.671   8.474  0.0917  0.2189  0.0861
   59POPI   C1B  823   3.058   2.334  10.119 -0.0382  0.1852 -0.3097
   59POPI   C2B  824   2.698   2.413   9.906  0.3454  0.0567  0.2395
   59POPI   C3B  825   2.516   2.391   9.537  0.1171 -0.4124 -0.3023
   59POPI   C4B  826   2.583   2.366   9.144 -0.2648  0.1622  0.1524
   60POPI    C1  827   4.562   8.512  10.199  0.0044 -0.0806  0.1205
   60POPI    C2  828   4.846   8.304  10.008  0.0031 -0.1068  0.1469
   60POPI    C3  829   4.838   8.311  10.408  0.2022  0.2140  0.1490
   60POPI   PO4  830   4.357   8.450   9.958  0.4706 -0.0969  0.1433
   60POPI   GL1  831   4.585   8.596   9.620 -0.1748 -0.1189  0.2935
   60POPI   GL2  832   4.640   8.875   9.547 -0.0009  0.2612 -0.0877
   60POPI   C1A  833   4.722   8.379   9.295 -0.0980  0.0806 -0.3749
   60POPI   D2A  834   4.704   8.280   8.809 -0.1222 -0.0989  0.2407
   60POPI   C3A  835   4.261   8.232   8.477  0.3087 -0.0710  0.0797
   60POPI   C4A  836   3.910   8.211   8.191  0.2675  0.3333 -0.4108
   60POPI   C1B  837   4.734   8.833   9.149 -0.0482 -0.0077  0.2347
   60POPI   C2B  838   4.774   8.764   8.714  0.0114  0.2477  0.1058
   60POPI   C3B  839   4.636   8.979   8.412  0.0335  0.2600 -0.1233
   60POPI   C4B  840   4.392   9.120   8.070  0.1316 -0.0352  0.1403
   61POPI    C1  841  12.819  15.018  10.937  0.0181 -0.0419 -0.1500
   61POPI    C2  842  12.761  14.800  11.268 -0.1803 -0.3060 -0.3527
   61POPI    C3  843  12.847  15.190  11.297 -0.2733 -0.3085  0.0056
   61POPI   PO4  844  12.983  14.784  10.777 -0.1211  0.0679  0.1242
   61POPI   GL1  845  12.936  14.786  10.320 -0.2227 -0.0998 -0.1171
   61POPI   GL2  846  12.642  14.895  10.267 -0.1509  0.3655 -0.1969
   61POPI   C1A  847  13.312  14.535  10.158  0.0037  0.0878 -0.0866
   61POPI   D2A  848  13.733  14.504  10.217  0.0503 -0.0283 -0.1665
   61POPI   C3A  849  13.973  14.903   9.914 -0.2539 -0.3203 -0.1780
   61POPI   C4A  850  14.190  15.104   9.588 -0.1070  0.0969 -0.0789
   61POPI   C1B  851  12.903  14.872   9.868  0.0771  0.0404  0.2045
   61POPI   C2B  852  13.066  14.886   9.478 -0.0530 -0.2801 -0.0909
   61POPI   C3B  853  13.075  15.127   9.065 -0.4091 -0.0756  0.1323
   61POPI   C4B  854  13.150  15.088   8.728 -0.0260  0.0308 -0.2087
   62POPI    C1  855   3.821   5.140  10.077  0.0587  0.1040 -0.2270
   62POPI    C2  856   3.465   5.309  10.144 -0.0550 -0.1665 -0.1336
   62POPI    C3  857   3.798   5.485  10.278 -0.1686 -0.0089 -0.0538
   62POPI   PO4  858   3.853   5.167   9.819  0.2145  0.0683 -0.0493
   62POPI   GL1  859   4.173   5.220   9.474 -0.0081  0.3203  0.0786
   62POPI   GL2  860   4.315   5.390   9.581 -0.0394  0.1925 -0.0986
   62POPI   C1A  861   4.035   5.149   8.994 -0.1211 -0.0413 -0.3307
   62POPI   D2A  862   4.048   5.026   8.654  0.2434  0.2130  0.3603
   62POPI   C3A  863   3.788   5.014   8.328 -0.2623 -0.0226  0.2054
   62POPI   C4A  864   3.313   4.993   8.186 -0.0116 -0.1060 -0.2044
   62POPI   C1B  865   4.555   5.683   9.364  0.2278 -0.0609  0.2998
   62POPI   C2B  866   4.890   5.642   9.208  0.0441 -0.1517 -0.2168
   62POPI   C3B  867   5.105   5.544   8.816 -0.2338 -0.0525 -0.0522
   62POPI   C4B  868   5.039   5.158   8.548 -0.1222 -0.0039 -0.1633
   63POPI    C1  869  11.027   1.200  11.003 -0.0060 -0.1454 -0.0203
   63POPI    C2  870  11.112   1.379  11.351 -0.0630  0.1120 -0.1367
   63POPI    C3  871  10.732   1.349  11.228 -0.0665 -0.2077 -0.0579
   63POPI   PO4  872  11.014   0.998  10.832 -0.1680  0.7316  0.2363
   63POPI   GL1  873  10.913   0.757  10.633  0.0768  0.2813  0.3091
   63POPI   GL2  874  10.827   1.054  10.317  0.2051  0.2908 -0.1196
   63POPI   C1A  875  10.958   0.658  10.080 -0.2427 -0.1307 -0.2288
   63POPI   D2A  876  10.789   0.531   9.703  0.1190 -0.1273  0.1585
   63POPI   C3A  877  10.825   0.701   9.378 -0.1970 -0.1718  0.3748
   63POPI   C4A  878  10.864   0.533   8.992 -0.1883  0.0250 -0.0827
   63POPI   C1B  879  10.363   1.185  10.289 -0.0216  0.0371 -0.1643
   63POPI   C2B  880  10.237   1.461  10.000  0.0372  0.1327 -0.1034
   63POPI   C3B  881  10.353   1.518   9.552  0.3098  0.0673 -0.0127
   63POPI   C4B  882  10.304   1.558   9.155  0.1001 -0.0592  0.1523
   64POPI    C1  883  16.164   5.921   9.722 -0.0338 -0.0932 -0.0966
   64POPI    C2  884  16.151   5.683  10.043 -0.1516  0.2280  0.1417
   64POPI    C3  885  16.500   5.755   9.862 -0.1398 -0.2724 -0.0511
   64POPI   PO4  886  16.005   5.755   9.579  0.1929 -0.1203  0.1497
   64POPI   GL1  887  16.070   5.701   9.140 -0.0469  0.2769  0.0984
   64POPI   GL2  888  16.379   5.935   9.211  0.0818 -0.0822 -0.1534
   64POPI   C1A  889  16.192   5.768   8.705 -0.4333 -0.1102  0.2226
   64POPI   D2A  890  16.234   5.670   8.443 -0.0460 -0.0092  0.0158
   64POPI   C3A  891  16.151   5.945   8.153  0.1997 -0.1255 -0.4443
   64POPI   C4A  892  16.293   6.228   7.842 -0.1130  0.1241 -0.0897
   64POPI   C1B  893  16.292   6.267   8.979 -0.3079 -0.1930  0.0853
   64POPI   C2B  894  16.260   6.289   8.609 -0.2808  0.1182 -0.1198
   64POPI   C3B  895  16.506   6.434   8.270 -0.3665 -0.2552 -0.0611
   64POPI   C4B  896  16.780   6.367   7.898 -0.1113  0.1729 -0.0741
   65POPI    C1  897   3.416   1.198  10.715  0.2551 -0.0469 -0.0392
   65POPI    C2  898   3.450   1.042  11.082  0.1272 -0.0808 -0.0413
   65POPI    C3  899   3.569   0.832  10.764  0.3343 -0.0105 -0.0118
   65POPI   PO4  900   3.066   1.249  10.628 -0.2979 -0.2036 -0.0486
   65POPI   GL1  901   3.120   1.378  10.238 -0.1652 -0.0412  0.1101
   65POPI   GL2  902   2.746   1.376  10.211 -0.0558  0.0114  0.2774
   65POPI   C1A  903   3.077   1.481   9.778  0.0582 -0.1925  0.3892
   65POPI   D2A  904   3.271   1.512   9.374 -0.1106  0.2284 -0.1156
   65POPI   C3A  905   3.381   1.404   8.958 -0.1714 -0.0145 -0.2422
   65POPI   C4A  906   3.494   1.304   8.526  0.1483  0.1323 -0.3618
   65POPI   C1B  907   2.641   0.988   9.919 -0.3407 -0.1035 -0.0001
   65POPI   C2B  908   2.492   0.908   9.488  0.0388  0.1498 -0.1583
   65POPI   C3B  909   2.557   0.732   9.054  0.3602  0.3547  0.3165
   65POPI   C4B  910   2.705   0.682   8.569 -0.0080  0.4043 -0.2849
   66POPI    C1  911   1.610  11.671  10.325 -0.1670 -0.1900 -0.1498
   66POPI    C2  912   1.988  11.621  10.205 -0.1090 -0.0160 -0.0422
   66POPI    C3  913   1.892  11.573  10.590 -0.1251  0.2985 -0.0040
   66POPI   PO4  914   1.552  11.875  10.209  0.1678 -0.2365  0.0861
   66POPI   GL1  915   1.545  11.890   9.798 -0.1040 -0.0957 -0.0341
   66POPI   GL2  916   1.694  11.777   9.736  0.0263 -0.0847 -0.1698
   66POPI   C1A  917   1.474  12.249   9.480 -0.1661 -0.2071  0.0792
   66POPI   D2A  918   1.408  12.294   9.104  0.1099 -0.1251 -0.0220
   66POPI   C3A  919   1.042  12.325   8.913 -0.0341 -0.1458 -0.1389
   66POPI   C4A  920   0.711  12.561   8.588  0.1139 -0.0064  0.1659
   66POPI   C1B  921   1.615  11.812   9.232  0.1724 -0.2000  0.0535
   66POPI   C2B  922   1.709  11.879   8.777 -0.2183 -0.1280  0.0283
   66POPI   C3B  923   2.049  11.815   8.464 -0.1444  0.0145  0.1582
   66POPI   C4B  924   2.421  11.811   8.283  0.0617 -0.0391  0.0908
   67POPI    C1  925   7.089  11.583  10.509 -0.0441 -0.1914 -0.0723
   67POPI    C2  926   7.456  11.445  10.431  0.0281 -0.0517  0.0165
   67POPI    C3  927   7.407  11.753  10.682 -0.1298  0.0906 -0.1857
   67POPI   PO4  928   6.939  11.511  10.263 -0.0496  0.1475 -0.0300
   67POPI   GL1  929   6.542  11.506   9.922 -0.1599  0.4062  0.0368
   67POPI   GL2  930   6.483  11.791   9.989  0.0244 -0.0080 -0.2323
   67POPI   C1A  931   6.399  11.357   9.486 -0.0175 -0.1189  0.1621
   67POPI   D2A  932   6.352  11.243   9.086  0.0718 -0.2159  0.2936
   67POPI   C3A  933   6.494  11.508   8.779  0.1912 -0.1068  0.2613
   67POPI   C4A  934   6.612  11.534   8.380  0.0452  0.0470  0.1571
   67POPI   C1B  935   6.464  11.878   9.518  0.0573  0.0166 -0.4334
   67POPI   C2B  936   6.242  11.777   9.090  0.0671 -0.0421 -0.4093
   67POPI   C3B  937   6.092  11.916   8.700 -0.4423 -0.0889  0.1877
   67POPI   C4B  938   5.959  11.727   8.359 -0.0568  0.0136  0.1120
   68POPS   CNO  939  13.278   3.902  10.203 -0.0625 -0.0898 -0.2619
   68POPS   PO4  940  13.521   3.914   9.999 -0.1578  0.0965 -0.0705
   68POPS   GL1  941  13.276   4.177   9.803  0.1000 -0.2268 -0.2008
   68POPS   GL2  942  13.187   4.088   9.582 -0.0569  0.1129  0.1840
   68POPS   C1A  943  13.066   4.614   9.726  0.0518  0.0348 -0.2917
   68POPS   D2A  944  13.032   4.973   9.881  0.2232 -0.1544  0.1351
   68POPS   C3A  945  13.058   5.334   9.658 -0.1393 -0.1598 -0.1141
   68POPS   C4A  946  13.348   5.500   9.440  0.0528  0.0242  0.2573
   68POPS   C1B  947  13.332   3.978   9.166 -0.0345 -0.3169 -0.1167
   68POPS   C2B  948  13.440   3.771   8.737  0.1408  0.2018 -0.1893
   68POPS   C3B  949  13.406   3.622   8.313 -0.4201  0.1382  0.0155
   68POPS   C4B  950  13.444   3.332   7.962  0.2147 -0.1606  0.1616
   69POPS   CNO  951  15.053   2.759  10.093  0.3469  0.1115 -0.0735
   69POPS   PO4  952  15.487   2.820   9.902  0.1486  0.2946  0.1903
   69POPS   GL1  953  15.331   2.866   9.580  0.1289  0.0710 -0.0880
   69POPS   GL2  954  15.278   2.713   9.355 -0.1529  0.1090  0.0386
   69POPS   C1A  955  15.210   3.135   9.135 -0.1472 -0.3616  0.1659
   69POPS   D2A  956  15.084   3.341   8.876  0.2325  0.2306 -0.2481
   69POPS   C3A  957  14.764   3.322   8.535 -0.0232 -0.3212  0.0091
   69POPS   C4A  958  14.430   3.358   8.313  0.0981  0.1877 -0.3499
   69POPS   C1B  959  15.303   2.452   8.973 -0.2765  0.0325 -0.2903
   69POPS   C2B  960  15.243   2.475   8.564  0.3370 -0.1614 -0.0608
   69POPS   C3B  961  15.050   2.630   8.255  0.1006 -0.1860 -0.1871
   69POPS   C4B  962  14.795   3.087   8.088 -0.2302  0.3200 -0.0247
   70POPS   CNO  963  16.041  17.444  10.719  0.0917 -0.2047 -0.1078
   70POPS   PO4  964  15.763  17.212  10.473 -0.3821 -0.0965 -0.3155
   70POPS   GL1  965  15.747  17.026  10.094  0.0000 -0.2043 -0.0965
   70POPS   GL2  966  15.687  17.227   9.880 -0.0841  0.1038 -0.0532
   70POPS   C1A  967  15.943  16.814   9.691 -0.0999  0.1556 -0.0942
   70POPS   D2A  968  16.124  17.111   9.447 -0.1601 -0.0803  0.1499
   70POPS   C3A  969  16.473  16.971   9.068  0.2197 -0.1099 -0.0887
   70POPS   C4A  970  16.887  17.000   8.734 -0.2529 -0.3237 -0.2766
   70POPS   C1B  971  15.716  17.457   9.621  0.4589  0.4234 -0.2163
   70POPS   C2B  972  15.645  17.406   9.209  0.0910 -0.0911  0.1259
   70POPS   C3B  973  15.506  17.395   8.744 -0.0123  0.0012 -0.2314
   70POPS   C4B  974  15.233  17.183   8.453 -0.0698 -0.2302  0.2006
   71POPS   CNO  975   0.178  17.985  11.108 -0.0327  0.2740  0.1045
   71POPS   PO4  976   0.497  17.930  10.802 -0.0792  0.0910 -0.0650
   71POPS   GL1  977   0.618  17.981  10.442 -0.0760 -0.0849 -0.0048
   71POPS   GL2  978   0.800  18.201  10.386  0.1249 -0.1909  0.0113
   71POPS   C1A  979   0.607  17.688  10.010 -0.0951 -0.0126 -0.3414
   71POPS   D2A  980   0.401  17.488   9.759  0.0731  0.0038 -0.0750
   71POPS   C3A  981   0.432  17.668   9.466  0.1663  0.1233 -0.1155
   71POPS   C4A  982   0.607  17.913   9.128 -0.1128 -0.2734 -0.1135
   71POPS   C1B  983   1.056  17.970  10.025 -0.0086 -0.1478 -0.0235
   71POPS   C2B  984   1.201  17.481  10.054  0.0691  0.0888  0.2154
   71POPS   C3B  985   1.236  17.229   9.715 -0.3927  0.4047  0.1224
   71POPS   C4B  986   1.320  17.380   9.303  0.3100 -0.1787 -0.1050
   72POPS   CNO  987   9.895  14.920  11.078  0.0361  0.1924 -0.0120
   72POPS   PO4  988  10.073  14.995  10.642 -0.1014  0.1040  0.0050
   72POPS   GL1  989   9.951  14.810  10.214 -0.0917 -0.0504  0.0087
   72POPS   GL2  990   9.836  14.534  10.119  0.2730  0.0552 -0.2240
   72POPS   C1A  991   9.881  15.064   9.814 -0.2405  0.3393 -0.4019
   72POPS   D2A  992   9.764  15.063   9.429  0.1293  0.0659  0.3821
   72POPS   C3A  993   9.625  15.278   9.179  0.0643  0.0701 -0.1495
   72POPS   C4A  994   9.647  15.602   8.845 -0.1446 -0.1489 -0.2927
   72POPS   C1B  995   9.796  14.499   9.659 -0.0991  0.0662  0.0898
   72POPS   C2B  996   9.974  14.630   9.287 -0.2237 -0.2398  0.0900
   72POPS   C3B  997  10.068  14.434   8.945 -0.1451  0.4492 -0.1353
   72POPS   C4B  998  10.319  14.442   8.702 -0.1310  0.0796  0.0618
   73POPS   CNO  999   0.196  14.732  11.142  0.3076  0.2525  0.0380
   73POPS   PO4 1000   0.279  14.349  10.972  0.2870  0.4592  0.0350
   73POPS   GL1 1001   0.398  14.066  10.710  0.0467  0.0306  0.1658
   73POPS   GL2 1002   0.158  13.949  10.619 -0.1228 -0.1235 -0.3024
   73POPS   C1A 1003   0.652  13.885  10.301 -0.2029 -0.3322  0.1287
   73POPS   D2A 1004   0.710  13.995   9.915  0.3302  0.3395 -0.2803
   73POPS   C3A 1005   0.476  13.769   9.572  0.0349 -0.2976 -0.0429
   73POPS   C4A 1006   0.353  13.361   9.521  0.1182  0.0203  0.0804
   73POPS   C1B 1007   0.218  13.845  10.171  0.0195 -0.0355  0.1112
   73POPS   C2B 1008   0.084  13.657   9.837 -0.3670 -0.5527 -0.1932
   73POPS   C3B 1009  -0.196  13.391   9.528  0.2332 -0.1664 -0.0633
   73POPS   C4B 1010  -0.677  13.390   9.556 -0.1494  0.1813 -0.2438
   74POPS   CNO 1011   3.860  16.523  10.263 -0.1826  0.0274  0.0494
   74POPS   PO4 1012   3.925  16.878  10.492  0.0539 -0.2385 -0.2323
   74POPS   GL1 1013   3.956  17.010  10.114  0.0033  0.0884 -0.1323
   74POPS   GL2 1014   4.157  17.234  10.017 -0.3476  0.3166  0.3105
   74POPS   C1A 1015   3.865  17.093   9.661 -0.1108 -0.1263 -0.2590
   74POPS   D2A 1016   3.875  17.155   9.250  0.0334  0.2055 -0.1905
   74POPS   C3A 1017   3.912  17.330   8.827  0.1243 -0.0395 -0.0393
   74POPS   C4A 1018   3.799  17.028   8.585  0.5038 -0.0437 -0.0812
   74POPS   C1B 1019   4.343  17.337   9.503  0.5196  0.0242  0.0703
   74POPS   C2B 1020   4.387  17.453   9.062  0.1667 -0.0002  0.1905
   74POPS   C3B 1021   4.494  17.232   8.870  0.4243  0.2608  0.0962
   74POPS   C4B 1022   4.410  16.992   8.517 -0.0543 -0.3632 -0.3879
   75POPS   CNO 1023   9.144   4.947  10.146  0.1678 -0.0622  0.0121
   75POPS   PO4 1024   9.464   4.988  10.400  0.0087  0.2070 -0.1585
   75POPS   GL1 1025   9.604   5.026   9.953  0.3026 -0.0321 -0.0312
   75POPS   GL2 1026   9.632   5.272   9.845 -0.2889 -0.1520 -0.0344
   75POPS   C1A 1027   9.519   4.863   9.534  0.1372  0.0185 -0.2033
   75POPS   D2A 1028   9.418   4.853   9.289 -0.1623  0.2567  0.1305
   75POPS   C3A 1029   9.640   4.764   8.930  0.1686 -0.3348  0.0645
   75POPS   C4A 1030   9.897   4.660   8.652 -0.3250 -0.1945 -0.1923
   75POPS   C1B 1031   9.806   5.311   9.504 -0.2136  0.1321  0.1384
   75POPS   C2B 1032   9.646   5.285   9.113  0.2703 -0.0808  0.0879
   75POPS   C3B 1033   9.913   5.176   8.704  0.0209  0.0595 -0.0258
   75POPS   C4B 1034   9.927   5.542   8.512 -0.0801 -0.1095  0.1480
   76POPS   CNO 1035  17.560   1.689  10.217 -0.0233  0.2172  0.2469
   76POPS   PO4 1036  17.158   1.757  10.091  0.3501  0.0259 -0.1379
   76POPS   GL1 1037  16.903   1.877   9.707 -0.0050  0.1558  0.0082
   76POPS   GL2 1038  16.703   1.648   9.509 -0.2684  0.4657 -0.2604
   76POPS   C1A 1039  16.662   2.154   9.319  0.5626  0.1869  0.2124
   76POPS   D2A 1040  16.241   2.160   9.215  0.0740  0.3114 -0.0744
   76POPS   C3A 1041  16.182   2.160   8.729  0.1931  0.0908  0.0142
   76POPS   C4A 1042  16.162   1.884   8.369 -0.1880 -0.0815 -0.1062
   76POPS   C1B 1043  16.311   1.605   9.230  0.0546 -0.1344 -0.2572
   76POPS   C2B 1044  16.045   1.571   8.882  0.0769 -0.2042 -0.0805
   76POPS   C3B 1045  16.139   1.399   8.585  0.0827  0.2577  0.1824
   76POPS   C4B 1046  16.126   1.381   8.185 -0.0163  0.2425  0.1038
   77POPS   CNO 1047  13.663   9.087   9.838 -0.1310  0.1507  0.0245
   77POPS   PO4 1048  13.552   8.689   9.754  0.0618 -0.0283  0.0365
   77POPS   GL1 1049  13.807   8.724   9.396  0.0592 -0.0464  0.0493
   77POPS   GL2 1050  13.409   8.731   9.261 -0.1382 -0.0416 -0.0323
   77POPS   C1A 1051  13.986   8.669   9.021 -0.0516  0.1011 -0.0504
   77POPS   D2A 1052  13.896   8.462   8.623 -0.2460 -0.0953 -0.3114
   77POPS   C3A 1053  14.097   8.685   8.306  0.2623 -0.4473 -0.0126
   77POPS   C4A 1054  14.253   8.892   7.850 -0.0179  0.0717  0.1412
   77POPS   C1B 1055  13.496   8.784   8.818  0.0079  0.1192 -0.2859
   77POPS   C2B 1056  13.527   8.794   8.346  0.0183  0.0938  0.2228
   77POPS   C3B 1057  13.330   8.551   8.112  0.1265  0.0219  0.1183
   77POPS   C4B 1058  12.920   8.476   8.112 -0.4153  0.3060 -0.0671
   78POPS   CNO 1059   4.565   8.989  10.051  0.4154 -0.0188  0.0823
   78POPS   PO4 1060   4.896   8.811   9.962  0.0587 -0.2280 -0.1365
   78POPS   GL1 1061   5.092   9.132   9.666 -0.1247  0.1743  0.2170
   78POPS   GL2 1062   5.112   9.001   9.442 -0.1516  0.2355  0.0344
   78POPS   C1A 1063   5.032   9.540   9.509 -0.2467  0.1914 -0.0615
   78POPS   D2A 1064   4.966   9.806   9.249  0.0906  0.3104  0.1210
   78POPS   C3A 1065   5.045   9.709   8.851  0.3274  0.1150  0.0703
   78POPS   C4A 1066   5.281   9.621   8.451  0.0622  0.3055 -0.3599
   78POPS   C1B 1067   4.821   9.295   9.146  0.0026  0.0371  0.0600
   78POPS   C2B 1068   4.595   9.256   8.859 -0.0924 -0.2066 -0.0810
   78POPS   C3B 1069   4.280   9.384   8.524 -0.2349 -0.1950  0.0880
   78POPS   C4B 1070   4.290   9.566   8.150 -0.1444 -0.0651 -0.3023
   79POPS   CNO 1071  12.360  16.680  10.805 -0.1532  0.0885  0.4478
   79POPS   PO4 1072  12.755  16.895  10.841  0.0244 -0.1574  0.2137
   79POPS   GL1 1073  12.808  16.846  10.439 -0.1017 -0.2590 -0.0118
   79POPS   GL2 1074  12.530  16.682  10.320 -0.0323 -0.2325 -0.1383
   79POPS   C1A 1075  12.943  16.918   9.998 -0.4112 -0.0415 -0.0144
   79POPS   D2A 1076  12.954  16.919   9.508 -0.1112 -0.0087  0.0569
   79POPS   C3A 1077  12.734  16.989   9.236  0.1217 -0.1177  0.0103
   79POPS   C4A 1078  12.540  17.135   8.983 -0.0476  0.0007  0.0508
   79POPS   C1B 1079  12.550  16.715   9.759 -0.0184 -0.0616  0.1682
   79POPS   C2B 1080  12.419  16.591   9.273  0.2718  0.0406 -0.1198
   79POPS   C3B 1081  12.137  16.746   8.925  0.2265 -0.2177  0.0863
   79POPS   C4B 1082  12.044  17.122   8.968  0.0848 -0.2964 -0.4085
   80POPS   CNO 1083   2.792  12.294  10.292  0.2679 -0.0288  0.2525
   80POPS   PO4 1084   2.783  12.503  10.738 -0.1002 -0.1875  0.1766
   80POPS   GL1 1085   2.581  12.778  10.369  0.1094 -0.2738  0.0065
   80POPS   GL2 1086   2.312  12.616  10.107 -0.3336  0.1349 -0.1184
   80POPS   C1A 1087   2.731  12.785   9.910 -0.3947  0.1223  0.0651
   80POPS   D2A 1088   2.583  12.713   9.518 -0.1821  0.3725  0.2071
   80POPS   C3A 1089   2.726  12.833   9.038 -0.3004 -0.1700  0.2219
   80POPS   C4A 1090   3.002  12.855   8.849  0.3185 -0.0843 -0.3407
   80POPS   C1B 1091   2.499  12.309   9.808 -0.0086  0.0258  0.3365
   80POPS   C2B 1092   2.425  12.084   9.375  0.1192 -0.1692  0.1732
   80POPS   C3B 1093   2.453  12.167   8.992  0.3707  0.0088  0.0551
   80POPS   C4B 1094   2.507  12.532   8.743 -0.0084  0.0581 -0.1505
   81POPS   CNO 1095  17.525  12.324  10.531  0.1022 -0.0218 -0.1771
   81POPS   PO4 1096  17.595  11.828  10.641  0.1534 -0.0661  0.2498
   81POPS   GL1 1097  17.707  11.982  10.231  0.0700  0.1736  0.2289
   81POPS   GL2 1098  17.763  11.732  10.059 -0.1637  0.2042  0.0197
   81POPS   C1A 1099  17.630  12.416  10.103 -0.0649  0.2236  0.0729
   81POPS   D2A 1100  17.450  12.738  10.261 -0.1450  0.2676 -0.1100
   81POPS   C3A 1101  17.230  13.088  10.223  0.1303  0.3033  0.0574
   81POPS   C4A 1102  16.814  13.277  10.463 -0.0956 -0.0953  0.3209
   81POPS   C1B 1103  17.856  11.985   9.762  0.0258  0.2160  0.0765
   81POPS   C2B 1104  17.870  12.159   9.340  0.0264 -0.0890  0.1948
   81POPS   C3B 1105  17.756  12.399   8.908  0.0335  0.3037  0.2916
   81POPS   C4B 1106  17.662  12.585   8.469  0.0261  0.1828  0.0542
   82POPS   CNO 1107  14.605  15.890  10.711  0.2194 -0.1649  0.1768
   82POPS   PO4 1108  14.966  15.954  10.456 -0.0062 -0.2179 -0.2993
   82POPS   GL1 1109  15.085  15.637  10.237  0.0550 -0.1720 -0.2023
   82POPS   GL2 1110  15.417  15.628  10.368 -0.2520 -0.0202 -0.0241
   82POPS   C1A 1111  15.025  15.557   9.828  0.0365 -0.0334  0.0585
   82POPS   D2A 1112  14.988  15.420   9.462  0.1352  0.1375 -0.1316
   82POPS   C3A 1113  15.017  15.576   9.119  0.1458 -0.2963 -0.1818
   82POPS   C4A 1114  15.129  15.759   8.660  0.1609 -0.0269  0.0125
   82POPS   C1B 1115  15.785  15.533  10.147  0.1079 -0.0653  0.2999
   82POPS   C2B 1116  15.817  15.402   9.691 -0.0869  0.1021  0.1590
   82POPS   C3B 1117  15.583  15.372   9.352  0.2106 -0.1320 -0.2962
   82POPS   C4B 1118  15.365  15.225   9.044  0.2947  0.2261  0.0165
   83POPS   CNO 1119   8.105  12.921  10.867 -0.1545  0.0204  0.0114
   83POPS   PO4 1120   8.318  12.799  10.482 -0.2239 -0.1142 -0.4471
   83POPS   GL1 1121   8.546  12.692   9.983 -0.0195  0.0928 -0.0289
   83POPS   GL2 1122   8.327  12.562   9.857  0.1558  0.1278  0.2370
   83POPS   C1A 1123   8.811  12.406   9.755 -0.1270 -0.0493 -0.1265
   83POPS   D2A 1124   8.891  12.414   9.326  0.0462  0.1428  0.0471
   83POPS   C3A 1125   9.306  12.620   9.114 -0.2130  0.0825  0.2481
   83POPS   C4A 1126   9.418  12.780   8.730  0.0172 -0.3455 -0.1315
   83POPS   C1B 1127   8.304  12.540   9.409  0.1939  0.1394 -0.0954
   83POPS   C2B 1128   8.429  12.583   8.883 -0.1622 -0.1504 -0.1708
   83POPS   C3B 1129   8.456  12.649   8.545  0.0222 -0.0600  0.1736
   83POPS   C4B 1130   8.247  12.494   8.339 -0.0032 -0.0060  0.3673
   84POPS   CNO 1131   1.220  16.025  10.987 -0.0324 -0.1189  0.1454
   84POPS   PO4 1132   1.158  15.652  10.764  0.4427  0.0653 -0.0392
   84POPS   GL1 1133   1.275  15.621  10.373 -0.3362  0.1790 -0.2102
   84POPS   GL2 1134   1.349  15.829  10.285 -0.1296  0.0615 -0.0025
   84POPS   C1A 1135   1.224  15.325  10.035  0.1781  0.0971 -0.2771
   84POPS   D2A 1136   1.452  15.018   9.840 -0.1169  0.1005 -0.0201
   84POPS   C3A 1137   1.655  15.124   9.431 -0.3977  0.0375  0.1311
   84POPS   C4A 1138   1.641  15.217   8.990  0.2758  0.0397  0.4135
   84POPS   C1B 1139   1.595  15.730   9.988 -0.2108 -0.2421 -0.0119
   84POPS   C2B 1140   1.735  15.707   9.557 -0.0693 -0.3201 -0.2933
   84POPS   C3B 1141   1.634  15.686   9.247  0.2733 -0.0884  0.0124
   84POPS   C4B 1142   1.564  15.691   8.771 -0.2794 -0.1167  0.2268
   85POPS   CNO 1143   8.520   3.075  10.552  0.0739  0.0517  0.0797
   85POPS   PO4 1144   8.851   2.785  10.671  0.1470  0.0996  0.0487
   85POPS   GL1 1145   8.648   2.604  10.294  0.4232 -0.0541 -0.0134
   85POPS   GL2 1146   8.328   2.684  10.280 -0.2360 -0.0407  0.0721
   85POPS   C1A 1147   8.824   2.461   9.850  0.1694 -0.3300  0.3205
   85POPS   D2A 1148   8.939   2.101   9.677 -0.3277 -0.1982 -0.0238
   85POPS   C3A 1149   8.774   1.971   9.218  0.0030  0.0646 -0.1564
   85POPS   C4A 1150   8.722   1.743   8.893 -0.1152  0.0543 -0.0296
   85POPS   C1B 1151   8.383   2.777   9.827 -0.0168 -0.1121 -0.3362
   85POPS   C2B 1152   8.413   2.838   9.415  0.3211  0.2794 -0.2554
   85POPS   C3B 1153   8.532   3.106   9.034 -0.2035  0.1576  0.3061
   85POPS   C4B 1154   8.508   3.151   8.637 -0.1917  0.0025  0.0234
   86POPS   CNO 1155  14.300   1.716  10.397 -0.1009  0.1540 -0.1562
   86POPS   PO4 1156  14.450   1.322  10.382 -0.0842  0.0777  0.1843
   86POPS   GL1 1157  14.257   1.284  10.024 -0.1406 -0.2943 -0.0342
   86POPS   GL2 1158  13.991   1.435   9.971 -0.1131 -0.0202 -0.1132
   86POPS   C1A 1159  14.411   1.078   9.571 -0.2379  0.0006  0.2487
   86POPS   D2A 1160  14.826   1.097   9.388  0.0805 -0.1080  0.2786
   86POPS   C3A 1161  14.839   1.294   9.002  0.0713 -0.0746 -0.4527
   86POPS   C4A 1162  14.669   1.613   8.705 -0.0832  0.0767  0.2455
   86POPS   C1B 1163  13.800   1.130   9.704  0.0524  0.1266 -0.2254
   86POPS   C2B 1164  13.697   1.240   9.272 -0.1656  0.2238  0.3721
   86POPS   C3B 1165  13.386   1.390   8.981 -0.0056  0.0093 -0.0345
   86POPS   C4B 1166  13.383   1.563   8.543 -0.0647  0.1671 -0.1577
   87POPS   CNO 1167   4.199  13.836  10.753  0.0693 -0.3082  0.3056
   87POPS   PO4 1168   3.849  13.905  10.365 -0.0062 -0.3105  0.0492
   87POPS   GL1 1169   3.807  13.936   9.906  0.1090 -0.2006  0.1010
   87POPS   GL2 1170   3.773  14.298   9.759 -0.1196  0.0554 -0.1568
   87POPS   C1A 1171   3.584  13.776   9.611 -0.2362  0.1767  0.4165
   87POPS   D2A 1172   3.556  13.447   9.251 -0.1215  0.1167 -0.2177
   87POPS   C3A 1173   3.287  13.145   9.187 -0.4052  0.1088  0.1499
   87POPS   C4A 1174   3.083  12.846   9.464  0.0243 -0.2196 -0.2058
   87POPS   C1B 1175   3.910  14.393   9.379  0.0492  0.0727  0.0389
   87POPS   C2B 1176   3.962  14.295   8.973 -0.2910 -0.3046 -0.1001
   87POPS   C3B 1177   3.852  14.377   8.606 -0.2733 -0.0031 -0.0624
   87POPS   C4B 1178   3.877  14.695   8.369  0.0844  0.2641  0.0372
   88POPS   CNO 1179  12.403  14.104  11.082  0.0607  0.3019  0.0838
   88POPS   PO4 1180  12.472  14.207  10.734  0.0070 -0.1425  0.0033
   88POPS   GL1 1181  12.289  14.043  10.396 -0.3582 -0.2441 -0.0574
   88POPS   GL2 1182  12.601  13.934  10.272 -0.0199  0.1299  0.1440
   88POPS   C1A 1183  12.339  13.970   9.890 -0.0430  0.1097 -0.1142
   88POPS   D2A 1184  12.239  13.951   9.487  0.2083 -0.1986 -0.1514
   88POPS   C3A 1185  12.235  14.368   9.243  0.0912  0.0425  0.1912
   88POPS   C4A 1186  12.384  14.539   8.928  0.0161  0.0765  0.0888
   88POPS   C1B 1187  12.693  13.669  10.005 -0.1975  0.0477 -0.0797
   88POPS   C2B 1188  12.712  13.781   9.623 -0.0463  0.0386  0.2540
   88POPS   C3B 1189  12.640  13.965   9.157 -0.2020 -0.1196 -0.1341
   88POPS   C4B 1190  12.698  14.182   8.896  0.0749 -0.0801 -0.0770
   89POPS   CNO 1191  11.548   8.382  10.294  0.3058 -0.1912  0.1097
   89POPS   PO4 1192  11.373   8.527   9.926 -0.0922 -0.3676 -0.0554
   89POPS   GL1 1193  11.272   8.436   9.491  0.0614  0.4236 -0.2861
   89POPS   GL2 1194  11.229   8.699   9.355  0.1887 -0.2267 -0.3577
   89POPS   C1A 1195  11.064   7.972   9.349  0.1794  0.1889 -0.0573
   89POPS   D2A 1196  11.147   7.613   9.236 -0.0962  0.1860 -0.0670
   89POPS   C3A 1197  11.279   7.644   8.793  0.3542 -0.0773  0.1331
   89POPS   C4A 1198  11.501   7.498   8.431  0.0207  0.3069  0.1806
   89POPS   C1B 1199  11.375   8.943   9.036 -0.1950 -0.1110  0.2254
   89POPS   C2B 1200  11.444   9.052   8.656 -0.0197 -0.0041  0.0268
   89POPS   C3B 1201  11.347   9.141   8.303  0.1940  0.0280  0.3032
   89POPS   C4B 1202  11.304   9.266   7.845  0.1846 -0.0497  0.0726
   90POPS   CNO 1203  13.184  15.955  10.450 -0.4452 -0.2272  0.0698
   90POPS   PO4 1204  13.306  16.275  10.685  0.2473 -0.0156  0.0145
   90POPS   GL1 1205  13.499  16.398  10.247 -0.0410 -0.0303 -0.1819
   90POPS   GL2 1206  13.547  16.183  10.056  0.2828  0.0573 -0.1355
   90POPS   C1A 1207  13.403  16.663   9.900 -0.2127 -0.2547 -0.0662
   90POPS   D2A 1208  13.420  16.713   9.415  0.1718  0.0517  0.1151
   90POPS   C3A 1209  13.222  16.982   9.077 -0.1350  0.1861  0.2283
   90POPS   C4A 1210  13.165  17.224   8.750 -0.3319 -0.0410  0.0404
   90POPS   C1B 1211  13.350  15.892   9.954 -0.0163 -0.3845 -0.0269
   90POPS   C2B 1212  13.210  15.853   9.480 -0.2640  0.0823  0.0692
   90POPS   C3B 1213  12.931  15.668   9.189 -0.2188 -0.0588 -0.2091
   90POPS   C4B 1214  12.640  15.433   8.996 -0.0817  0.1590 -0.0289
   91POPS   CNO 1215  11.274   7.543   9.801 -0.0443 -0.1213  0.1143
   91POPS   PO4 1216  11.033   7.286  10.058 -0.1775  0.0708 -0.1317
   91POPS   GL1 1217  10.895   7.044   9.715 -0.2458  0.0332 -0.2380
   91POPS   GL2 1218  11.119   7.130   9.396 -0.0492  0.2635 -0.0078
   91POPS   C1A 1219  10.753   6.816   9.440  0.0351  0.0291 -0.1592
   91POPS   D2A 1220  10.813   6.810   8.951  0.0765  0.0527  0.0561
   91POPS   C3A 1221  11.116   6.597   8.689  0.0388 -0.1805  0.3082
   91POPS   C4A 1222  11.408   6.545   8.388  0.0118 -0.1405  0.2527
   91POPS   C1B 1223  11.200   7.136   8.943 -0.1528  0.0425 -0.0853
   91POPS   C2B 1224  11.116   7.083   8.519  0.0051 -0.1359 -0.1126
   91POPS   C3B 1225  11.071   6.849   8.177 -0.2834  0.0926 -0.1526
   91POPS   C4B 1226  10.643   6.750   7.974  0.0747 -0.0717 -0.0164
   92POPS   CNO 1227   7.585  13.599  10.622  0.1165  0.0331 -0.0194
   92POPS   PO4 1228   7.346  13.600  10.288  0.0838 -0.1751  0.2817
   92POPS   GL1 1229   7.138  13.394   9.950 -0.0652  0.2856 -0.2025
   92POPS   GL2 1230   7.220  13.157   9.753 -0.2035 -0.0206  0.3329
   92POPS   C1A 1231   6.843  13.497   9.587 -0.2810  0.2870  0.1562
   92POPS   D2A 1232   6.712  13.345   9.225  0.2142 -0.1692  0.0757
   92POPS   C3A 1233   6.557  13.095   9.028  0.0521  0.2458  0.0284
   92POPS   C4A 1234   6.258  13.006   8.725  0.2119  0.0691  0.0999
   92POPS   C1B 1235   7.236  13.226   9.316  0.0753 -0.0100  0.1055
   92POPS   C2B 1236   7.349  13.387   8.967 -0.1493 -0.0568  0.0289
   92POPS   C3B 1237   7.353  13.486   8.600 -0.1633 -0.1160 -0.3794
   92POPS   C4B 1238   7.176  13.586   8.247 -0.5270  0.0999  0.1577
   93POPS   CNO 1239   2.091  13.350  10.906 -0.1211  0.0404 -0.1705
   93POPS   PO4 1240   2.400  13.195  10.539  0.1229  0.2025 -0.2877
   93POPS   GL1 1241   2.445  13.227  10.212  0.0729 -0.0266 -0.1639
   93POPS   GL2 1242   2.780  13.198  10.171 -0.0152 -0.0344  0.0862
   93POPS   C1A 1243   2.293  13.019   9.769 -0.0020  0.1596  0.4234
   93POPS   D2A 1244   2.250  13.084   9.360 -0.0736 -0.2268  0.0725
   93POPS   C3A 1245   2.337  13.413   9.181  0.0389 -0.1065 -0.2515
   93POPS   C4A 1246   2.535  13.662   8.962 -0.0189 -0.0024  0.0849
   93POPS   C1B 1247   2.718  13.303   9.810  0.0160  0.1018 -0.3031
   93POPS   C2B 1248   2.787  13.258   9.289 -0.1123 -0.0356 -0.0474
   93POPS   C3B 1249   2.962  13.415   8.906 -0.0069  0.2166  0.0510
   93POPS   C4B 1250   3.287  13.523   8.818  0.4406 -0.1494 -0.0393
   94POPS   CNO 1251   6.132  16.867  10.198 -0.0071 -0.2255  0.2328
   94POPS   PO4 1252   6.394  16.713  10.394 -0.2220 -0.3412 -0.0842
   94POPS   GL1 1253   6.755  16.892  10.143  0.2129  0.1555 -0.0113
   94POPS   GL2 1254   7.011  17.073  10.162  0.0406 -0.1293 -0.1927
   94POPS   C1A 1255   6.819  16.869   9.646  0.2509  0.0101 -0.3445
   94POPS   D2A 1256   7.175  16.804   9.422  0.0029  0.0769  0.3051
   94POPS   C3A 1257   7.187  16.732   9.029 -0.1352 -0.2028  0.1318
   94POPS   C4A 1258   7.259  16.546   8.645  0.1206 -0.0116  0.0548
   94POPS   C1B 1259   7.115  17.352   9.771  0.1945  0.1076  0.1238
   94POPS   C2B 1260   7.210  17.300   9.259 -0.0464  0.2200 -0.0976
   94POPS   C3B 1261   7.275  17.179   8.845 -0.1415 -0.0538  0.2386
   94POPS   C4B 1262   7.370  16.962   8.484 -0.0703 -0.0430 -0.0328
   95POPS   CNO 1263   1.683   2.251  10.405 -0.2288 -0.1386  0.0507
   95POPS   PO4 1264   1.828   2.087   9.958  0.2045  0.0422  0.0599
   95POPS   GL1 1265   1.733   2.067   9.555 -0.2120  0.0992  0.0272
   95POPS   GL2 1266   1.859   1.799   9.455 -0.0898  0.2304 -0.0346
   95POPS   C1A 1267   1.409   2.020   9.324 -0.2610  0.0323 -0.0965
   95POPS   D2A 1268   1.280   1.931   8.877 -0.2456 -0.1713 -0.0665
   95POPS   C3A 1269   1.542   1.894   8.464 -0.0124 -0.1445 -0.2992
   95POPS   C4A 1270   1.850   2.008   8.265  0.0617  0.2576 -0.4506
   95POPS   C1B 1271   1.816   1.820   9.015  0.0248 -0.4310  0.2375
   95POPS   C2B 1272   2.040   1.692   8.647  0.2589 -0.0037  0.1737
   95POPS   C3B 1273   2.099   1.536   8.231  0.3594  0.1355  0.2774
   95POPS   C4B 1274   2.054   1.444   7.784 -0.3678  0.2914  0.2065
   96POPS   CNO 1275   1.818   5.653   9.440  0.1987  0.0386 -0.0057
   96POPS   PO4 1276   2.059   5.612   9.912  0.0884 -0.0158 -0.0559
   96POPS   GL1 1277   2.301   5.768   9.525  0.0447  0.1888 -0.0519
   96POPS   GL2 1278   2.601   5.625   9.397 -0.1236  0.1598 -0.1209
   96POPS   C1A 1279   2.244   6.089   9.128  0.1439  0.1273 -0.0033
   96POPS   D2A 1280   2.246   6.149   8.728  0.0001 -0.1250 -0.3076
   96POPS   C3A 1281   2.199   5.813   8.501  0.1095 -0.1325 -0.0489
   96POPS   C4A 1282   2.336   5.519   8.202 -0.3932 -0.2277  0.0880
   96POPS   C1B 1283   2.690   5.489   8.927  0.0048  0.0775 -0.0969
   96POPS   C2B 1284   2.738   5.700   8.540  0.0627  0.1889  0.0270
   96POPS   C3B 1285   2.763   5.761   8.088  0.3582 -0.1383 -0.1758
   96POPS   C4B 1286   2.973   5.991   7.838 -0.2114 -0.2985  0.3748
   97POPS   CNO 1287  12.203   3.847  11.171  0.1845 -0.1571  0.1231
   97POPS   PO4 1288  12.069   3.790  10.756  0.3786  0.0549  0.4106
   97POPS   GL1 1289  12.059   3.705  10.269  0.0158  0.0396  0.5486
   97POPS   GL2 1290  12.278   3.698  10.111 -0.0640 -0.2508 -0.2111
   97POPS   C1A 1291  11.901   3.784   9.798  0.3676  0.4337  0.2480
   97POPS   D2A 1292  11.958   4.001   9.417 -0.1591 -0.0361  0.0096
   97POPS   C3A 1293  11.750   4.110   9.055  0.1191 -0.1326  0.1072
   97POPS   C4A 1294  11.410   4.311   8.907 -0.0714  0.1068 -0.0080
   97POPS   C1B 1295  12.423   3.784   9.774  0.0840  0.2636  0.1637
   97POPS   C2B 1296  12.433   3.762   9.401  0.0215 -0.2637  0.0614
   97POPS   C3B 1297  12.582   3.765   8.934  0.0178  0.1820 -0.0213
   97POPS   C4B 1298  12.790   3.845   8.535 -0.0764 -0.5094  0.0272
   98POPS   CNO 1299  16.319  11.394  10.692  0.0050 -0.0783 -0.0091
   98POPS   PO4 1300  16.384  10.929  10.510 -0.2002 -0.0284  0.0655
   98POPS   GL1 1301  16.659  11.145  10.131 -0.0647 -0.1434  0.1050
   98POPS   GL2 1302  16.987  10.939   9.977  0.0974 -0.1215  0.2892
   98POPS   C1A 1303  16.550  11.253   9.659  0.1599  0.1474 -0.1995
   98POPS   D2A 1304  16.352  11.630   9.282 -0.3864 -0.1584 -0.1955
   98POPS   C3A 1305  16.450  11.733   8.814  0.0756 -0.1326 -0.3447
   98POPS   C4A 1306  16.272  11.589   8.469 -0.0141  0.1586  0.5893
   98POPS   C1B 1307  17.040  11.222   9.685  0.1581 -0.0104 -0.1317
   98POPS   C2B 1308  17.041  11.482   9.443 -0.2225 -0.0015  0.2047
   98POPS   C3B 1309  16.888  11.501   9.120  0.4398  0.0211  0.0588
   98POPS   C4B 1310  16.635  11.272   8.850 -0.0690  0.0460 -0.3188
   99POPS   CNO 1311  18.142   8.733   9.595 -0.0499 -0.1424  0.0230
   99POPS   PO4 1312  18.023   9.026   9.912  0.1325 -0.1575  0.1955
   99POPS   GL1 1313  17.938   9.193   9.514 -0.2170 -0.0924  0.0247
   99POPS   GL2 1314  17.824   9.013   9.312  0.2423  0.2473 -0.2096
   99POPS   C1A 1315  17.645   9.484   9.202 -0.3853  0.0499 -0.2177
   99POPS   D2A 1316  17.556   9.906   9.062 -0.3482 -0.1837 -0.4221
   99POPS   C3A 1317  17.642   9.976   8.688 -0.0471  0.0455  0.0127
   99POPS   C4A 1318  17.592  10.339   8.342 -0.2070 -0.2331  0.0466
   99POPS   C1B 1319  17.963   9.176   8.962  0.0366 -0.0809  0.2277
   99POPS   C2B 1320  18.104   9.177   8.546  0.1609 -0.1275  0.2176
   99POPS   C3B 1321  17.919   9.161   8.152  0.0504  0.3042 -0.2387
   99POPS   C4B 1322  17.592   9.378   7.934 -0.0975  0.0807 -0.0741
  100POPS   CNO 1323  15.524   8.655  10.252 -0.0326  0.0807  0.2334
  100POPS   PO4 1324  15.876   8.674   9.969 -0.0630  0.3764  0.0380
  100POPS   GL1 1325  16.086   8.436   9.675 -0.0946 -0.1443  0.0575
  100POPS   GL2 1326  16.124   8.580   9.359 -0.2182 -0.1815  0.0905
  100POPS   C1A 1327  16.351   8.129   9.482  0.0730 -0.0231  0.2321
  100POPS   D2A 1328  16.745   8.034   9.142  0.0158 -0.0842  0.0702
  100POPS   C3A 1329  16.977   8.115   8.970 -0.1057 -0.0649 -0.1931
  100POPS   C4A 1330  16.975   8.205   8.613 -0.0867 -0.4412 -0.3874
  100POPS   C1B 1331  15.862   8.604   8.923  0.0359 -0.1353 -0.1139
  100POPS   C2B 1332  15.580   8.587   8.574 -0.1673  0.1699 -0.1058
  100POPS   C3B 1333  15.813   8.664   8.135 -0.2129  0.1988 -0.2085
  100POPS   C4B 1334  15.976   8.563   7.671 -0.0514  0.3352 -0.0969
  101POPS   CNO 1335  11.819   9.392  10.254  0.1801 -0.0500  0.6289
  101POPS   PO4 1336  12.099   9.178   9.936 -0.2364  0.2100  0.0716
  101POPS   GL1 1337  12.074   8.874   9.580 -0.1490 -0.0542 -0.3381
  101POPS   GL2 1338  11.756   8.813   9.500  0.0538  0.0538 -0.0635
  101POPS   C1A 1339  12.183   8.775   9.192 -0.0487 -0.1534  0.0505
  101POPS   D2A 1340  11.923   8.836   8.791  0.0218  0.1054 -0.0546
  101POPS   C3A 1341  11.849   8.932   8.382  0.1500  0.1234  0.2133
  101POPS   C4A 1342  11.934   9.266   8.010 -0.0753 -0.2179  0.0139
  101POPS   C1B 1343  11.690   8.594   9.196  0.1184  0.0395  0.0791
  101POPS   C2B 1344  11.545   8.539   8.808  0.2014 -0.2038  0.0993
  101POPS   C3B 1345  11.509   8.622   8.431  0.1326 -0.0566 -0.0844
  101POPS   C4B 1346  11.585   8.806   7.996  0.0625 -0.3317 -0.1863
  102POPS   CNO 1347   3.806  13.188  10.260  0.2126  0.3991  0.0439
  102POPS   PO4 1348   4.186  13.064  10.246  0.3152 -0.0949 -0.2371
  102POPS   GL1 1349   4.245  13.231   9.851 -0.0056 -0.1077 -0.1178
  102POPS   GL2 1350   4.526  13.398   9.795 -0.2616 -0.2187  0.3055
  102POPS   C1A 1351   4.060  13.434   9.491  0.1226  0.2102 -0.0136
  102POPS   D2A 1352   3.915  13.767   9.195 -0.2412 -0.1134  0.3804
  102POPS   C3A 1353   3.796  13.695   8.807  0.2142 -0.1685 -0.4409
  102POPS   C4A 1354   3.680  13.444   8.433 -0.0139 -0.1409 -0.1842
  102POPS   C1B 1355   4.516  13.521   9.355 -0.1545  0.0259 -0.1458
  102POPS   C2B 1356   4.703  13.434   9.009 -0.3171  0.1419 -0.2330
  102POPS   C3B 1357   4.652  13.589   8.686  0.2454 -0.2680  0.0737
  102POPS   C4B 1358   4.678  13.765   8.314  0.0635 -0.1137 -0.1224
  103POPS   CNO 1359   4.317  17.708  10.576 -0.1671 -0.1779  0.4962
  103POPS   PO4 1360   3.877  17.749  10.468 -0.5077 -0.1756  0.0812
  103POPS   GL1 1361   4.053  18.075  10.266  0.0110  0.2377 -0.0246
  103POPS   GL2 1362   4.056  18.465  10.253 -0.1257 -0.3075  0.0507
  103POPS   C1A 1363   4.173  18.045   9.806 -0.2886 -0.0531  0.2167
  103POPS   D2A 1364   4.137  18.185   9.497 -0.2944  0.3051  0.0878
  103POPS   C3A 1365   3.999  18.650   9.618  0.0655 -0.0990 -0.0608
  103POPS   C4A 1366   3.960  18.919   9.205 -0.0465 -0.1515 -0.1778
  103POPS   C1B 1367   3.773  18.376   9.957  0.0747 -0.0739 -0.0641
  103POPS   C2B 1368   3.603  18.273   9.576 -0.0876  0.0732 -0.1946
  103POPS   C3B 1369   3.754  18.434   9.221 -0.1868 -0.0129  0.2440
  103POPS   C4B 1370   3.818  18.296   8.774 -0.3334 -0.0174  0.0177
  104POPS   CNO 1371   3.219   4.860  10.324  0.1588  0.2059  0.1035
  104POPS   PO4 1372   3.383   4.750   9.964  0.0835 -0.1138 -0.1474
  104POPS   GL1 1373   3.271   4.699   9.599 -0.1305  0.0106  0.0581
  104POPS   GL2 1374   3.008   4.512   9.661 -0.0730  0.0520  0.1094
  104POPS   C1A 1375   3.158   4.735   9.112 -0.0429 -0.1023  0.0430
  104POPS   D2A 1376   2.745   4.792   8.908  0.0521 -0.1216  0.1287
  104POPS   C3A 1377   2.714   4.719   8.441  0.1610  0.0088  0.0052
  104POPS   C4A 1378   2.432   4.703   8.191 -0.1377 -0.0208  0.1763
  104POPS   C1B 1379   3.013   4.284   9.228 -0.0556  0.0306  0.1145
  104POPS   C2B 1380   2.947   4.320   8.805 -0.1009  0.3867 -0.0336
  104POPS   C3B 1381   2.555   4.313   8.519 -0.0378  0.1622  0.1251
  104POPS   C4B 1382   2.390   4.136   8.170  0.3458 -0.0590 -0.2715
  105POPS   CNO 1383  13.141  15.520  11.073  0.1337 -0.1105  0.1023
  105POPS   PO4 1384  13.385  15.418  10.664 -0.0781 -0.2020  0.1145
  105POPS   GL1 1385  13.454  15.524  10.263 -0.1734 -0.1597 -0.1483
  105POPS   GL2 1386  13.112  15.557  10.161  0.2674  0.2277  0.1750
  105POPS   C1A 1387  13.690  15.448   9.774 -0.0688 -0.0023  0.1462
  105POPS   D2A 1388  13.973  15.577   9.497 -0.0794  0.0540 -0.0653
  105POPS   C3A 1389  14.045  15.406   9.135  0.0512 -0.1010  0.2782
  105POPS   C4A 1390  13.654  15.180   8.907  0.1506  0.3645  0.2421
  105POPS   C1B 1391  13.144  15.334   9.817 -0.0910  0.0884 -0.1293
  105POPS   C2B 1392  13.329  15.362   9.423 -0.0592  0.2182 -0.2238
  105POPS   C3B 1393  13.432  15.630   9.124  0.0079 -0.4248  0.3798
  105POPS   C4B 1394  13.762  15.809   8.915  0.1632 -0.3110 -0.1229
  106POPS   CNO 1395   0.770   9.756   9.967 -0.1365 -0.0527 -0.0936
  106POPS   PO4 1396   1.140   9.782  10.154  0.0960 -0.1161 -0.0147
  106POPS   GL1 1397   1.140   9.876   9.680  0.2966  0.0799  0.0766
  106POPS   GL2 1398   1.410   9.743   9.646 -0.0259  0.1714  0.2767
  106POPS   C1A 1399   1.132   9.948   9.212  0.1195  0.0015 -0.0235
  106POPS   D2A 1400   1.258   9.995   8.708 -0.0706  0.1016  0.0786
  106POPS   C3A 1401   1.017  10.249   8.397 -0.0617  0.0345 -0.0885
  106POPS   C4A 1402   0.790  10.541   8.116 -0.0646 -0.1567  0.0985
  106POPS   C1B 1403   1.573  10.117   9.522  0.0093  0.3095 -0.3777
  106POPS   C2B 1404   1.522  10.240   9.132 -0.1926 -0.1473 -0.2572
  106POPS   C3B 1405   1.585  10.355   8.778 -0.1904 -0.2880  0.1912
  106POPS   C4B 1406   1.487  10.465   8.412  0.1418  0.1444  0.1854
  107POPS   CNO 1407   9.497  10.151  10.218 -0.0261  0.0150 -0.3373
  107POPS   PO4 1408   9.360   9.908   9.879  0.1459 -0.0952  0.0889
  107POPS   GL1 1409   9.209   9.992   9.484  0.0807  0.2117  0.2580
  107POPS   GL2 1410   8.943  10.164   9.548 -0.1116 -0.0675 -0.3113
  107POPS   C1A 1411   9.177   9.754   9.127 -0.0109 -0.2051  0.4267
  107POPS   D2A 1412   9.219   9.660   8.754  0.1286 -0.4962 -0.0548
  107POPS   C3A 1413   9.411   9.646   8.425 -0.0778  0.0272 -0.1092
  107POPS   C4A 1414   9.302   9.752   8.078  0.0691 -0.0956  0.3645
  107POPS   C1B 1415   8.988  10.224   9.125 -0.1560  0.3828  0.2035
  107POPS   C2B 1416   9.106  10.512   8.915  0.0448 -0.0278 -0.2336
  107POPS   C3B 1417   9.445  10.590   8.545  0.3363  0.1383 -0.1316
  107POPS   C4B 1418   9.807  10.790   8.493 -0.0647  0.0594 -0.3834
  108POPS   CNO 1419  17.866  10.566  10.524  0.1710  0.3892 -0.2532
  108POPS   PO4 1420  17.827  10.866  10.276 -0.0229  0.0554  0.3340
  108POPS   GL1 1421  18.002  10.925  10.004  0.0732 -0.1587 -0.0684
  108POPS   GL2 1422  18.077  11.262  10.082 -0.1883  0.0748 -0.0706
  108POPS   C1A 1423  17.890  10.848   9.560 -0.0427  0.1041  0.1464
  108POPS   D2A 1424  18.085  10.753   9.091  0.1599 -0.0140 -0.1383
  108POPS   C3A 1425  18.416  10.615   8.899  0.1542 -0.2674  0.2173
  108POPS   C4A 1426  18.572  10.339   9.015 -0.0703 -0.0784  0.2017
  108POPS   C1B 1427  17.981  11.418   9.697 -0.4114  0.0013 -0.1489
  108POPS   C2B 1428  17.916  11.693   9.350  0.0220 -0.1427 -0.0799
  108POPS   C3B 1429  17.957  11.644   8.975  0.1348 -0.1476 -0.0357
  108POPS   C4B 1430  18.088  11.569   8.643  0.0695  0.0864  0.0707
  109POPS   CNO 1431  12.337  16.125  10.767 -0.1105 -0.2489  0.0217
  109POPS   PO4 1432  11.926  16.407  10.756 -0.0406  0.2972 -0.2855
  109POPS   GL1 1433  11.892  16.755  10.492  0.1092  0.1703 -0.0208
  109POPS   GL2 1434  11.666  16.936  10.601 -0.1424  0.0221  0.2625
  109POPS   C1A 1435  12.116  16.884  10.058  0.0154  0.1923 -0.0090
  109POPS   D2A 1436  12.149  17.010   9.567 -0.1116  0.1151 -0.0518
  109POPS   C3A 1437  11.736  16.981   9.308 -0.0421 -0.0170  0.0472
  109POPS   C4A 1438  11.436  17.177   9.147  0.0173  0.0302  0.0532
  109POPS   C1B 1439  11.645  17.000  10.139 -0.1654  0.0276 -0.1246
  109POPS   C2B 1440  11.587  17.207   9.774  0.1916 -0.3061 -0.0431
  109POPS   C3B 1441  11.386  17.615   9.630  0.0583 -0.0406 -0.2874
  109POPS   C4B 1442  11.322  17.820   9.243 -0.1919 -0.3424  0.0684
  110POPS   CNO 1443   0.329  17.504  10.523 -0.0226  0.0446  0.0074
  110POPS   PO4 1444  -0.032  17.399  10.436 -0.3270 -0.0664  0.1376
  110POPS   GL1 1445  -0.266  17.532  10.107 -0.1131  0.1079 -0.0478
  110POPS   GL2 1446  -0.580  17.390  10.162  0.0145 -0.1443  0.0404
  110POPS   C1A 1447  -0.139  17.540   9.654  0.1562 -0.1154  0.0967
  110POPS   D2A 1448  -0.004  17.408   9.295 -0.1211  0.1274 -0.2484
  110POPS   C3A 1449   0.306  17.463   9.003  0.1530 -0.0980  0.2604
  110POPS   C4A 1450   0.579  17.624   8.752 -0.1288  0.1464  0.2308
  110POPS   C1B 1451  -0.630  17.478   9.709 -0.0334  0.0742  0.1312
  110POPS   C2B 1452  -0.552  17.478   9.294 -0.5010 -0.0046  0.1303
  110POPS   C3B 1453  -0.608  17.403   8.821  0.1546 -0.0062  0.0689
  110POPS   C4B 1454  -0.880  17.163   8.626  0.0463  0.1115  0.3171
  111POPS   CNO 1455  13.859   5.713  10.182  0.2879 -0.1222 -0.3408
  111POPS   PO4 1456  13.702   5.997  10.257 -0.0834  0.3380  0.2714
  111POPS   GL1 1457  13.422   6.140   9.990 -0.3011  0.0691 -0.1814
  111POPS   GL2 1458  13.540   5.925   9.668 -0.1121  0.3129  0.1797
  111POPS   C1A 1459  13.108   6.195   9.742 -0.2004 -0.2565  0.1061
  111POPS   D2A 1460  13.000   6.208   9.339 -0.1944 -0.1233  0.0840
  111POPS   C3A 1461  12.594   6.418   9.355 -0.0769  0.0417 -0.0444
  111POPS   C4A 1462  12.262   6.582   9.620 -0.1408 -0.0191  0.3887
  111POPS   C1B 1463  13.404   5.953   9.179 -0.0643  0.0521  0.2393
  111POPS   C2B 1464  13.278   5.909   8.727 -0.3830 -0.1457 -0.2324
  111POPS   C3B 1465  13.358   5.866   8.283  0.0139  0.0877 -0.1661
  111POPS   C4B 1466  13.394   6.137   7.887  0.1764  0.0777  0.0697
  112POPS   CNO 1467   7.565   3.892  10.046 -0.0515  0.1703 -0.1035
  112POPS   PO4 1468   7.407   3.538  10.155  0.0383  0.0525  0.2627
  112POPS   GL1 1469   7.267   3.640   9.749 -0.0738  0.3056 -0.0997
  112POPS   GL2 1470   7.439   3.935   9.519  0.1170  0.2375 -0.2555
  112POPS   C1A 1471   7.261   3.599   9.272 -0.1841  0.0539 -0.1152
  112POPS   D2A 1472   7.402   3.720   8.919  0.2613  0.1408 -0.1587
  112POPS   C3A 1473   7.213   3.784   8.570  0.0474 -0.0778  0.2530
  112POPS   C4A 1474   6.962   3.667   8.234 -0.0332  0.1938 -0.1235
  112POPS   C1B 1475   7.243   4.145   9.078  0.0889 -0.2024 -0.1631
  112POPS   C2B 1476   7.062   4.277   8.749 -0.0731 -0.2897  0.2681
  112POPS   C3B 1477   6.799   4.318   8.457  0.1482 -0.0731 -0.2667
  112POPS   C4B 1478   6.633   4.487   8.059  0.1474 -0.0092 -0.1009
  113POPS   CNO 1479  16.740   2.588  10.524 -0.0283  0.1070 -0.0086
  113POPS   PO4 1480  16.563   2.673  10.109 -0.3081 -0.0463 -0.1181
  113POPS   GL1 1481  16.640   2.846   9.613  0.0724  0.3421 -0.0462
  113POPS   GL2 1482  16.330   2.602   9.507 -0.0214  0.2025  0.5155
  113POPS   C1A 1483  16.720   2.722   9.162  0.1323  0.2229 -0.3811
  113POPS   D2A 1484  16.732   2.431   8.817 -0.0329 -0.0718  0.3369
  113POPS   C3A 1485  16.918   2.565   8.500  0.0396  0.1453 -0.2407
  113POPS   C4A 1486  17.301   2.615   8.271 -0.0313  0.1703 -0.1168
  113POPS   C1B 1487  16.219   2.675   9.039 -0.3265  0.0243 -0.1364
  113POPS   C2B 1488  16.276   2.642   8.575 -0.1869  0.1081 -0.2204
  113POPS   C3B 1489  16.066   2.315   8.180  0.0973  0.1000 -0.2496
  113POPS   C4B 1490  15.846   2.502   7.792  0.2452  0.2025 -0.0113
  114POPS   CNO 1491   0.740   5.989   9.661 -0.1976  0.5911 -0.0071
  114POPS   PO4 1492   1.119   6.259   9.499  0.2887  0.3488  0.2112
  114POPS   GL1 1493   1.049   6.397   9.127  0.3065  0.0824  0.0042
  114POPS   GL2 1494   0.771   6.559   9.036  0.1095 -0.0202  0.2043
  114POPS   C1A 1495   0.998   6.369   8.651  0.0090  0.4856 -0.0583
  114POPS   D2A 1496   0.894   6.387   8.209  0.1186 -0.0178 -0.1333
  114POPS   C3A 1497   1.157   6.203   7.823  0.3049 -0.1822 -0.2025
  114POPS   C4A 1498   1.506   6.066   7.634  0.3593  0.0587  0.3891
  114POPS   C1B 1499   0.723   6.761   8.607  0.1219  0.0710  0.0400
  114POPS   C2B 1500   0.875   6.934   8.171  0.2960  0.0613  0.2324
  114POPS   C3B 1501   1.228   7.139   8.042 -0.0380  0.2300 -0.0202
  114POPS   C4B 1502   1.647   7.183   8.037  0.1029  0.1618 -0.3733
  115POPS   CNO 1503   5.900   3.152  10.791  0.2190 -0.0801  0.2312
  115POPS   PO4 1504   5.690   2.913  10.479 -0.0608 -0.2762  0.1308
  115POPS   GL1 1505   5.755   2.715  10.030 -0.1321  0.1203  0.3514
  115POPS   GL2 1506   5.976   2.888   9.761 -0.0192  0.0608  0.4739
  115POPS   C1A 1507   5.614   2.499   9.799  0.1137  0.2200 -0.2554
  115POPS   D2A 1508   5.434   2.371   9.434  0.2669 -0.3194  0.1522
  115POPS   C3A 1509   5.240   2.708   9.199 -0.0106  0.1453 -0.1065
  115POPS   C4A 1510   4.918   2.763   8.821  0.1360  0.1671 -0.3756
  115POPS   C1B 1511   5.754   2.751   9.399  0.2215 -0.2423 -0.0840
  115POPS   C2B 1512   5.702   2.446   9.018  0.0335 -0.0457 -0.0140
  115POPS   C3B 1513   5.409   2.318   8.870  0.4003 -0.1543  0.1296
  115POPS   C4B 1514   5.177   1.951   8.876 -0.0254  0.1520 -0.2392
  116POPS   CNO 1515   5.847   9.811  10.444  0.3442 -0.1743 -0.0296
  116POPS   PO4 1516   6.249   9.646  10.360 -0.0604 -0.0180  0.2877
  116POPS   GL1 1517   6.295   9.999   9.987  0.0017  0.3664 -0.3498
  116POPS   GL2 1518   6.723   9.982   9.964 -0.0405  0.0957 -0.1614
  116POPS   C1A 1519   6.272  10.166   9.653  0.1627  0.0028  0.0631
  116POPS   D2A 1520   6.457  10.393   9.206 -0.0352  0.0818 -0.0091
  116POPS   C3A 1521   6.311  10.184   8.880 -0.0664 -0.0872 -0.2189
  116POPS   C4A 1522   6.009  10.169   8.492 -0.3344 -0.0366 -0.2192
  116POPS   C1B 1523   6.542   9.720   9.676 -0.2426  0.1188 -0.0504
  116POPS   C2B 1524   6.440   9.460   9.297 -0.2089  0.0539  0.2440
  116POPS   C3B 1525   6.078   9.427   8.876 -0.5967  0.1182 -0.1570
  116POPS   C4B 1526   6.120   9.388   8.370 -0.0326  0.1024  0.2511
  117POPS   CNO 1527   3.627   3.963  10.128  0.0255  0.3202  0.1712
  117POPS   PO4 1528   3.693   3.441  10.181  0.1866 -0.1132  0.3980
  117POPS   GL1 1529   3.729   3.324   9.759 -0.2387 -0.1068  0.2897
  117POPS   GL2 1530   3.576   3.084   9.648 -0.4822  0.0632  0.2521
  117POPS   C1A 1531   3.573   3.429   9.274 -0.0018  0.0032 -0.1587
  117POPS   D2A 1532   3.199   3.359   8.982  0.0967 -0.2348 -0.2695
  117POPS   C3A 1533   3.055   2.900   8.860  0.0727 -0.2589 -0.1059
  117POPS   C4A 1534   3.084   2.602   8.456  0.3685  0.0285  0.1433
  117POPS   C1B 1535   3.518   2.597   9.418 -0.1754 -0.2383  0.0565
  117POPS   C2B 1536   3.532   2.441   9.054 -0.0154  0.3116 -0.1660
  117POPS   C3B 1537   3.635   2.335   8.727  0.3966  0.2907 -0.1502
  117POPS   C4B 1538   3.507   2.255   8.285 -0.0575 -0.4076 -0.3244
  118POPS   CNO 1539   9.256   9.235   9.969 -0.2378  0.2880 -0.2998
  118POPS   PO4 1540   8.788   9.443  10.078  0.2224 -0.1443 -0.6189
  118POPS   GL1 1541   8.994   9.561   9.739  0.1402  0.1219 -0.3246
  118POPS   GL2 1542   9.268   9.470   9.535 -0.1918  0.1170 -0.0040
  118POPS   C1A 1543   8.782   9.713   9.355  0.0911  0.4619  0.3131
  118POPS   D2A 1544   8.734   9.827   8.873 -0.1396  0.0431  0.2934
  118POPS   C3A 1545   8.408   9.730   8.439  0.0671  0.2065 -0.0784
  118POPS   C4A 1546   8.074   9.515   8.057 -0.0840  0.1712 -0.2603
  118POPS   C1B 1547   9.457   9.327   9.144  0.1134  0.3048  0.2316
  118POPS   C2B 1548   9.400   9.244   8.716  0.1105 -0.0237 -0.1299
  118POPS   C3B 1549   9.335   9.178   8.281  0.0706  0.2286  0.0597
  118POPS   C4B 1550   9.645   9.262   7.926  0.1786  0.1050  0.0284
  119POPS   CNO 1551   5.638   7.914  10.791 -0.1920 -0.0910  0.0173
  119POPS   PO4 1552   5.709   8.145  10.343 -0.0173  0.1299  0.1154
  119POPS   GL1 1553   5.859   8.094   9.961  0.1583  0.1889  0.0897
  119POPS   GL2 1554   6.334   8.032   9.954  0.0930 -0.0203 -0.1375
  119POPS   C1A 1555   6.003   7.882   9.600  0.1129  0.0979  0.1101
  119POPS   D2A 1556   5.958   8.090   9.238 -0.0995  0.0208 -0.2492
  119POPS   C3A 1557   6.166   7.971   8.783  0.1062  0.0996  0.0412
  119POPS   C4A 1558   6.490   8.052   8.501 -0.1181  0.1496  0.3226
  119POPS   C1B 1559   6.340   8.267   9.556  0.2018  0.3127  0.2898
  119POPS   C2B 1560   6.453   8.511   9.161  0.1518  0.1424 -0.0388
  119POPS   C3B 1561   6.486   8.692   8.771  0.0514 -0.1928  0.0300
  119POPS   C4B 1562   6.693   8.500   8.466  0.1140 -0.2168 -0.0622
  120POPS   CNO 1563  17.571  11.326  10.474 -0.4250  0.0958 -0.0051
  120POPS   PO4 1564  17.170  11.257  10.377 -0.0425 -0.3337 -0.1552
  120POPS   GL1 1565  17.309  11.460   9.978 -0.1624  0.0853 -0.2513
  120POPS   GL2 1566  17.600  11.222   9.969  0.3362 -0.0579  0.0134
  120POPS   C1A 1567  17.387  11.756   9.683  0.2482  0.2196  0.3442
  120POPS   D2A 1568  17.439  11.592   9.165  0.1818  0.3565 -0.0134
  120POPS   C3A 1569  17.088  11.897   8.886 -0.1972  0.2157  0.0791
  120POPS   C4A 1570  16.751  12.084   8.609 -0.1716 -0.1480 -0.1486
  120POPS   C1B 1571  17.541  11.260   9.552  0.0251 -0.3300  0.2984
  120POPS   C2B 1572  17.808  11.164   9.235  0.0902  0.1772  0.1886
  120POPS   C3B 1573  17.850  11.061   8.858  0.0606 -0.1201 -0.2716
  120POPS   C4B 1574  18.172  10.963   8.529  0.1740  0.0739  0.2436
  121POPS   CNO 1575  10.961  14.999  11.020  0.0156 -0.1292  0.0328
  121POPS   PO4 1576  11.124  15.354  10.741 -0.0752 -0.1638  0.2076
  121POPS   GL1 1577  11.166  15.378  10.354 -0.0906 -0.2365 -0.0873
  121POPS   GL2 1578  11.229  15.170  10.207 -0.2306 -0.1574  0.0962
  121POPS   C1A 1579  11.099  15.648   9.986  0.0622 -0.0297 -0.2047
  121POPS   D2A 1580  11.402  15.811   9.678  0.2358  0.2563 -0.1925
  121POPS   C3A 1581  11.403  15.702   9.209 -0.1240  0.1215  0.0440
  121POPS   C4A 1582  11.403  15.578   8.727  0.2580  0.1713 -0.2233
  121POPS   C1B 1583  11.101  15.213   9.762  0.1825 -0.1945 -0.1079
  121POPS   C2B 1584  11.019  15.436   9.484 -0.4355 -0.1879 -0.0312
  121POPS   C3B 1585  10.929  15.571   9.086  0.2381  0.2281  0.0115
  121POPS   C4B 1586  10.884  15.558   8.573  0.2652 -0.2881 -0.4324
  122POPS   CNO 1587  17.680  14.061  11.223  0.1221  0.4282  0.1507
  122POPS   PO4 1588  17.554  14.360  10.988 -0.0627  0.1162  0.1899
  122POPS   GL1 1589  17.634  14.450  10.552 -0.2344  0.0388  0.1677
  122POPS   GL2 1590  17.422  14.530  10.260 -0.1788  0.0638 -0.0904
  122POPS   C1A 1591  17.914  14.525  10.150 -0.0942 -0.0352 -0.1298
  122POPS   D2A 1592  18.044  14.647   9.629 -0.0082 -0.0262  0.1691
  122POPS   C3A 1593  17.948  15.009   9.346 -0.3139 -0.0492  0.1452
  122POPS   C4A 1594  17.709  15.225   9.015 -0.0650 -0.1512  0.0360
  122POPS   C1B 1595  17.536  14.691   9.879 -0.0594 -0.2179 -0.0748
  122POPS   C2B 1596  17.545  14.892   9.569 -0.0255  0.0637  0.1957
  122POPS   C3B 1597  17.324  15.110   9.272 -0.2572  0.0581 -0.4054
  122POPS   C4B 1598  16.919  15.316   9.133 -0.0625 -0.2112 -0.3577
  123POPS   CNO 1599  17.736   7.849   9.672 -0.0530  0.0950  0.3776
  123POPS   PO4 1600  17.466   7.516   9.815  0.0641 -0.3691  0.2493
  123POPS   GL1 1601  17.584   7.420   9.352 -0.2457  0.0062 -0.0171
  123POPS   GL2 1602  17.839   7.106   9.343  0.2728  0.2191  0.0914
  123POPS   C1A 1603  17.587   7.509   8.899 -0.1145  0.0420 -0.1954
  123POPS   D2A 1604  17.868   7.548   8.590 -0.0520 -0.4215  0.1338
  123POPS   C3A 1605  17.767   7.488   8.143 -0.0736 -0.2635 -0.0447
  123POPS   C4A 1606  17.805   7.145   7.934  0.0019 -0.1069  0.1535
  123POPS   C1B 1607  17.797   7.017   8.908 -0.1027 -0.0567 -0.1063
  123POPS   C2B 1608  17.791   7.064   8.503 -0.1259 -0.2402 -0.3026
  123POPS   C3B 1609  17.509   6.842   8.242 -0.2603 -0.2132  0.3575
  123POPS   C4B 1610  17.138   6.662   8.150 -0.1626  0.2323 -0.1098
  124POPS   CNO 1611   4.746   5.711  10.279 -0.0996  0.2151 -0.3700
  124POPS   PO4 1612   4.821   5.306  10.197 -0.0433 -0.1816 -0.0460
  124POPS   GL1 1613   4.777   5.446   9.810 -0.0103  0.1609  0.0753
  124POPS   GL2 1614   4.838   5.305   9.536 -0.2831  0.2322  0.1297
  124POPS   C1A 1615   5.052   5.758   9.617 -0.0026 -0.1145  0.0730
  124POPS   D2A 1616   5.184   6.087   9.365 -0.0650  0.0088 -0.0791
  124POPS   C3A 1617   5.117   5.996   8.935  0.1413 -0.1187  0.1080
  124POPS   C4A 1618   5.092   5.950   8.564  0.2273 -0.1221  0.4942
  124POPS   C1B 1619   5.152   5.159   9.174  0.0136 -0.4743 -0.3654
  124POPS   C2B 1620   5.354   4.879   8.817 -0.2185 -0.1675 -0.0418
  124POPS   C3B 1621   5.328   4.575   8.573 -0.0847 -0.6053  0.2503
  124POPS   C4B 1622   5.073   4.324   8.340 -0.1165 -0.0721  0.2316
  125POPS   CNO 1623  15.035  13.152  10.650  0.1487  0.1646 -0.0795
  125POPS   PO4 1624  14.956  12.774  10.803 -0.0834  0.1192 -0.2664
  125POPS   GL1 1625  14.803  12.607  10.460  0.2344 -0.3082  0.2271
  125POPS   GL2 1626  14.643  12.858  10.340  0.0617 -0.2288 -0.0263
  125POPS   C1A 1627  14.853  12.581   9.935 -0.0783  0.3091 -0.1453
  125POPS   D2A 1628  15.288  12.480   9.693 -0.0949 -0.1916  0.0641
  125POPS   C3A 1629  15.269  12.675   9.227 -0.2782 -0.0101  0.0124
  125POPS   C4A 1630  15.306  13.054   8.942 -0.1096  0.2249 -0.3057
  125POPS   C1B 1631  14.665  13.187   9.990  0.0079 -0.0899  0.0672
  125POPS   C2B 1632  14.904  13.183   9.603  0.1412  0.1552 -0.0280
  125POPS   C3B 1633  14.888  13.218   9.225  0.0915  0.2557  0.1267
  125POPS   C4B 1634  14.682  13.047   8.895 -0.0769  0.1747  0.2907
  126POPS   CNO 1635   2.174  18.231  10.662 -0.2308 -0.0107 -0.1114
  126POPS   PO4 1636   2.146  18.382  10.228  0.0713 -0.0869  0.2527
  126POPS   GL1 1637   2.105  18.220   9.909  0.1710 -0.0958 -0.0769
  126POPS   GL2 1638   2.339  17.985   9.907  0.2413  0.4149 -0.0244
  126POPS   C1A 1639   1.881  18.115   9.661  0.4451 -0.3278 -0.1382
  126POPS   D2A 1640   2.036  18.131   9.217 -0.2122 -0.0760 -0.0473
  126POPS   C3A 1641   2.045  17.759   8.856 -0.1937 -0.1206 -0.0742
  126POPS   C4A 1642   1.813  17.387   8.760 -0.1523  0.1099 -0.0576
  126POPS   C1B 1643   2.321  17.843   9.511 -0.1380  0.1156  0.1450
  126POPS   C2B 1644   2.544  17.819   9.039  0.0250 -0.2008 -0.1265
  126POPS   C3B 1645   2.556  17.767   8.613  0.2549 -0.0214 -0.0505
  126POPS   C4B 1646   2.372  17.993   8.347  0.1372 -0.1960 -0.1397
  127POPS   CNO 1647  16.641  18.202  10.470 -0.1935 -0.0815 -0.0612
  127POPS   PO4 1648  16.642  18.427  10.101  0.0024  0.2178 -0.1653
  127POPS   GL1 1649  16.770  18.521   9.752  0.1757  0.0541  0.1728
  127POPS   GL2 1650  16.626  18.895   9.607  0.1331  0.0270 -0.2840
  127POPS   C1A 1651  16.998  18.193   9.472  0.1642 -0.0973  0.0820
  127POPS   D2A 1652  16.994  18.110   8.948 -0.3827  0.1325  0.0008
  127POPS   C3A 1653  16.779  17.887   8.753  0.2474  0.0747 -0.1737
  127POPS   C4A 1654  16.600  17.780   8.407 -0.1216  0.2438  0.0386
  127POPS   C1B 1655  16.541  18.936   9.149  0.1569  0.2448  0.0715
  127POPS   C2B 1656  16.570  18.998   8.688  0.2535 -0.3206 -0.1541
  127POPS   C3B 1657  16.872  18.994   8.367 -0.1350  0.1199  0.0823
  127POPS   C4B 1658  16.969  18.604   8.058  0.0209  0.2595  0.1545
  128POPS   CNO 1659  12.502  15.510  11.039  0.2656 -0.0904 -0.0836
  128POPS   PO4 1660  12.357  15.638  10.710  0.2901  0.2182  0.1733
  128POPS   GL1 1661  12.623  15.841  10.336 -0.0471  0.0887 -0.1161
  128POPS   GL2 1662  12.567  16.122  10.292  0.0347 -0.1644  0.4544
  128POPS   C1A 1663  12.809  15.854   9.931  0.2269  0.0687  0.0890
  128POPS   D2A 1664  12.716  15.892   9.530 -0.1662  0.0038  0.3567
  128POPS   C3A 1665  12.355  15.724   9.626 -0.0358 -0.1990 -0.1135
  128POPS   C4A 1666  12.062  15.917   9.865  0.2914 -0.0332 -0.0506
  128POPS   C1B 1667  12.366  16.331   9.998  0.0679  0.0620 -0.1525
  128POPS   C2B 1668  12.378  16.239   9.633  0.1609  0.3636  0.0126
  128POPS   C3B 1669  12.234  16.110   9.337  0.0398  0.1175  0.1710
  128POPS   C4B 1670  12.271  15.859   9.094 -0.0731  0.0654 -0.0977
  129POPS   CNO 1671  12.345   0.917  11.011  0.1222 -0.0049  0.0334
  129POPS   PO4 1672  12.688   1.004  10.678 -0.0308 -0.0747 -0.1358
  129POPS   GL1 1673  12.531   1.020  10.193 -0.3462  0.0360 -0.2412
  129POPS   GL2 1674  12.307   1.270  10.291  0.0014  0.0494  0.2821
  129POPS   C1A 1675  12.510   0.904   9.725  0.2590 -0.3429 -0.0938
  129POPS   D2A 1676  12.179   0.924   9.331  0.1301  0.1290  0.0732
  129POPS   C3A 1677  11.822   0.754   9.008 -0.0935  0.1762  0.0551
  129POPS   C4A 1678  11.458   0.984   8.704  0.3170 -0.0936 -0.1921
  129POPS   C1B 1679  12.250   1.318   9.866 -0.1498  0.0295  0.2028
  129POPS   C2B 1680  12.131   1.413   9.434 -0.0012  0.1751 -0.1590
  129POPS   C3B 1681  12.119   1.234   8.959  0.2434 -0.0672  0.1401
  129POPS   C4B 1682  11.865   1.254   8.574 -0.1133 -0.0770  0.1573
  130POPS   CNO 1683  13.222  12.329  10.806  0.0818  0.3393  0.0455
  130POPS   PO4 1684  13.021  12.511  10.538  0.1476 -0.2447  0.0539
  130POPS   GL1 1685  12.853  12.703  10.190  0.0684  0.0709  0.3988
  130POPS   GL2 1686  12.685  12.439   9.979 -0.0603 -0.0490  0.1352
  130POPS   C1A 1687  12.662  12.886   9.808  0.3272 -0.1942 -0.3303
  130POPS   D2A 1688  12.670  13.256   9.665 -0.1026  0.2094  0.1774
  130POPS   C3A 1689  12.666  13.378   9.182 -0.0346 -0.1162 -0.3077
  130POPS   C4A 1690  12.490  13.447   8.823 -0.0466 -0.1266 -0.0462
  130POPS   C1B 1691  12.547  12.490   9.492 -0.1754 -0.1648 -0.0294
  130POPS   C2B 1692  12.641  12.681   9.172  0.1144 -0.1039  0.1156
  130POPS   C3B 1693  12.762  12.968   8.956  0.3272  0.0142  0.1044
  130POPS   C4B 1694  12.713  13.188   8.533  0.4640  0.1532 -0.2064
  131POPS   CNO 1695   6.488   8.120  10.432 -0.1725  0.1834 -0.1925
  131POPS   PO4 1696   6.188   8.403  10.364  0.1419  0.1187 -0.3649
  131POPS   GL1 1697   6.059   8.612  10.004  0.3556 -0.0082 -0.1695
  131POPS   GL2 1698   5.726   8.568   9.975  0.0774  0.2992  0.0089
  131POPS   C1A 1699   6.053   8.710   9.557 -0.0019  0.2268  0.0384
  131POPS   D2A 1700   5.894   8.571   9.147 -0.0234 -0.1600 -0.1567
  131POPS   C3A 1701   5.964   8.488   8.707  0.3061  0.0376  0.3231
  131POPS   C4A 1702   6.159   8.570   8.352  0.2323  0.3957 -0.0742
  131POPS   C1B 1703   5.703   8.358   9.595 -0.1425  0.0719  0.3413
  131POPS   C2B 1704   5.523   8.008   9.377 -0.0722  0.1698 -0.0104
  131POPS   C3B 1705   5.588   7.956   8.932 -0.1427  0.1421 -0.2709
  131POPS   C4B 1706   5.547   7.930   8.546 -0.2450 -0.1410 -0.1564
  132POPS   CNO 1707  15.852  15.519  11.071  0.0553  0.1903 -0.2151
  132POPS   PO4 1708  15.777  15.032  11.022  0.0914  0.1252 -0.5128
  132POPS   GL1 1709  15.607  14.947  10.616  0.0625 -0.0799 -0.3087
  132POPS   GL2 1710  15.345  14.639  10.341 -0.0063  0.2399  0.1017
  132POPS   C1A 1711  15.647  15.024  10.256 -0.3815 -0.1766  0.0519
  132POPS   D2A 1712  15.360  15.231  10.039 -0.0347  0.0891  0.0960
  132POPS   C3A 1713  15.282  15.109   9.619  0.1111  0.0274  0.2797
  132POPS   C4A 1714  15.251  14.794   9.339  0.0070 -0.0154 -0.0360
  132POPS   C1B 1715  15.306  14.685   9.835 -0.1155 -0.1008  0.0707
  132POPS   C2B 1716  15.459  14.375   9.568  0.0039 -0.0396 -0.0776
  132POPS   C3B 1717  15.478  14.452   9.070  0.1343 -0.1182  0.4497
  132POPS   C4B 1718  15.642  14.448   8.694 -0.1575 -0.2724 -0.0425
  133POPS   CNO 1719   9.447   8.146   9.836 -0.0108 -0.0470  0.1796
  133POPS   PO4 1720   9.843   7.960  10.009 -0.0599 -0.1919  0.1405
  133POPS   GL1 1721   9.897   7.932   9.586  0.0370  0.3521  0.0252
  133POPS   GL2 1722  10.132   7.643   9.483 -0.2243  0.0795 -0.2929
  133POPS   C1A 1723   9.767   8.043   9.109  0.1908  0.0886 -0.0169
  133POPS   D2A 1724   9.768   7.867   8.697  0.0278  0.2250  0.0879
  133POPS   C3A 1725  10.072   7.838   8.486  0.3476  0.1923 -0.3375
  133POPS   C4A 1726  10.409   7.911   8.672 -0.0711 -0.4907  0.1279
  133POPS   C1B 1727  10.177   7.726   9.126  0.1351  0.2697  0.0311
  133POPS   C2B 1728  10.213   7.443   8.807 -0.3832 -0.2104 -0.3605
  133POPS   C3B 1729  10.265   7.328   8.443  0.1018  0.0045  0.2885
  133POPS   C4B 1730  10.160   7.127   8.081 -0.1388 -0.2194 -0.1670
  134POPS   CNO 1731   3.678   6.404   9.935  0.1659  0.1243  0.2419
  134POPS   PO4 1732   3.367   6.157  10.139 -0.2493 -0.1464  0.0285
  134POPS   GL1 1733   3.309   6.145   9.667  0.0536 -0.3016 -0.0799
  134POPS   GL2 1734   3.639   6.126   9.484  0.0957  0.0333  0.1228
  134POPS   C1A 1735   3.358   6.333   9.155 -0.2940 -0.1779 -0.0777
  134POPS   D2A 1736   3.672   6.307   8.840  0.2358 -0.2974 -0.0014
  134POPS   C3A 1737   3.586   6.456   8.414 -0.2293  0.0904  0.0212
  134POPS   C4A 1738   3.623   6.646   8.060 -0.3248 -0.1049  0.0209
  134POPS   C1B 1739   3.708   5.902   9.178  0.1658  0.2727 -0.0547
  134POPS   C2B 1740   3.712   5.817   8.794  0.1353  0.3851 -0.2509
  134POPS   C3B 1741   3.682   5.951   8.404 -0.1917 -0.0046  0.0359
  134POPS   C4B 1742   3.690   6.136   8.044  0.2264 -0.4147  0.1027
  135POPS   CNO 1743  14.041   0.237  10.571  0.0152 -0.2486 -0.0597
  135POPS   PO4 1744  13.760   0.001  10.385  0.2345 -0.1331 -0.1297
  135POPS   GL1 1745  13.502  -0.025  10.058  0.3928  0.0972 -0.2658
  135POPS   GL2 1746  13.436   0.196   9.812  0.5295 -0.2417  0.0734
  135POPS   C1A 1747  13.044  -0.133   9.875  0.1742 -0.0017  0.3552
  135POPS   D2A 1748  12.596  -0.129   9.954 -0.1939  0.0628  0.2201
  135POPS   C3A 1749  12.251   0.065   9.979 -0.0529 -0.1395  0.0477
  135POPS   C4A 1750  11.834   0.278   9.963  0.1727  0.2411  0.1652
  135POPS   C1B 1751  13.245   0.352   9.529 -0.0839  0.2492 -0.3402
  135POPS   C2B 1752  13.092   0.370   9.140 -0.1875  0.1139  0.1747
  135POPS   C3B 1753  13.112   0.523   8.673  0.0912  0.0885 -0.0877
  135POPS   C4B 1754  13.005   0.285   8.247 -0.0688  0.0151 -0.0183
  136POPS   CNO 1755  12.498  10.604  10.013  0.0082  0.1639 -0.2139
  136POPS   PO4 1756  12.160  10.780  10.074 -0.3011  0.0208  0.1661
  136POPS   GL1 1757  12.259  11.082   9.826  0.1412 -0.0897  0.1633
  136POPS   GL2 1758  12.528  11.180   9.876  0.2916  0.0083  0.1271
  136POPS   C1A 1759  12.109  11.272   9.440  0.1080  0.1468 -0.0045
  136POPS   D2A 1760  12.012  11.708   9.151 -0.0210  0.0592  0.2171
  136POPS   C3A 1761  11.939  11.726   8.705  0.1570 -0.2668  0.1816
  136POPS   C4A 1762  11.563  11.607   8.546 -0.0138 -0.1063 -0.1544
  136POPS   C1B 1763  12.627  11.460   9.563  0.0393  0.2727  0.1064
  136POPS   C2B 1764  12.469  11.701   9.140 -0.2081 -0.0288  0.2987
  136POPS   C3B 1765  12.451  11.757   8.621 -0.0344 -0.0637 -0.0099
  136POPS   C4B 1766  12.709  11.802   8.245  0.1564 -0.0281 -0.0614
  137POPS   CNO 1767   1.336   8.257  10.475 -0.0249  0.1543 -0.2454
  137POPS   PO4 1768   1.308   8.328  10.015  0.0108 -0.2166  0.5022
  137POPS   GL1 1769   1.449   8.528   9.616 -0.1273  0.1268  0.1422
  137POPS   GL2 1770   1.670   8.743   9.685  0.2256 -0.1284 -0.0411
  137POPS   C1A 1771   1.581   8.669   9.219 -0.0151  0.1026  0.3279
  137POPS   D2A 1772   1.909   8.572   8.966  0.4219  0.0622  0.2095
  137POPS   C3A 1773   2.069   8.900   8.612  0.0409  0.0593  0.1999
  137POPS   C4A 1774   2.246   9.159   8.385  0.2006  0.1331  0.2398
  137POPS   C1B 1775   1.974   8.517   9.442 -0.1004  0.1755  0.0444
  137POPS   C2B 1776   1.716   8.172   9.219  0.3081  0.2165  0.0479
  137POPS   C3B 1777   1.624   8.187   8.834 -0.0634  0.0846  0.2321
  137POPS   C4B 1778   1.712   8.517   8.489  0.0234 -0.2209 -0.0970
  138YOPS   CNO 1779   0.923   0.675  10.193  0.2073  0.0358 -0.0413
  138YOPS   PO4 1780   1.373   0.633  10.395  0.0846 -0.3459 -0.1069
  138YOPS   GL1 1781   1.340   0.546   9.893 -0.1688 -0.2296 -0.1448
  138YOPS   GL2 1782   1.479   0.836   9.815  0.0956 -0.3320 -0.2435
  138YOPS   C1A 1783   1.571   0.424   9.517 -0.2139  0.0073 -0.2093
  138YOPS   D2A 1784   1.557  -0.020   9.262  0.1323  0.0991 -0.0620
  138YOPS   C3A 1785   1.726   0.038   8.857 -0.2713  0.2866 -0.0762
  138YOPS   C4A 1786   2.171  -0.056   8.732  0.2415 -0.2263 -0.1378
  138YOPS   C1B 1787   1.526   0.850   9.383 -0.0768  0.0649  0.1154
  138YOPS   C2B 1788   1.697   0.744   8.804 -0.2284  0.0170  0.1640
  138YOPS   D3B 1789   1.592   0.442   8.562 -0.1211  0.0546 -0.0311
  138YOPS   C4B 1790   1.825   0.146   8.294 -0.1066 -0.3853 -0.0672
  139YOPS   CNO 1791   7.888   6.315  10.280  0.0465  0.0091 -0.2104
  139YOPS   PO4 1792   7.896   5.864  10.118 -0.1627  0.1196  0.0079
  139YOPS   GL1 1793   7.931   5.721   9.707 -0.4121  0.2775 -0.0653
  139YOPS   GL2 1794   8.272   5.723   9.648 -0.2175  0.1838 -0.1038
  139YOPS   C1A 1795   7.869   5.541   9.303 -0.1508  0.2545  0.1763
  139YOPS   D2A 1796   7.903   5.608   8.847  0.0734 -0.0656  0.0217
  139YOPS   C3A 1797   7.776   5.374   8.376 -0.2894  0.0131 -0.3755
  139YOPS   C4A 1798   8.085   5.199   7.995  0.0140  0.0269 -0.1879
  139YOPS   C1B 1799   8.483   6.140   9.515  0.2481 -0.0358  0.1909
  139YOPS   C2B 1800   8.349   6.438   9.258  0.0686 -0.1930 -0.1097
  139YOPS   D3B 1801   8.148   6.532   8.942 -0.0893 -0.0224 -0.2221
  139YOPS   C4B 1802   8.234   6.343   8.503  0.2951  0.1485  0.2334
  140YOPS   CNO 1803  18.056   5.584   9.417  0.3527  0.1200 -0.0819
  140YOPS   PO4 1804  18.376   5.246   9.570  0.3261 -0.3166 -0.2413
  140YOPS   GL1 1805  18.439   4.938   9.280  0.5304 -0.0640 -0.3815
  140YOPS   GL2 1806  18.078   5.142   9.158  0.1975 -0.0859  0.0054
  140YOPS   C1A 1807  18.387   4.872   8.825  0.0324  0.2692  0.0098
  140YOPS   D2A 1808  18.632   4.999   8.474 -0.0777 -0.1957 -0.2260
  140YOPS   C3A 1809  18.985   5.122   8.268 -0.1496  0.0368 -0.2036
  140YOPS   C4A 1810  19.215   4.828   8.070  0.3450  0.3306 -0.1159
  140YOPS   C1B 1811  18.354   5.385   8.899 -0.0266 -0.2674  0.2708
  140YOPS   C2B 1812  18.524   5.484   8.492 -0.1215 -0.0689  0.2742
  140YOPS   D3B 1813  18.543   5.395   8.010 -0.0747  0.1471  0.0228
  140YOPS   C4B 1814  18.747   5.104   7.868 -0.1273 -0.1415  0.0212
  141YOPS   CNO 1815   1.816   5.287  10.226  0.2969 -0.0562 -0.1268
  141YOPS   PO4 1816   1.804   4.921   9.860  0.0518 -0.3400  0.0236
  141YOPS   GL1 1817   1.907   5.180   9.498 -0.0424  0.2966 -0.2426
  141YOPS   GL2 1818   2.191   5.324   9.402 -0.1566 -0.0916 -0.2032
  141YOPS   C1A 1819   1.815   5.231   9.090 -0.1474 -0.2064 -0.1294
  141YOPS   D2A 1820   1.637   4.966   8.891  0.2262  0.2161  0.0839
  141YOPS   C3A 1821   1.615   4.957   8.451 -0.1991  0.3206  0.2833
  141YOPS   C4A 1822   1.521   4.726   8.016  0.0159 -0.1265 -0.2535
  141YOPS   C1B 1823   2.407   5.138   9.115 -0.0077 -0.1635 -0.1769
  141YOPS   C2B 1824   2.445   5.131   8.653  0.0251 -0.1887 -0.0543
  141YOPS   D3B 1825   2.640   5.118   8.229 -0.0757 -0.0222 -0.1578
  141YOPS   C4B 1826   2.782   5.310   7.928 -0.3215 -0.2520 -0.0167
  142YOPS   CNO 1827   8.092   1.952  11.241 -0.1136  0.1993 -0.0594
  142YOPS   PO4 1828   8.334   2.155  10.945  0.0265  0.3727 -0.1308
  142YOPS   GL1 1829   8.382   2.171  10.473 -0.0131 -0.0836 -0.0553
  142YOPS   GL2 1830   8.108   2.221  10.305  0.1596  0.0800 -0.1835
  142YOPS   C1A 1831   8.707   2.055  10.124 -0.1034  0.0548  0.2470
  142YOPS   D2A 1832   8.883   1.654   9.982  0.0233 -0.5293  0.0169
  142YOPS   C3A 1833   9.006   1.343   9.654  0.3139 -0.5219 -0.0074
  142YOPS   C4A 1834   8.793   1.396   9.300 -0.2020 -0.2281 -0.0227
  142YOPS   C1B 1835   8.293   2.250   9.911  0.0168  0.1523  0.0772
  142YOPS   C2B 1836   8.475   2.331   9.511  0.1280 -0.1103  0.0836
  142YOPS   D3B 1837   8.569   2.503   9.069  0.0186 -0.1674 -0.0395
  142YOPS   C4B 1838   8.294   2.707   8.826  0.1643 -0.2396  0.0187
  143YOPS   CNO 1839  15.239   3.240  10.046  0.2680  0.0147 -0.0137
  143YOPS   PO4 1840  15.405   3.667  10.029 -0.0813  0.2903 -0.0290
  143YOPS   GL1 1841  15.170   3.825   9.643  0.0177 -0.0523  0.1835
  143YOPS   GL2 1842  14.851   3.909   9.585  0.0532  0.3493  0.1036
  143YOPS   C1A 1843  15.350   4.076   9.381 -0.1145  0.1012 -0.0630
  143YOPS   D2A 1844  15.403   4.084   8.977  0.0335  0.0077  0.1467
  143YOPS   C3A 1845  15.377   4.079   8.454  0.2445 -0.3263  0.1675
  143YOPS   C4A 1846  15.280   4.476   8.181 -0.2814 -0.1451  0.1082
  143YOPS   C1B 1847  14.924   4.038   9.145 -0.3412 -0.1459 -0.0899
  143YOPS   C2B 1848  15.079   3.804   8.809  0.1583 -0.0142 -0.2468
  143YOPS   D3B 1849  15.084   3.630   8.393 -0.0201  0.1562  0.1979
  143YOPS   C4B 1850  14.826   3.673   8.091 -0.0492 -0.0891  0.2228
  144YOPS   CNO 1851  17.981  11.866  10.940  0.0618  0.0072 -0.1633
  144YOPS   PO4 1852  18.015  12.148  10.638  0.5600 -0.0173 -0.1177
  144YOPS   GL1 1853  18.320  12.246  10.221 -0.1227  0.0157  0.0052
  144YOPS   GL2 1854  18.599  12.414  10.142 -0.1278 -0.0924  0.0151
  144YOPS   C1A 1855  18.265  12.316   9.765 -0.0855 -0.3330 -0.4930
  144YOPS   D2A 1856  18.271  12.530   9.317 -0.0518  0.1132  0.0029
  144YOPS   C3A 1857  17.991  12.695   9.149 -0.0052  0.1140 -0.0792
  144YOPS   C4A 1858  17.831  12.992   9.338  0.0855 -0.0608  0.0731
  144YOPS   C1B 1859  18.766  12.646   9.808 -0.2166 -0.2543  0.4093
  144YOPS   C2B 1860  18.796  12.872   9.444 -0.2184  0.3380 -0.0523
  144YOPS   D3B 1861  18.913  13.095   9.121 -0.1869  0.2141  0.0816
  144YOPS   C4B 1862  18.667  13.290   8.979  0.0861 -0.0278 -0.3704
  145YOPS   CNO 1863   7.439  10.456  10.696 -0.1610 -0.0837 -0.0804
  145YOPS   PO4 1864   7.398  10.733  10.389  0.0905 -0.2792 -0.1109
  145YOPS   GL1 1865   7.367  10.609   9.917 -0.1752 -0.0186 -0.2568
  145YOPS   GL2 1866   7.737  10.615   9.797  0.0525  0.1234 -0.0584
  145YOPS   C1A 1867   7.454  10.613   9.401  0.2363  0.1717  0.1233
  145YOPS   D2A 1868   7.520  10.453   9.085  0.0504  0.0559 -0.1003
  145YOPS   C3A 1869   7.441  10.437   8.701  0.0268 -0.0505  0.1281
  145YOPS   C4A 1870   7.134  10.319   8.571  0.0667 -0.1031  0.0518
  145YOPS   C1B 1871   7.841  10.262   9.508 -0.1133 -0.0397 -0.3625
  145YOPS   C2B 1872   7.886  10.030   9.153  0.0870 -0.2809 -0.0490
  145YOPS   D3B 1873   7.739  10.069   8.801 -0.0098  0.1383 -0.0896
  145YOPS   C4B 1874   7.925   9.921   8.461 -0.1633  0.3004 -0.0220
  146YOPS   CNO 1875  15.773   7.475   9.816 -0.2269  0.0530 -0.0991
  146YOPS   PO4 1876  16.070   7.320   9.841 -0.1646 -0.2419  0.2168
  146YOPS   GL1 1877  16.041   7.160   9.462  0.6696  0.0714  0.1199
  146YOPS   GL2 1878  16.199   7.214   9.211 -0.1374  0.2701 -0.0848
  146YOPS   C1A 1879  15.738   7.085   9.077  0.0702  0.1247  0.2618
  146YOPS   D2A 1880  15.536   7.072   8.776  0.1433 -0.1132 -0.0145
  146YOPS   C3A 1881  15.445   7.072   8.369 -0.0741 -0.0438 -0.0419
  146YOPS   C4A 1882  15.082   7.262   8.295  0.1026  0.3150 -0.0766
  146YOPS   C1B 1883  16.122   7.178   8.799 -0.0680 -0.0205  0.0431
  146YOPS   C2B 1884  15.965   7.301   8.458  0.2947  0.0441  0.3267
  146YOPS   D3B 1885  15.847   7.102   8.085  0.3153 -0.1724  0.1689
  146YOPS   C4B 1886  15.576   7.333   7.747  0.0464  0.0826  0.2504
  147YOPS   CNO 1887   7.842   3.481  10.414 -0.1104  0.4670  0.1213
  147YOPS   PO4 1888   8.087   3.736  10.545  0.0363  0.2991  0.1408
  147YOPS   GL1 1889   8.088   3.852  10.070 -0.0473  0.0834 -0.0482
  147YOPS   GL2 1890   7.836   3.534   9.849 -0.1551  0.0837  0.1000
  147YOPS   C1A 1891   8.380   4.013   9.748  0.3185  0.0860 -0.2284
  147YOPS   D2A 1892   8.285   4.019   9.305  0.2982  0.0508  0.2145
  147YOPS   C3A 1893   7.872   4.118   9.182  0.1933 -0.1607  0.0813
  147YOPS   C4A 1894   7.723   4.086   8.897  0.1228 -0.0562 -0.1456
  147YOPS   C1B 1895   7.804   3.639   9.353  0.1465 -0.1147 -0.1554
  147YOPS   C2B 1896   7.841   3.532   9.060  0.2140  0.1500  0.2687
  147YOPS   D3B 1897   7.763   3.607   8.639  0.0175  0.1405 -0.4390
  147YOPS   C4B 1898   7.990   3.451   8.327  0.0763 -0.1840  0.2883
  148YOPS   CNO 1899  13.058   3.782  10.645  0.1354 -0.1309  0.1498
  148YOPS   PO4 1900  12.865   3.626  10.281  0.0365  0.3716  0.4298
  148YOPS   GL1 1901  12.979   3.663   9.788  0.1630 -0.1168 -0.0290
  148YOPS   GL2 1902  13.367   3.636   9.589  0.1191 -0.0985  0.2761
  148YOPS   C1A 1903  12.946   3.655   9.389 -0.0691 -0.0371  0.1980
  148YOPS   D2A 1904  13.032   3.569   8.966  0.0702  0.1613  0.1232
  148YOPS   C3A 1905  13.065   3.410   8.541  0.0183  0.1812  0.1968
  148YOPS   C4A 1906  12.983   3.671   8.061 -0.1129  0.0589 -0.0034
  148YOPS   C1B 1907  13.467   3.396   9.202  0.3536  0.0683  0.2712
  148YOPS   C2B 1908  13.555   3.314   8.778  0.1406  0.3148 -0.2686
  148YOPS   D3B 1909  13.537   3.185   8.429  0.0598  0.0434  0.1423
  148YOPS   C4B 1910  13.899   3.168   8.104  0.1250  0.2100  0.3545
  149YOPS   CNO 1911   3.117  12.700  10.362  0.0089  0.1189  0.1336
  149YOPS   PO4 1912   3.272  13.184  10.286  0.1004 -0.0100  0.2699
  149YOPS   GL1 1913   3.253  13.045   9.977  0.0076 -0.2207 -0.2854
  149YOPS   GL2 1914   3.419  12.856   9.916  0.0641 -0.0269 -0.0361
  149YOPS   C1A 1915   3.220  13.320   9.643 -0.3070 -0.0205  0.3590
  149YOPS   D2A 1916   3.015  13.715   9.297 -0.2580  0.0753  0.0307
  149YOPS   C3A 1917   2.742  14.069   9.135 -0.2608 -0.0042 -0.0704
  149YOPS   C4A 1918   3.054  14.389   9.105 -0.0489 -0.0301  0.0939
  149YOPS   C1B 1919   3.498  12.631   9.597 -0.1255  0.2422 -0.2282
  149YOPS   C2B 1920   3.389  12.655   9.080  0.2089 -0.3889  0.1113
  149YOPS   D3B 1921   3.354  12.581   8.579  0.2085  0.0561  0.0702
  149YOPS   C4B 1922   2.834  12.611   8.414  0.1425  0.0864 -0.2591
  150YOPS   CNO 1923  11.080  10.029  10.448  0.0222  0.0275  0.2893
  150YOPS   PO4 1924  11.047   9.678  10.219 -0.4186 -0.1458 -0.0675
  150YOPS   GL1 1925  10.996   9.857   9.828  0.2620 -0.0281  0.3153
  150YOPS   GL2 1926  10.655   9.744   9.718  0.1294  0.0481  0.2047
  150YOPS   C1A 1927  11.036   9.743   9.320 -0.0601  0.1295 -0.0228
  150YOPS   D2A 1928  10.975   9.810   8.966  0.1352 -0.1211  0.3184
  150YOPS   C3A 1929  10.935  10.017   8.545  0.1812  0.0329  0.2114
  150YOPS   C4A 1930  11.015  10.230   8.221  0.0450 -0.1089 -0.2061
  150YOPS   C1B 1931  10.622   9.981   9.229 -0.0260  0.0057 -0.1578
  150YOPS   C2B 1932  10.404  10.098   8.833  0.2527  0.2567  0.0755
  150YOPS   D3B 1933  10.467  10.136   8.411  0.0532 -0.2889 -0.0317
  150YOPS   C4B 1934  10.146  10.137   8.190  0.2364  0.3088  0.0737
  151YOPS   CNO 1935   2.057  14.148  10.493 -0.3029 -0.2568 -0.1983
  151YOPS   PO4 1936   1.916  13.839  10.739  0.1173 -0.0779 -0.3442
  151YOPS   GL1 1937   1.791  13.734  10.338 -0.0919 -0.0255  0.0681
  151YOPS   GL2 1938   1.549  13.975  10.345 -0.2133  0.1696 -0.2493
  151YOPS   C1A 1939   1.934  13.869   9.938 -0.2617  0.0716  0.1604
  151YOPS   D2A 1940   1.930  14.149   9.561 -0.1481 -0.2977 -0.1274
  151YOPS   C3A 1941   1.858  14.206   9.182 -0.1423  0.3930 -0.0265
  151YOPS   C4A 1942   1.670  14.509   9.135 -0.2436 -0.2198 -0.0102
  151YOPS   C1B 1943   1.671  14.351  10.140 -0.0966 -0.2884 -0.3169
  151YOPS   C2B 1944   1.768  14.630   9.817 -0.0291  0.3051  0.1231
  151YOPS   D3B 1945   2.013  14.775   9.534 -0.1520  0.0831  0.0291
  151YOPS   C4B 1946   1.977  14.927   9.138 -0.4125 -0.2383 -0.0114
  152YOPS   CNO 1947  13.662  13.246  10.880  0.2641  0.1756  0.0230
  152YOPS   PO4 1948  13.635  13.579  10.670 -0.0412 -0.0888  0.0705
  152YOPS   GL1 1949  13.784  13.253  10.395 -0.0147 -0.1288 -0.1360
  152YOPS   GL2 1950  13.907  13.018  10.465  0.2378  0.1418  0.0475
  152YOPS   C1A 1951  13.807  13.276   9.955 -0.1143  0.0370  0.1268
  152YOPS   D2A 1952  13.637  13.044   9.656 -0.0667  0.0205 -0.0883
  152YOPS   C3A 1953  13.635  12.966   9.287 -0.1118 -0.1010  0.1934
  152YOPS   C4A 1954  13.909  13.127   9.089 -0.1272  0.0915  0.1137
  152YOPS   C1B 1955  14.189  13.088  10.194 -0.2225 -0.0226 -0.1454
  152YOPS   C2B 1956  14.240  13.105   9.774  0.1803  0.0930  0.0592
  152YOPS   D3B 1957  14.398  13.152   9.323 -0.0794 -0.1035  0.0205
  152YOPS   C4B 1958  14.290  13.336   8.904  0.0741 -0.1814 -0.1427
  153YOPS   CNO 1959  17.711   0.130  10.712 -0.0855  0.3453  0.2373
  153YOPS   PO4 1960  17.647   0.336  10.282 -0.0875  0.0927  0.0030
  153YOPS   GL1 1961  17.664   0.170   9.989  0.0252  0.0037  0.0583
  153YOPS   GL2 1962  17.933   0.311   9.833  0.0140 -0.1741  0.1738
  153YOPS   C1A 1963  17.490   0.128   9.603 -0.0210  0.1364 -0.1881
  153YOPS   D2A 1964  17.393   0.044   9.169  0.0280 -0.0268  0.1237
  153YOPS   C3A 1965  17.500   0.134   8.749 -0.0454  0.2195  0.0549
  153YOPS   C4A 1966  17.291   0.521   8.495  0.0284 -0.0432  0.3428
  153YOPS   C1B 1967  18.026   0.176   9.429 -0.3305  0.1107 -0.2180
  153YOPS   C2B 1968  17.989   0.057   8.989  0.0959  0.4570 -0.0405
  153YOPS   D3B 1969  18.056  -0.209   8.646  0.1517  0.0191 -0.1939
  153YOPS   C4B 1970  17.918   0.124   8.422  0.0455  0.0176  0.2092
  154YOPS   CNO 1971   4.409   9.010  10.825  0.2617 -0.1376 -0.1423
  154YOPS   PO4 1972   4.445   9.311  10.437 -0.0575 -0.0017 -0.1111
  154YOPS   GL1 1973   4.486   9.494  10.042  0.1495 -0.0830 -0.0766
  154YOPS   GL2 1974   4.624   9.387   9.720 -0.1875  0.0846 -0.0562
  154YOPS   C1A 1975   4.720   9.889   9.891  0.1232 -0.3249  0.1702
  154YOPS   D2A 1976   5.021  10.068   9.690  0.4066 -0.0842  0.1054
  154YOPS   C3A 1977   5.164  10.406   9.657  0.1450  0.2068 -0.1243
  154YOPS   C4A 1978   5.602  10.276   9.676  0.2817 -0.0426 -0.0641
  154YOPS   C1B 1979   4.521   9.681   9.409 -0.1160  0.3614 -0.0400
  154YOPS   C2B 1980   4.538   9.737   8.948 -0.0713  0.2005 -0.0249
  154YOPS   D3B 1981   4.632   9.760   8.464 -0.1803  0.0887 -0.1259
  154YOPS   C4B 1982   4.738   9.489   8.375 -0.0784  0.1019  0.0810
  155YOPS   CNO 1983   4.645  14.429  10.417  0.0582 -0.2001 -0.1649
  155YOPS   PO4 1984   4.362  14.203  10.452 -0.3274  0.2344 -0.2822
  155YOPS   GL1 1985   4.362  14.017  10.057  0.2045  0.2266  0.1260
  155YOPS   GL2 1986   4.653  14.112   9.830  0.0944 -0.0511 -0.0106
  155YOPS   C1A 1987   4.325  13.978   9.528 -0.2774  0.2884  0.0113
  155YOPS   D2A 1988   4.361  13.872   9.000 -0.0707 -0.0774 -0.1741
  155YOPS   C3A 1989   4.209  13.932   8.636 -0.2822 -0.1179  0.0791
  155YOPS   C4A 1990   3.922  13.910   8.346 -0.0705  0.2895  0.2223
  155YOPS   C1B 1991   4.793  14.046   9.307  0.1207  0.1241  0.0655
  155YOPS   C2B 1992   4.998  13.914   8.922 -0.1075 -0.1525 -0.0284
  155YOPS   D3B 1993   5.118  13.875   8.529  0.2529  0.0951  0.0212
  155YOPS   C4B 1994   5.081  13.466   8.395 -0.2828  0.0139  0.2998
  156YOPS   CNO 1995  17.842   8.270   9.979 -0.2145  0.1075  0.0449
  156YOPS   PO4 1996  18.083   8.189   9.784  0.0963  0.1677  0.1368
  156YOPS   GL1 1997  18.273   8.311   9.411 -0.1408  0.2099  0.0397
  156YOPS   GL2 1998  18.576   8.533   9.413 -0.0227  0.0516  0.1603
  156YOPS   C1A 1999  18.346   8.226   8.969 -0.0231 -0.1111 -0.0632
  156YOPS   D2A 2000  18.483   8.096   8.602  0.0404 -0.0941  0.1417
  156YOPS   C3A 2001  18.330   8.179   8.120  0.0827 -0.0332  0.0040
  156YOPS   C4A 2002  18.367   7.935   7.786 -0.1435  0.1091  0.1481
  156YOPS   C1B 2003  18.889   8.368   9.041  0.0283  0.0191  0.1566
  156YOPS   C2B 2004  18.994   8.357   8.681 -0.2875  0.1011 -0.0894
  156YOPS   D3B 2005  18.807   8.388   8.290 -0.1504  0.0847 -0.3719
  156YOPS   C4B 2006  18.820   8.140   7.965  0.1260 -0.5612  0.1731
  157YOPS   CNO 2007  11.987   9.645   9.847  0.3178 -0.0685  0.3157
  157YOPS   PO4 2008  11.649   9.298   9.724  0.1216  0.0053 -0.0662
  157YOPS   GL1 2009  11.424   9.459   9.370  0.2884  0.1039  0.3019
  157YOPS   GL2 2010  11.595   9.664   9.428 -0.2668 -0.2703  0.0650
  157YOPS   C1A 2011  11.318   9.439   9.027 -0.2771 -0.3843  0.1139
  157YOPS   D2A 2012  11.202   9.536   8.672  0.2871  0.2515 -0.4779
  157YOPS   C3A 2013  11.315   9.668   8.269  0.0930 -0.0506  0.1433
  157YOPS   C4A 2014  11.508   9.694   7.991 -0.2095  0.3933 -0.0719
  157YOPS   C1B 2015  11.468   9.886   9.108 -0.0383  0.0394  0.4437
  157YOPS   C2B 2016  11.437   9.974   8.710 -0.1048 -0.2129  0.0376
  157YOPS   D3B 2017  11.474  10.256   8.345 -0.2231  0.2945  0.3646
  157YOPS   C4B 2018  11.771  10.171   8.077  0.1921  0.2225 -0.0217
  158YOPS   CNO 2019   3.177  10.910  10.371 -0.0332  0.1570 -0.1504
  158YOPS   PO4 2020   3.472  11.112  10.642  0.0469  0.0323 -0.0559
  158YOPS   GL1 2021   3.568  11.259  10.258 -0.1349 -0.1348 -0.0844
  158YOPS   GL2 2022   3.320  11.415  10.233 -0.1372  0.1167 -0.1284
  158YOPS   C1A 2023   3.599  11.069   9.874 -0.1520 -0.0443  0.0403
  158YOPS   D2A 2024   3.420  10.745   9.671 -0.0142 -0.6378  0.1581
  158YOPS   C3A 2025   3.415  10.447   9.510  0.0419  0.2516 -0.2284
  158YOPS   C4A 2026   3.511  10.226   9.221  0.1643 -0.1137  0.0863
  158YOPS   C1B 2027   3.101  11.490   9.745  0.3094  0.0141 -0.2837
  158YOPS   C2B 2028   3.098  11.417   9.242 -0.3017  0.1557  0.1209
  158YOPS   D3B 2029   3.398  11.339   8.976  0.1180  0.0828  0.3830
  158YOPS   C4B 2030   3.303  11.391   8.557  0.3162 -0.0352 -0.1356
  159YOPS   CNO 2031  16.007  12.764  10.969  0.0152 -0.1920 -0.0138
  159YOPS   PO4 2032  16.385  12.917  10.857 -0.1852  0.4446 -0.2815
  159YOPS   GL1 2033  16.514  12.645  10.503  0.1282 -0.0582 -0.0816
  159YOPS   GL2 2034  16.308  12.488  10.484  0.1723  0.2258  0.0145
  159YOPS   C1A 2035  16.717  12.879  10.181 -0.2586  0.0610 -0.0081
  159YOPS   D2A 2036  17.037  12.684  10.004  0.1104 -0.4116 -0.0127
  159YOPS   C3A 2037  17.045  12.631   9.584  0.4131  0.0916 -0.2064
  159YOPS   C4A 2038  16.640  12.472   9.478  0.0190  0.2276 -0.1678
  159YOPS   C1B 2039  16.029  12.362  10.149  0.1483  0.5424  0.2931
  159YOPS   C2B 2040  16.123  12.419   9.684  0.0601 -0.0865 -0.1739
  159YOPS   D3B 2041  16.033  12.389   9.133 -0.1877 -0.1141  0.2518
  159YOPS   C4B 2042  15.624  12.347   9.130  0.0830 -0.0249 -0.3591
  160YOPS   CNO 2043   9.111  12.531  10.693 -0.0140  0.2796 -0.0525
  160YOPS   PO4 2044   9.398  12.826  10.455  0.0902 -0.0166  0.1235
  160YOPS   GL1 2045   9.367  13.135  10.173 -0.1352 -0.0388 -0.0167
  160YOPS   GL2 2046   9.712  13.159  10.212 -0.1039  0.1729  0.0142
  160YOPS   C1A 2047   9.325  13.309   9.759 -0.3102  0.0785 -0.0769
  160YOPS   D2A 2048   9.439  13.608   9.459 -0.1292 -0.2212  0.1942
  160YOPS   C3A 2049   9.547  13.844   9.017 -0.0594 -0.0197 -0.1375
  160YOPS   C4A 2050   9.617  14.315   8.960  0.1596 -0.1926 -0.0439
  160YOPS   C1B 2051   9.782  12.983   9.840 -0.1197 -0.0198  0.3414
  160YOPS   C2B 2052   9.677  13.117   9.506 -0.4572  0.0462  0.0555
  160YOPS   D3B 2053   9.734  13.103   8.994 -0.1004  0.1037 -0.1590
  160YOPS   C4B 2054   9.908  12.712   8.716  0.0062  0.0317 -0.2685
  161YOPS   CNO 2055  10.664   3.962  10.665  0.0695 -0.0219 -0.0473
  161YOPS   PO4 2056  10.392   3.839  10.319  0.1700 -0.1791 -0.1340
  161YOPS   GL1 2057  10.213   3.818   9.930  0.0920 -0.0462 -0.2077
  161YOPS   GL2 2058   9.933   3.645   9.990  0.0994 -0.2747  0.0031
  161YOPS   C1A 2059  10.203   3.836   9.491 -0.0242  0.0992  0.0918
  161YOPS   D2A 2060  10.480   3.872   9.156  0.3030 -0.0101 -0.2177
  161YOPS   C3A 2061  10.728   3.886   8.788  0.2791 -0.1963 -0.0178
  161YOPS   C4A 2062  11.159   3.911   8.918 -0.0699 -0.2075 -0.0215
  161YOPS   C1B 2063   9.770   3.883   9.676 -0.0573 -0.0852 -0.1858
  161YOPS   C2B 2064   9.746   3.967   9.269 -0.0045  0.2612  0.1838
  161YOPS   D3B 2065   9.886   3.798   8.987  0.1300  0.2968  0.0976
  161YOPS   C4B 2066   9.993   4.166   8.675  0.2261  0.1238  0.0915
  162YOPS   CNO 2067  10.442   9.116   9.676 -0.2593 -0.1211 -0.2810
  162YOPS   PO4 2068  10.138   9.244  10.039 -0.2900  0.1188  0.2574
  162YOPS   GL1 2069   9.748   9.176   9.784 -0.2861  0.3672 -0.0439
  162YOPS   GL2 2070   9.728   9.462   9.654  0.0004 -0.0873  0.3355
  162YOPS   C1A 2071   9.659   8.918   9.414  0.0871  0.1985 -0.0557
  162YOPS   D2A 2072   9.393   8.796   9.068  0.0218 -0.0619 -0.3001
  162YOPS   C3A 2073   8.900   8.650   9.060 -0.0650 -0.0724 -0.1673
  162YOPS   C4A 2074   8.837   8.289   8.783  0.0061  0.0696 -0.0411
  162YOPS   C1B 2075   9.963   9.292   9.272  0.1596 -0.2260  0.0639
  162YOPS   C2B 2076   9.797   9.013   8.882  0.1239  0.3846  0.2898
  162YOPS   D3B 2077   9.541   8.805   8.626 -0.0327  0.4571  0.1429
  162YOPS   C4B 2078   9.099   8.841   8.603  0.2847 -0.1199  0.1865
  163YOPS   CNO 2079  12.053   5.829  10.649  0.0495  0.3029 -0.1935
  163YOPS   PO4 2080  11.752   5.493  10.495 -0.1294 -0.1525 -0.0915
  163YOPS   GL1 2081  11.816   5.512  10.040 -0.1236  0.0444  0.0445
  163YOPS   GL2 2082  12.055   5.655  10.084  0.0527  0.0425 -0.1392
  163YOPS   C1A 2083  11.838   5.237   9.619 -0.2018 -0.1200 -0.1138
  163YOPS   D2A 2084  11.665   5.204   9.268  0.2407  0.1119  0.0869
  163YOPS   C3A 2085  11.680   5.083   8.843  0.0334 -0.0180 -0.0431
  163YOPS   C4A 2086  11.389   4.743   8.672  0.1222 -0.1246 -0.0044
  163YOPS   C1B 2087  12.080   5.681   9.634 -0.1017  0.0545 -0.0816
  163YOPS   C2B 2088  12.324   5.889   9.370 -0.2014 -0.2536  0.4462
  163YOPS   D3B 2089  12.546   5.992   9.121  0.1495 -0.0753  0.1575
  163YOPS   C4B 2090  12.556   5.674   8.836 -0.3531 -0.1173 -0.4565
  164YOPS   CNO 2091   5.917   7.059  10.473  0.1047  0.2096 -0.2152
  164YOPS   PO4 2092   5.546   7.197  10.385  0.3712 -0.1969 -0.0640
  164YOPS   GL1 2093   5.652   7.230   9.989 -0.2827 -0.1916  0.1325
  164YOPS   GL2 2094   5.992   7.434   9.886 -0.1180 -0.2630 -0.1474
  164YOPS   C1A 2095   5.534   6.963   9.636  0.1315  0.2952  0.1049
  164YOPS   D2A 2096   5.602   6.681   9.378  0.1220 -0.1612 -0.2473
  164YOPS   C3A 2097   5.601   6.283   9.074 -0.2820 -0.1005  0.0191
  164YOPS   C4A 2098   5.426   6.436   8.698  0.1450 -0.0525  0.0882
  164YOPS   C1B 2099   5.783   7.439   9.440  0.0891  0.1584  0.2009
  164YOPS   C2B 2100   5.920   7.634   9.094  0.2038 -0.0614  0.1046
  164YOPS   D3B 2101   5.898   7.556   8.660 -0.1885  0.1546 -0.1041
  164YOPS   C4B 2102   6.213   7.642   8.388  0.1453 -0.0472  0.0500
  165YOPS   CNO 2103  15.665  11.262  10.051 -0.2694  0.0092  0.1003
  165YOPS   PO4 2104  15.404  10.929  10.331 -0.1980 -0.1632  0.1374
  165YOPS   GL1 2105  15.450  10.858   9.864 -0.0949  0.2295 -0.0952
  165YOPS   GL2 2106  15.309  11.198   9.722 -0.2399 -0.1466  0.1434
  165YOPS   C1A 2107  15.530  10.844   9.407 -0.0876 -0.0154 -0.1797
  165YOPS   D2A 2108  15.765  10.830   9.152  0.1540  0.1793  0.5130
  165YOPS   C3A 2109  15.845  10.923   8.720 -0.1597 -0.0638 -0.0120
  165YOPS   C4A 2110  16.333  10.819   8.703  0.4261  0.1909 -0.1201
  165YOPS   C1B 2111  15.203  11.219   9.278 -0.2502 -0.1613 -0.0451
  165YOPS   C2B 2112  15.015  11.416   8.982  0.1174 -0.0064  0.1820
  165YOPS   D3B 2113  14.755  11.628   8.800  0.1053  0.0420 -0.1645
  165YOPS   C4B 2114  14.981  11.868   8.659 -0.2708  0.0983 -0.2188
  166YOPS   CNO 2115   7.480   2.334  10.816 -0.3642  0.1174  0.1334
  166YOPS   PO4 2116   7.356   1.878  10.752 -0.0718 -0.1566 -0.1866
  166YOPS   GL1 2117   7.403   1.807  10.338 -0.0827 -0.0940  0.2256
  166YOPS   GL2 2118   7.658   1.742  10.353 -0.1959  0.2222  0.0077
  166YOPS   C1A 2119   7.340   2.142   9.943  0.0020 -0.0297 -0.0085
  166YOPS   D2A 2120   7.410   2.250   9.540  0.0254  0.1146 -0.1833
  166YOPS   C3A 2121   7.659   2.200   9.138 -0.1670 -0.5911  0.2425
  166YOPS   C4A 2122   7.456   1.996   8.856  0.3388 -0.2994 -0.1897
  166YOPS   C1B 2123   7.828   1.922   9.944 -0.1197 -0.0212  0.1597
  166YOPS   C2B 2124   7.989   2.055   9.463 -0.0099 -0.2794 -0.1865
  166YOPS   D3B 2125   8.149   2.116   9.039  0.0514 -0.2594 -0.1954
  166YOPS   C4B 2126   7.925   2.071   8.698  0.0593  0.0388  0.2464
  167YOPS   CNO 2127  14.393   4.788   9.828  0.2453  0.2915 -0.0860
  167YOPS   PO4 2128  14.494   5.135  10.051  0.0589  0.2344  0.0800
  167YOPS   GL1 2129  14.388   5.294   9.794  0.3558  0.2651  0.0981
  167YOPS   GL2 2130  14.638   5.410   9.581  0.0835  0.0768  0.1200
  167YOPS   C1A 2131  14.119   5.069   9.442  0.0674 -0.2235 -0.0439
  167YOPS   D2A 2132  14.099   4.919   8.993  0.1301  0.1286 -0.0301
  167YOPS   C3A 2133  13.845   4.747   8.652  0.0476  0.1101 -0.1982
  167YOPS   C4A 2134  13.894   4.604   8.210 -0.1760  0.2786 -0.0493
  167YOPS   C1B 2135  14.388   5.521   9.278 -0.1585  0.3140  0.2911
  167YOPS   C2B 2136  14.055   5.450   8.941  0.2610  0.4434 -0.3056
  167YOPS   D3B 2137  13.768   5.613   8.766 -0.0721 -0.1887 -0.2945
  167YOPS   C4B 2138  13.783   5.628   8.289  0.1017  0.0995  0.0875
  168POPE   NH3 2139   2.994   2.916  10.826 -0.0553  0.3962  0.0331
  168POPE   PO4 2140   2.819   3.182  10.487 -0.0544 -0.0601 -0.0353
  168POPE   GL1 2141   2.790   3.023  10.043 -0.0167  0.1618  0.0215
  168POPE   GL2 2142   2.975   2.846   9.878 -0.0549  0.0928 -0.0318
  168POPE   C1A 2143   2.449   2.893   9.766  0.2131  0.0156 -0.2227
  168POPE   D2A 2144   2.624   2.856   9.315  0.1368  0.1456 -0.0711
  168POPE   C3A 2145   2.470   2.836   8.890  0.0432 -0.1375  0.1122
  168POPE   C4A 2146   2.725   2.992   8.512  0.0897  0.0996  0.0841
  168POPE   C1B 2147   3.010   2.583   9.577 -0.4298 -0.1799 -0.4698
  168POPE   C2B 2148   3.085   2.535   9.216 -0.1348 -0.0189 -0.2252
  168POPE   C3B 2149   3.117   2.254   8.875 -0.3943  0.0553 -0.0364
  168POPE   C4B 2150   3.027   2.131   8.387  0.2027 -0.0494  0.3147
  169POPE   NH3 2151   4.080  10.928  10.630  0.1140  0.1533  0.2023
  169POPE   PO4 2152   4.049  11.380  10.461  0.1813  0.0178 -0.0517
  169POPE   GL1 2153   4.073  11.133  10.045  0.1381  0.1511 -0.0699
  169POPE   GL2 2154   4.267  10.891  10.173 -0.0526  0.0382  0.1418
  169POPE   C1A 2155   4.031  11.129   9.611 -0.0018  0.2661  0.1136
  169POPE   D2A 2156   4.063  11.212   9.286  0.3138 -0.0373  0.0796
  169POPE   C3A 2157   3.899  11.225   8.996 -0.2980  0.0415  0.0520
  169POPE   C4A 2158   3.693  11.032   8.676 -0.1573 -0.4642  0.0610
  169POPE   C1B 2159   4.393  10.817   9.743 -0.0475  0.2085  0.1984
  169POPE   C2B 2160   4.517  10.998   9.333 -0.0633  0.0577 -0.1494
  169POPE   C3B 2161   4.382  11.097   8.889  0.0997 -0.1336  0.0680
  169POPE   C4B 2162   4.269  11.202   8.562 -0.2406 -0.6094  0.1177
  170POPE   NH3 2163   9.144   7.413  10.302 -0.0773  0.0051  0.2892
  170POPE   PO4 2164   9.403   7.833  10.328 -0.0126 -0.1777 -0.0549
  170POPE   GL1 2165   9.454   7.632   9.885  0.1786 -0.1524  0.2498
  170POPE   GL2 2166   9.127   7.562   9.692 -0.2493 -0.1468 -0.0118
  170POPE   C1A 2167   9.475   7.765   9.434 -0.1778  0.0191  0.0743
  170POPE   D2A 2168   9.342   7.704   9.065  0.0892 -0.3843 -0.1064
  170POPE   C3A 2169   9.012   7.660   8.746 -0.1364  0.2044  0.3030
  170POPE   C4A 2170   8.797   7.670   8.333 -0.0923  0.2627  0.0287
  170POPE   C1B 2171   8.867   7.477   9.373 -0.2768  0.0454 -0.0361
  170POPE   C2B 2172   8.682   7.376   8.997 -0.2722  0.2925 -0.0600
  170POPE   C3B 2173   8.605   7.276   8.553  0.2848  0.5568 -0.0587
  170POPE   C4B 2174   8.599   7.004   8.230 -0.1738  0.0169  0.0107
  171POPE   NH3 2175  15.687  10.466  10.217 -0.1636  0.2482 -0.0121
  171POPE   PO4 2176  15.724  10.066  10.230 -0.2149 -0.0748  0.0851
  171POPE   GL1 2177  15.653  10.116   9.762  0.1746 -0.0584  0.0136
  171POPE   GL2 2178  15.492   9.869   9.442  0.1700 -0.0383  0.2127
  171POPE   C1A 2179  15.733  10.345   9.394  0.1136 -0.0963  0.0782
  171POPE   D2A 2180  15.647  10.192   9.092 -0.2346  0.0242  0.2700
  171POPE   C3A 2181  15.739  10.444   8.788 -0.3011 -0.1322 -0.4426
  171POPE   C4A 2182  16.091  10.395   8.521 -0.3016 -0.2846 -0.2182
  171POPE   C1B 2183  15.655   9.721   8.981 -0.0724 -0.1824  0.2655
  171POPE   C2B 2184  15.776   9.759   8.574 -0.1945  0.3986  0.1342
  171POPE   C3B 2185  15.673  10.189   8.357 -0.1326  0.1062 -0.0750
  171POPE   C4B 2186  15.397  10.507   8.235  0.1892  0.0915 -0.0794
  172POPE   NH3 2187   7.294   7.814  10.635 -0.1756 -0.0879  0.3711
  172POPE   PO4 2188   7.017   8.221  10.589  0.1658 -0.1302 -0.1241
  172POPE   GL1 2189   7.114   8.239  10.195  0.1145  0.0569 -0.0471
  172POPE   GL2 2190   6.848   8.162  10.028 -0.2389  0.1071 -0.1971
  172POPE   C1A 2191   7.350   8.085   9.801  0.0133 -0.0816  0.1006
  172POPE   D2A 2192   7.215   8.101   9.344 -0.3697  0.2475  0.2411
  172POPE   C3A 2193   7.426   8.112   9.001  0.2078 -0.3172 -0.2360
  172POPE   C4A 2194   7.510   8.199   8.547 -0.1866  0.1785  0.2173
  172POPE   C1B 2195   6.814   8.080   9.654 -0.1010 -0.1587  0.1171
  172POPE   C2B 2196   6.666   8.041   9.231 -0.0406  0.1049 -0.1595
  172POPE   C3B 2197   6.893   8.094   8.906  0.1308 -0.0272 -0.0794
  172POPE   C4B 2198   7.041   8.164   8.449  0.2653 -0.1270 -0.2524
  173POPE   NH3 2199   2.406   2.831  10.395  0.0536 -0.2343  0.1383
  173POPE   PO4 2200   1.934   3.038  10.238 -0.0978 -0.1280 -0.2931
  173POPE   GL1 2201   1.756   3.192   9.810 -0.1135  0.0029 -0.2343
  173POPE   GL2 2202   1.535   2.931   9.664  0.0545  0.0947  0.0969
  173POPE   C1A 2203   1.606   3.310   9.339 -0.1649 -0.1524  0.1590
  173POPE   D2A 2204   1.596   3.234   8.859  0.0972 -0.0661 -0.0068
  173POPE   C3A 2205   1.752   3.268   8.492 -0.2589 -0.0550 -0.0043
  173POPE   C4A 2206   1.452   3.378   8.115 -0.1303 -0.0147 -0.0201
  173POPE   C1B 2207   1.712   2.814   9.147 -0.1526 -0.0039 -0.0051
  173POPE   C2B 2208   1.816   2.778   8.708  0.1669 -0.0196  0.2799
  173POPE   C3B 2209   1.727   2.811   8.345  0.1139  0.1153 -0.1031
  173POPE   C4B 2210   1.998   2.950   8.014  0.2743 -0.2064 -0.0752
  174POPE   NH3 2211  14.622   8.177   9.755 -0.1310  0.1104  0.2242
  174POPE   PO4 2212  14.422   7.710   9.813  0.0550 -0.0652  0.1981
  174POPE   GL1 2213  14.488   7.907   9.369 -0.4722  0.0800  0.1280
  174POPE   GL2 2214  14.785   7.902   9.295  0.1148 -0.0752  0.1645
  174POPE   C1A 2215  14.483   7.902   8.916 -0.0405  0.1518 -0.1940
  174POPE   D2A 2216  14.659   7.924   8.613  0.2650  0.0575 -0.0687
  174POPE   C3A 2217  14.453   7.802   8.297 -0.1203 -0.0708 -0.1338
  174POPE   C4A 2218  14.420   7.950   7.779 -0.3487 -0.1611 -0.3646
  174POPE   C1B 2219  14.967   8.066   8.955 -0.0509 -0.1044  0.0299
  174POPE   C2B 2220  15.191   8.263   8.557 -0.0913  0.0606  0.0221
  174POPE   C3B 2221  15.548   8.181   8.279  0.0319 -0.1476  0.1319
  174POPE   C4B 2222  15.984   8.202   8.054 -0.0753  0.1217  0.0452
  175POPE   NH3 2223   3.015   6.515   9.803 -0.1493 -0.1052 -0.3738
  175POPE   PO4 2224   2.510   6.401   9.885  0.1106  0.0187  0.1126
  175POPE   GL1 2225   2.398   6.330   9.480 -0.0020  0.3433  0.3201
  175POPE   GL2 2226   2.661   6.543   9.430 -0.0422 -0.0852 -0.0132
  175POPE   C1A 2227   2.324   6.581   9.062 -0.1564 -0.0226 -0.1102
  175POPE   D2A 2228   2.322   6.732   8.654  0.0660  0.0798 -0.0564
  175POPE   C3A 2229   2.161   6.953   8.280  0.1367  0.0752 -0.1732
  175POPE   C4A 2230   1.887   6.707   8.051  0.3191  0.3925 -0.1399
  175POPE   C1B 2231   2.956   6.668   9.193 -0.0107  0.0672  0.3117
  175POPE   C2B 2232   3.085   7.145   9.129  0.2544  0.2130 -0.1806
  175POPE   C3B 2233   2.825   7.446   8.915 -0.0567  0.1053  0.1992
  175POPE   C4B 2234   2.855   7.648   8.577  0.2721 -0.1065 -0.1714
  176POPE   NH3 2235  11.151  14.799  10.609  0.0972  0.0298 -0.3098
  176POPE   PO4 2236  10.854  14.849  10.320  0.1689 -0.0614  0.1849
  176POPE   GL1 2237  10.797  14.784   9.917 -0.0468 -0.2045  0.0484
  176POPE   GL2 2238  10.650  14.998   9.788  0.1692 -0.2782 -0.0841
  176POPE   C1A 2239  11.025  14.775   9.561  0.1230 -0.0967 -0.0648
  176POPE   D2A 2240  11.166  14.739   9.182 -0.2597 -0.0138 -0.1576
  176POPE   C3A 2241  11.160  15.053   8.891 -0.0872  0.0545 -0.3042
  176POPE   C4A 2242  11.323  15.183   8.475 -0.3361 -0.0391  0.0013
  176POPE   C1B 2243  10.384  14.866   9.535  0.0512  0.0661  0.0253
  176POPE   C2B 2244  10.197  15.068   9.166 -0.1903 -0.2680 -0.0724
  176POPE   C3B 2245  10.132  14.950   8.704  0.1537 -0.1555  0.1216
  176POPE   C4B 2246   9.907  14.681   8.478  0.2455 -0.1788 -0.0842
  177POPE   NH3 2247  15.567  17.735  10.142  0.2570  0.2521 -0.1884
  177POPE   PO4 2248  15.166  17.662  10.236 -0.1831 -0.1838  0.0851
  177POPE   GL1 2249  15.117  17.729   9.855 -0.1797 -0.1770  0.0337
  177POPE   GL2 2250  14.840  17.604   9.815  0.1847  0.1452 -0.1163
  177POPE   C1A 2251  15.222  17.412   9.550 -0.1508  0.1904  0.0163
  177POPE   D2A 2252  15.195  17.297   9.125  0.1923  0.0350 -0.0869
  177POPE   C3A 2253  14.973  16.998   8.900 -0.1626 -0.0435  0.0439
  177POPE   C4A 2254  14.672  16.973   8.588  0.1079  0.2274  0.0073
  177POPE   C1B 2255  14.595  17.401   9.491 -0.1022  0.2171 -0.0216
  177POPE   C2B 2256  14.699  17.430   9.126 -0.1789 -0.3097  0.2430
  177POPE   C3B 2257  14.807  17.469   8.651  0.2476  0.1068  0.0857
  177POPE   C4B 2258  14.740  17.635   8.280  0.0320 -0.0873 -0.0084
  178POPE   NH3 2259  17.491   1.189  10.027  0.0795  0.0533  0.2815
  178POPE   PO4 2260  17.318   1.457   9.760 -0.1252  0.1856  0.0883
  178POPE   GL1 2261  17.150   1.422   9.403 -0.2626  0.0641 -0.0250
  178POPE   GL2 2262  17.147   1.759   9.266 -0.1357 -0.3899 -0.2325
  178POPE   C1A 2263  17.184   1.392   8.946 -0.0785  0.0730 -0.0210
  178POPE   D2A 2264  17.267   1.596   8.669 -0.2408  0.2316 -0.0413
  178POPE   C3A 2265  17.127   1.637   8.337 -0.1985 -0.1019  0.2148
  178POPE   C4A 2266  17.135   1.813   7.954 -0.3782 -0.1298 -0.0743
  178POPE   C1B 2267  16.849   1.741   9.025 -0.2268  0.1031  0.0228
  178POPE   C2B 2268  16.765   1.904   8.577  0.0052  0.0481 -0.0359
  178POPE   C3B 2269  16.563   2.250   8.405 -0.0023  0.3180 -0.1417
  178POPE   C4B 2270  16.616   2.553   8.016  0.0210 -0.0079 -0.1383
  179POPE   NH3 2271  13.217  16.762  10.664  0.2039  0.0525 -0.2782
  179POPE   PO4 2272  13.112  17.258  10.625  0.1025  0.3263  0.0526
  179POPE   GL1 2273  12.894  17.369  10.292  0.3411 -0.1026 -0.2974
  179POPE   GL2 2274  12.501  17.152  10.140 -0.1661  0.0266  0.0174
  179POPE   C1A 2275  12.676  17.657   9.885 -0.3069  0.0039 -0.0590
  179POPE   D2A 2276  12.783  17.844   9.592 -0.3533  0.0051  0.2129
  179POPE   C3A 2277  12.611  17.814   9.176  0.0149  0.2742  0.0492
  179POPE   C4A 2278  12.757  17.566   8.784 -0.2940  0.2035  0.0226
  179POPE   C1B 2279  12.598  17.205   9.658  0.0132  0.0039  0.1201
  179POPE   C2B 2280  12.374  17.412   9.324  0.1632  0.1179 -0.0555
  179POPE   C3B 2281  12.253  17.679   8.898  0.0023  0.1478 -0.2534
  179POPE   C4B 2282  12.316  18.191   8.841 -0.1928  0.0178 -0.0532
  180POPE   NH3 2283   8.636  12.412  10.470 -0.0229 -0.2765  0.0319
  180POPE   PO4 2284   8.713  12.029  10.251 -0.0578  0.1668 -0.0991
  180POPE   GL1 2285   9.128  12.077   9.957  0.2345 -0.0359 -0.2966
  180POPE   GL2 2286   9.418  11.999  10.067 -0.2288 -0.4019 -0.2739
  180POPE   C1A 2287   9.268  12.342   9.709 -0.2107 -0.3726  0.2036
  180POPE   D2A 2288   9.670  12.600   9.600 -0.0891  0.0149 -0.2009
  180POPE   C3A 2289   9.766  12.515   9.260 -0.1193 -0.3803 -0.2142
  180POPE   C4A 2290  10.111  12.376   9.038 -0.3358  0.0048  0.0052
  180POPE   C1B 2291   9.640  12.054   9.651 -0.1420  0.3093 -0.0797
  180POPE   C2B 2292   9.637  12.065   9.184  0.1816  0.1674 -0.0216
  180POPE   C3B 2293   9.593  12.285   8.842 -0.0432 -0.0415 -0.0347
  180POPE   C4B 2294   9.761  12.370   8.425 -0.1140  0.2203 -0.0470
  181POPE   NH3 2295  16.179   2.972   9.817  0.0721  0.0667  0.0979
  181POPE   PO4 2296  16.053   2.644   9.938  0.2828 -0.0490 -0.0482
  181POPE   GL1 2297  15.826   2.700   9.535 -0.2020  0.0944  0.0208
  181POPE   GL2 2298  15.794   2.953   9.435  0.0021 -0.3692  0.1702
  181POPE   C1A 2299  15.800   2.431   9.188  0.0688 -0.1419  0.1029
  181POPE   D2A 2300  15.794   2.478   8.722 -0.2053  0.1824  0.4213
  181POPE   C3A 2301  15.716   2.669   8.339 -0.2648  0.3561  0.0491
  181POPE   C4A 2302  15.493   2.771   8.004  0.1865 -0.0359 -0.1841
  181POPE   C1B 2303  15.680   2.937   9.100 -0.0561  0.1572 -0.0544
  181POPE   C2B 2304  15.513   2.921   8.741 -0.2356  0.2322  0.0916
  181POPE   C3B 2305  15.194   3.090   8.461  0.0190 -0.1237  0.2550
  181POPE   C4B 2306  15.259   3.347   8.036  0.0884  0.1903 -0.0681
  182POPE   NH3 2307  15.762   3.306  10.048  0.1908 -0.1298 -0.0607
  182POPE   PO4 2308  16.038   3.434   9.668 -0.5404  0.2421  0.0449
  182POPE   GL1 2309  16.144   3.405   9.203  0.0223  0.0413 -0.1590
  182POPE   GL2 2310  16.285   3.101   9.350  0.0341  0.0349  0.3344
  182POPE   C1A 2311  16.036   3.111   8.829  0.1702 -0.2525  0.0665
  182POPE   D2A 2312  15.870   3.150   8.401  0.0187  0.0203 -0.2574
  182POPE   C3A 2313  15.865   3.143   8.047 -0.3353  0.1327 -0.2604
  182POPE   C4A 2314  15.708   3.319   7.708 -0.0812  0.1389  0.0596
  182POPE   C1B 2315  16.542   3.200   8.937  0.2872 -0.4933  0.0060
  182POPE   C2B 2316  16.515   3.162   8.553  0.0549  0.2164 -0.0754
  182POPE   C3B 2317  16.337   3.023   8.183  0.1005 -0.2257 -0.2173
  182POPE   C4B 2318  16.192   2.741   8.060  0.0141  0.0815  0.0059
  183POPE   NH3 2319  16.904  10.732  10.443 -0.4261  0.3094 -0.1805
  183POPE   PO4 2320  17.031  10.349  10.331  0.1364  0.1465 -0.0899
  183POPE   GL1 2321  16.936  10.405   9.903 -0.0899  0.2118  0.3491
  183POPE   GL2 2322  17.275  10.343   9.864  0.0947 -0.0713 -0.3561
  183POPE   C1A 2323  16.747  10.749   9.558  0.0419 -0.2713 -0.0812
  183POPE   D2A 2324  16.760  11.048   9.247  0.4554  0.0329  0.0269
  183POPE   C3A 2325  16.318  11.132   9.206 -0.1993 -0.2402  0.1716
  183POPE   C4A 2326  16.070  11.428   8.894  0.3133  0.3594 -0.1473
  183POPE   C1B 2327  17.052  10.223   9.488 -0.1661  0.2494  0.0786
  183POPE   C2B 2328  17.147  10.250   9.153 -0.0969 -0.0767  0.0256
  183POPE   C3B 2329  17.158  10.260   8.697  0.2042 -0.0277  0.2697
  183POPE   C4B 2330  17.100  10.542   8.382  0.1128  0.0229  0.2627
  184POPE   NH3 2331   1.227  16.266  10.559 -0.0060  0.0457  0.2012
  184POPE   PO4 2332   0.833  16.090  10.536 -0.2807  0.5359 -0.1601
  184POPE   GL1 2333   0.722  15.940  10.198  0.0613 -0.0722  0.2312
  184POPE   GL2 2334   0.795  15.623  10.218 -0.1267  0.1253  0.2703
  184POPE   C1A 2335   0.661  16.043   9.801  0.1097 -0.1266  0.0703
  184POPE   D2A 2336   0.799  15.873   9.397  0.1258 -0.2665 -0.0047
  184POPE   C3A 2337   0.620  16.014   9.000 -0.0548 -0.1857  0.3228
  184POPE   C4A 2338   0.835  16.220   8.694 -0.2288 -0.2735 -0.0339
  184POPE   C1B 2339   0.722  15.472   9.827  0.0607 -0.1343 -0.0318
  184POPE   C2B 2340   0.641  15.428   9.504 -0.0123 -0.0415 -0.2731
  184POPE   C3B 2341   0.580  15.532   9.099  0.0725 -0.1537  0.0629
  184POPE   C4B 2342   0.466  15.333   8.803  0.4632  0.2603  0.2628
  185POPE   NH3 2343   1.470   5.907   9.726  0.0417  0.0935  0.0261
  185POPE   PO4 2344   1.082   5.712   9.929  0.1530  0.3129 -0.0055
  185POPE   GL1 2345   1.146   5.728   9.414  0.0502  0.4480 -0.2437
  185POPE   GL2 2346   0.898   5.584   9.296 -0.0831 -0.1363  0.6021
  185POPE   C1A 2347   1.142   5.923   8.944 -0.1186 -0.4856 -0.0284
  185POPE   D2A 2348   1.413   6.171   8.795 -0.0405  0.4489 -0.1021
  185POPE   C3A 2349   1.712   6.137   8.450  0.5080  0.0206 -0.0928
  185POPE   C4A 2350   1.742   6.245   8.081  0.1565 -0.0214  0.0923
  185POPE   C1B 2351   1.264   5.388   9.080 -0.0286  0.2946  0.1208
  185POPE   C2B 2352   1.474   5.426   8.792  0.1607 -0.5488 -0.2069
  185POPE   C3B 2353   1.573   5.506   8.436 -0.0045  0.0317 -0.2452
  185POPE   C4B 2354   1.804   5.719   8.192 -0.0671  0.2180  0.2713
  186POPE   NH3 2355  18.134  13.571  10.639  0.1653  0.1993  0.2673
  186POPE   PO4 2356  17.702  13.560  10.723  0.0840  0.1341 -0.1637
  186POPE   GL1 2357  17.605  13.596  10.315  0.3286 -0.4217 -0.5658
  186POPE   GL2 2358  17.281  13.606  10.215 -0.1594 -0.1509  0.1093
  186POPE   C1A 2359  17.632  13.281  10.057 -0.0177  0.0717  0.2513
  186POPE   D2A 2360  17.423  12.975   9.760  0.0715 -0.1584  0.2029
  186POPE   C3A 2361  17.292  13.054   9.367 -0.2029 -0.1076  0.1975
  186POPE   C4A 2362  17.374  13.346   9.002  0.0264 -0.3279 -0.0531
  186POPE   C1B 2363  17.185  13.470   9.704  0.0275 -0.1071 -0.1923
  186POPE   C2B 2364  16.933  13.339   9.311  0.2464  0.0912  0.0926
  186POPE   C3B 2365  16.666  13.292   8.899 -0.1114  0.0222  0.0177
  186POPE   C4B 2366  16.305  13.423   8.801 -0.0946  0.4061  0.1412
  187POPE   NH3 2367   2.548  11.073  10.417  0.1915  0.1936 -0.0468
  187POPE   PO4 2368   2.783  10.772  10.554  0.3339  0.1902  0.0529
  187POPE   GL1 2369   2.710  10.627  10.176  0.1354 -0.1387  0.0779
  187POPE   GL2 2370   2.456  10.842   9.915  0.1032 -0.3033 -0.2180
  187POPE   C1A 2371   2.693  10.396   9.793  0.1157  0.3301 -0.0669
  187POPE   D2A 2372   2.528  10.012   9.479 -0.1121 -0.0333  0.4848
  187POPE   C3A 2373   2.300   9.803   9.191 -0.1667  0.5771  0.5811
  187POPE   C4A 2374   2.259   9.448   8.882 -0.2519 -0.0469 -0.1954
  187POPE   C1B 2375   2.363  10.687   9.548 -0.0857 -0.2691  0.1238
  187POPE   C2B 2376   2.555  10.491   9.225  0.1872 -0.0339 -0.1207
  187POPE   C3B 2377   2.579  10.094   8.919 -0.3676  0.0568  0.3160
  187POPE   C4B 2378   2.271   9.975   8.575  0.1124 -0.0572  0.0693
  188POPE   NH3 2379   0.382   7.237   9.655  0.0507 -0.0621  0.3048
  188POPE   PO4 2380   0.065   6.999   9.516  0.0380  0.1827  0.2821
  188POPE   GL1 2381   0.013   6.844   9.126  0.0189 -0.0418  0.2733
  188POPE   GL2 2382  -0.288   6.549   9.078  0.1856  0.0251 -0.1153
  188POPE   C1A 2383  -0.012   6.950   8.730 -0.0080  0.0557  0.2437
  188POPE   D2A 2384  -0.059   7.120   8.264  0.4388 -0.0239  0.1526
  188POPE   C3A 2385   0.263   7.287   7.997 -0.0513  0.1142  0.3077
  188POPE   C4A 2386   0.704   7.259   7.802 -0.3292  0.1131 -0.1474
  188POPE   C1B 2387  -0.498   6.610   8.629 -0.1293 -0.0414  0.0324
  188POPE   C2B 2388  -0.344   6.575   8.139 -0.1655  0.3384 -0.0089
  188POPE   C3B 2389  -0.609   6.658   7.755  0.0936 -0.0406  0.1879
  188POPE   C4B 2390  -0.995   6.988   7.838 -0.2819  0.2167 -0.0594
  189POPE   NH3 2391  15.023   6.159   9.972  0.1328  0.2766 -0.1095
  189POPE   PO4 2392  14.781   6.657  10.021 -0.0792  0.1226 -0.2102
  189POPE   GL1 2393  14.543   6.730   9.564 -0.1170 -0.0513 -0.0442
  189POPE   GL2 2394  14.724   6.902   9.270 -0.1961  0.2539 -0.0278
  189POPE   C1A 2395  14.453   6.519   9.248 -0.1100  0.1807  0.2476
  189POPE   D2A 2396  14.236   6.523   8.891 -0.1521 -0.0156  0.0677
  189POPE   C3A 2397  14.208   6.395   8.492 -0.2638  0.0490 -0.0643
  189POPE   C4A 2398  14.124   6.470   8.144 -0.1936  0.0858  0.1784
  189POPE   C1B 2399  14.618   6.798   8.830 -0.0117 -0.0559 -0.2765
  189POPE   C2B 2400  14.590   6.646   8.373  0.2224  0.0341  0.1169
  189POPE   C3B 2401  14.554   6.609   7.983 -0.1623 -0.1411  0.1112
  189POPE   C4B 2402  14.542   6.761   7.595  0.2885 -0.2807 -0.4088
  190POPE   NH3 2403   2.651   7.904   9.927 -0.3606  0.2214  0.2105
  190POPE   PO4 2404   2.967   8.188  10.042 -0.1286 -0.0563 -0.2878
  190POPE   GL1 2405   3.025   8.082   9.668  0.0252 -0.0547  0.0351
  190POPE   GL2 2406   2.806   8.272   9.478 -0.0737 -0.4358  0.0994
  190POPE   C1A 2407   3.233   8.157   9.231  0.0621  0.0089 -0.0602
  190POPE   D2A 2408   3.496   7.920   8.977 -0.2150 -0.0094  0.2402
  190POPE   C3A 2409   3.545   7.830   8.520  0.0800 -0.0049 -0.1702
  190POPE   C4A 2410   3.651   7.610   8.183 -0.0816  0.1585 -0.1435
  190POPE   C1B 2411   2.588   8.564   9.270  0.1080 -0.0000  0.2175
  190POPE   C2B 2412   2.358   8.522   8.888 -0.0836  0.0040  0.1424
  190POPE   C3B 2413   2.293   8.458   8.477  0.1481  0.0611  0.3566
  190POPE   C4B 2414   2.068   8.179   8.161  0.1546 -0.1743  0.0100
  191POPE   NH3 2415  11.383  10.974  10.424 -0.2176  0.4022  0.0144
  191POPE   PO4 2416  11.156  10.543  10.414 -0.0074  0.1876 -0.1481
  191POPE   GL1 2417  10.862  10.533  10.038  0.2787 -0.0930 -0.4648
  191POPE   GL2 2418  10.802  10.308   9.743 -0.0535  0.0592  0.0386
  191POPE   C1A 2419  10.720  10.891   9.781  0.2483  0.0701 -0.1844
  191POPE   D2A 2420  10.616  11.269   9.695  0.4153  0.0625  0.2887
  191POPE   C3A 2421  10.825  11.657   9.809  0.1294 -0.0880  0.1420
  191POPE   C4A 2422  10.836  12.064   9.754 -0.2471  0.1009  0.1629
  191POPE   C1B 2423  10.671  10.470   9.356 -0.3566  0.0307 -0.0365
  191POPE   C2B 2424  10.501  10.645   9.013 -0.0651  0.0426 -0.2027
  191POPE   C3B 2425  10.268  10.576   8.622  0.2389 -0.2871 -0.1443
  191POPE   C4B 2426  10.498  10.740   8.221  0.3907 -0.0616  0.4600
  192POPE   NH3 2427   2.553  16.679  10.553  0.0429 -0.2269 -0.0408
  192POPE   PO4 2428   2.980  16.937  10.649 -0.1183 -0.0339  0.1810
  192POPE   GL1 2429   2.941  16.750  10.236  0.0993  0.0907 -0.3870
  192POPE   GL2 2430   2.808  16.458  10.122  0.1148  0.1216  0.0742
  192POPE   C1A 2431   3.180  16.672   9.803  0.2419  0.1512  0.0328
  192POPE   D2A 2432   3.487  16.852   9.513 -0.1024  0.0300  0.1036
  192POPE   C3A 2433   3.496  16.744   9.038  0.3774 -0.1677 -0.3094
  192POPE   C4A 2434   3.582  16.617   8.591 -0.1471 -0.1908  0.1537
  192POPE   C1B 2435   2.741  16.250   9.875 -0.0375  0.0181 -0.4373
  192POPE   C2B 2436   2.731  15.901   9.674 -0.0922 -0.2294  0.2416
  192POPE   C3B 2437   2.581  15.693   9.382 -0.2093  0.1974  0.0563
  192POPE   C4B 2438   2.468  15.781   8.912  0.1256 -0.0621 -0.0830
  193POPE   NH3 2439  15.784  14.124  10.840  0.3987 -0.0325  0.0198
  193POPE   PO4 2440  15.389  14.240  10.673  0.1234  0.0585 -0.0381
  193POPE   GL1 2441  15.240  14.169  10.357 -0.0889 -0.3078 -0.0323
  193POPE   GL2 2442  14.876  14.104  10.294 -0.0093  0.0577  0.0470
  193POPE   C1A 2443  15.519  14.279  10.073  0.2964  0.4643  0.1963
  193POPE   D2A 2444  15.809  14.086   9.811  0.0213  0.2102  0.3210
  193POPE   C3A 2445  15.866  14.254   9.399  0.1976 -0.1292  0.0692
  193POPE   C4A 2446  16.000  14.511   9.109 -0.3106  0.1855  0.3364
  193POPE   C1B 2447  15.125  14.016   9.859 -0.1209  0.2149  0.1322
  193POPE   C2B 2448  15.094  14.031   9.411  0.0031  0.1898 -0.2500
  193POPE   C3B 2449  15.049  14.078   9.028  0.3655  0.1008  0.1405
  193POPE   C4B 2450  14.782  14.179   8.633  0.0017 -0.5537 -0.2649
  194POPE   NH3 2451   4.848   6.549  10.193 -0.1441 -0.0611 -0.1671
  194POPE   PO4 2452   4.559   6.199  10.231  0.3472  0.2636 -0.1871
  194POPE   GL1 2453   4.675   6.226   9.814  0.1087 -0.0911  0.0107
  194POPE   GL2 2454   4.821   6.394   9.663 -0.0742 -0.0575  0.1957
  194POPE   C1A 2455   4.708   6.139   9.260 -0.1028 -0.2182  0.0778
  194POPE   D2A 2456   4.617   5.988   8.778  0.1969 -0.5044  0.0259
  194POPE   C3A 2457   4.460   6.149   8.425 -0.0506  0.3574 -0.1809
  194POPE   C4A 2458   4.155   5.974   8.153 -0.3619  0.1322 -0.5052
  194POPE   C1B 2459   4.590   6.647   9.304  0.2069 -0.1390  0.0489
  194POPE   C2B 2460   4.450   6.721   8.795 -0.0873 -0.0783 -0.2214
  194POPE   C3B 2461   4.629   6.705   8.378  0.0183 -0.2862  0.2181
  194POPE   C4B 2462   4.897   6.677   8.023  0.0603 -0.1158  0.2586
  195POPE   NH3 2463   7.050  16.025  10.312 -0.0971  0.6168  0.1189
  195POPE   PO4 2464   6.720  15.673  10.333  0.0535 -0.0654 -0.2416
  195POPE   GL1 2465   6.782  15.867   9.874  0.1071  0.3684  0.0004
  195POPE   GL2 2466   6.716  16.063   9.816 -0.3009 -0.2444 -0.1334
  195POPE   C1A 2467   6.986  15.666   9.555 -0.1003  0.0001 -0.2581
  195POPE   D2A 2468   6.861  15.572   9.135 -0.1337  0.1345  0.0925
  195POPE   C3A 2469   6.562  15.408   8.768  0.3113 -0.0507 -0.1644
  195POPE   C4A 2470   6.386  15.401   8.360 -0.0340 -0.1152  0.1019
  195POPE   C1B 2471   6.681  16.037   9.358 -0.0598 -0.1857  0.0643
  195POPE   C2B 2472   6.631  16.020   8.922 -0.0363 -0.0967 -0.0884
  195POPE   C3B 2473   6.496  15.925   8.567 -0.0843  0.0173 -0.1275
  195POPE   C4B 2474   6.202  15.924   8.192  0.2460  0.1566  0.1585
  196POPE   NH3 2475  13.795   9.548   9.704  0.0760  0.2418  0.1601
  196POPE   PO4 2476  14.101   9.426   9.823  0.0082 -0.1846 -0.0685
  196POPE   GL1 2477  14.432   9.240   9.479  0.4070  0.1081 -0.2954
  196POPE   GL2 2478  14.394   8.971   9.398 -0.0746 -0.2443  0.0517
  196POPE   C1A 2479  14.676   9.399   9.213  0.1705 -0.0568 -0.0688
  196POPE   D2A 2480  14.791   9.725   8.957 -0.0220  0.1734 -0.1293
  196POPE   C3A 2481  14.807   9.750   8.540 -0.1113 -0.3544 -0.0642
  196POPE   C4A 2482  14.976   9.702   8.180  0.4230  0.0242  0.0027
  196POPE   C1B 2483  14.367   9.034   8.978 -0.1683 -0.0855  0.1129
  196POPE   C2B 2484  14.450   8.928   8.608 -0.2846 -0.0021 -0.4334
  196POPE   C3B 2485  14.626   8.845   8.272 -0.2109 -0.0359 -0.0054
  196POPE   C4B 2486  14.736   8.727   7.822 -0.0494  0.0667 -0.2975
  197POPE   NH3 2487   2.862   3.640  10.230 -0.0811  0.1223 -0.0098
  197POPE   PO4 2488   2.421   3.853  10.309  0.2592  0.1551 -0.0546
  197POPE   GL1 2489   2.268   3.814   9.895 -0.2176 -0.2711  0.0509
  197POPE   GL2 2490   1.989   3.608  10.004  0.1732 -0.1808 -0.2640
  197POPE   C1A 2491   2.425   3.862   9.469  0.0165 -0.1279  0.1504
  197POPE   D2A 2492   2.829   3.842   9.355  0.0911  0.3095 -0.0154
  197POPE   C3A 2493   2.951   3.792   9.007 -0.1717 -0.2324  0.0615
  197POPE   C4A 2494   2.898   3.929   8.528 -0.1744  0.0217  0.0481
  197POPE   C1B 2495   2.185   3.369   9.676  0.2597  0.3803 -0.0372
  197POPE   C2B 2496   2.120   3.056   9.356 -0.0683 -0.0316  0.1627
  197POPE   C3B 2497   2.070   3.131   8.965 -0.2218  0.1082  0.2069
  197POPE   C4B 2498   2.249   3.169   8.511 -0.0324  0.2452  0.0027
  198YOPE   NH3 2499   1.258  16.674  10.877  0.3035  0.2172  0.0175
  198YOPE   PO4 2500   1.678  16.528  10.734  0.1117 -0.1936 -0.0403
  198YOPE   GL1 2501   1.420  16.674  10.351  0.0260 -0.0134  0.0402
  198YOPE   GL2 2502   1.728  16.652  10.186 -0.2867  0.2825  0.0920
  198YOPE   C1A 2503   1.377  16.755   9.907  0.1135  0.2051  0.1792
  198YOPE   D2A 2504   1.387  16.602   9.499  0.0333  0.0342  0.2983
  198YOPE   C3A 2505   1.443  16.630   9.160  0.1091 -0.2136 -0.0710
  198YOPE   C4A 2506   1.235  16.619   8.777  0.1408 -0.2424 -0.3308
  198YOPE   C1B 2507   1.843  16.563   9.772 -0.1843 -0.2889 -0.1360
  198YOPE   C2B 2508   2.004  16.510   9.395  0.0992 -0.0096 -0.0405
  198YOPE   D3B 2509   2.065  16.462   9.015  0.0181  0.1628 -0.1688
  198YOPE   C4B 2510   2.302  16.203   8.722  0.1359 -0.2034  0.2195
  199YOPE   NH3 2511  16.510  17.796  10.140 -0.0279  0.2000  0.2572
  199YOPE   PO4 2512  16.044  18.049  10.084 -0.0676 -0.1669 -0.0676
  199YOPE   GL1 2513  16.056  17.788   9.690  0.0975 -0.2788 -0.1296
  199YOPE   GL2 2514  16.346  17.560   9.640  0.2177  0.0451 -0.0933
  199YOPE   C1A 2515  16.087  17.808   9.213  0.2537 -0.1777  0.0420
  199YOPE   D2A 2516  16.219  17.818   8.758  0.3090 -0.2399  0.2717
  199YOPE   C3A 2517  16.126  17.670   8.427 -0.2918 -0.1076  0.1318
  199YOPE   C4A 2518  16.034  17.527   8.020 -0.0128  0.1378 -0.2342
  199YOPE   C1B 2519  16.535  17.649   9.243  0.0913  0.0477 -0.0769
  199YOPE   C2B 2520  16.524  17.420   8.779 -0.0288 -0.2205 -0.3960
  199YOPE   D3B 2521  16.401  17.260   8.423 -0.0060 -0.1052  0.0663
  199YOPE   C4B 2522  16.710  16.931   8.243  0.2734  0.0989 -0.1898
  200YOPE   NH3 2523   4.094   3.765  10.204  0.4610  0.0796 -0.0144
  200YOPE   PO4 2524   4.464   4.022  10.009  0.0474 -0.0709 -0.1996
  200YOPE   GL1 2525   4.657   3.885   9.743 -0.1703  0.2583  0.0024
  200YOPE   GL2 2526   4.505   3.909   9.420 -0.0434 -0.0225 -0.0533
  200YOPE   C1A 2527   5.068   3.662   9.545  0.0877 -0.0208  0.1760
  200YOPE   D2A 2528   5.229   3.737   9.169 -0.2984 -0.2482 -0.2776
  200YOPE   C3A 2529   4.867   3.673   8.911 -0.0437 -0.0129 -0.0375
  200YOPE   C4A 2530   4.814   3.401   8.574  0.2405 -0.3142 -0.3692
  200YOPE   C1B 2531   4.327   3.670   9.081  0.0730  0.0680  0.2464
  200YOPE   C2B 2532   4.262   3.522   8.705  0.0920  0.3101  0.1346
  200YOPE   D3B 2533   4.431   3.280   8.332 -0.2180 -0.2788 -0.0403
  200YOPE   C4B 2534   4.793   3.119   8.125  0.2158  0.3402 -0.1006
  201YOPE   NH3 2535   9.773  11.873  10.377 -0.0643  0.1130 -0.1967
  201YOPE   PO4 2536  10.172  12.184  10.364  0.2189 -0.0376 -0.1721
  201YOPE   GL1 2537   9.995  12.287   9.978  0.3720 -0.1132  0.2754
  201YOPE   GL2 2538   9.692  12.495  10.093 -0.1228  0.1180  0.2599
  201YOPE   C1A 2539  10.085  12.145   9.536 -0.1287  0.0281  0.0421
  201YOPE   D2A 2540  10.584  12.184   9.366  0.1208  0.1032  0.0934
  201YOPE   C3A 2541  10.655  12.568   9.183  0.1668 -0.1937 -0.0056
  201YOPE   C4A 2542  10.419  12.727   8.792  0.0446 -0.0403 -0.4927
  201YOPE   C1B 2543  10.161  12.731  10.049  0.0308 -0.2056  0.2711
  201YOPE   C2B 2544  10.523  12.952  10.016  0.3743 -0.0163  0.2685
  201YOPE   D3B 2545  10.778  13.271  10.200 -0.1222 -0.1873  0.1956
  201YOPE   C4B 2546  11.114  13.441  10.394  0.1497 -0.2072  0.2719
  202YOPE   NH3 2547  13.148   8.925   9.758  0.1025  0.0299 -0.1662
  202YOPE   PO4 2548  12.852   8.598   9.784 -0.0973 -0.1170  0.1811
  202YOPE   GL1 2549  12.730   8.639   9.329 -0.0094  0.0107  0.1365
  202YOPE   GL2 2550  12.881   8.889   9.341 -0.3725  0.0977  0.0668
  202YOPE   C1A 2551  12.538   8.576   8.938  0.0759  0.1892 -0.2341
  202YOPE   D2A 2552  12.604   8.442   8.523  0.1865 -0.1146  0.0307
  202YOPE   C3A 2553  12.412   8.738   8.131 -0.1981 -0.3803  0.0173
  202YOPE   C4A 2554  12.585   9.123   8.003  0.1394 -0.1187  0.0263
  202YOPE   C1B 2555  12.841   8.969   8.922 -0.2249 -0.0298 -0.1849
  202YOPE   C2B 2556  12.723   8.925   8.489  0.2883 -0.0816 -0.0922
  202YOPE   D3B 2557  13.031   8.943   8.148  0.2176 -0.0980 -0.1725
  202YOPE   C4B 2558  13.303   8.933   7.786  0.0293  0.2570  0.3283
  203YOPE   NH3 2559  14.175   6.130  10.123 -0.0625  0.1142  0.1057
  203YOPE   PO4 2560  14.307   6.597  10.053  0.2187 -0.3334  0.3142
  203YOPE   GL1 2561  14.002   6.529   9.766  0.3419  0.0901 -0.0207
  203YOPE   GL2 2562  13.917   6.225   9.760  0.1322  0.0280 -0.1938
  203YOPE   C1A 2563  13.917   6.628   9.374  0.2931  0.2467  0.2713
  203YOPE   D2A 2564  13.785   6.791   9.053 -0.0989 -0.0736 -0.2260
  203YOPE   C3A 2565  13.799   6.677   8.560  0.0427  0.2986 -0.1246
  203YOPE   C4A 2566  13.659   6.368   8.274 -0.0640  0.1325  0.0984
  203YOPE   C1B 2567  13.501   6.381   9.501 -0.1480 -0.1408 -0.0261
  203YOPE   C2B 2568  13.405   6.466   9.121  0.0346 -0.0041  0.1323
  203YOPE   D3B 2569  13.318   6.419   8.691  0.2416  0.2527  0.2887
  203YOPE   C4B 2570  13.082   6.293   8.291 -0.2866 -0.0186  0.0286
  204YOPE   NH3 2571   3.883   4.631  10.022  0.2016  0.1774  0.0972
  204YOPE   PO4 2572   4.018   4.276  10.237 -0.0346  0.1289 -0.0034
  204YOPE   GL1 2573   3.966   3.987   9.796 -0.0696  0.2540  0.0633
  204YOPE   GL2 2574   4.096   4.237   9.684  0.0786  0.1933 -0.1885
  204YOPE   C1A 2575   3.937   3.699   9.491 -0.3318  0.2694 -0.4188
  204YOPE   D2A 2576   3.831   3.799   9.070 -0.4429  0.1198 -0.1590
  204YOPE   C3A 2577   3.552   3.543   8.704 -0.4507  0.1298 -0.1097
  204YOPE   C4A 2578   3.229   3.236   8.468 -0.3150 -0.2352  0.0492
  204YOPE   C1B 2579   4.179   4.184   9.247 -0.2657 -0.1455  0.0357
  204YOPE   C2B 2580   4.139   4.139   8.768 -0.0007 -0.2692  0.0886
  204YOPE   D3B 2581   4.109   4.108   8.213 -0.2243 -0.0028  0.0276
  204YOPE   C4B 2582   4.322   4.034   7.820  0.0237 -0.1408 -0.1247
  205YOPE   NH3 2583   6.449  17.777  10.537 -0.1777 -0.2850  0.1356
  205YOPE   PO4 2584   6.630  18.125  10.588 -0.1723 -0.1404  0.1145
  205YOPE   GL1 2585   6.754  17.945  10.197 -0.0829 -0.0120  0.2311
  205YOPE   GL2 2586   6.954  18.212  10.181 -0.3139 -0.1376  0.0591
  205YOPE   C1A 2587   6.943  17.793   9.877 -0.1109 -0.3317  0.0548
  205YOPE   D2A 2588   6.892  17.749   9.474  0.1261  0.0271 -0.0005
  205YOPE   C3A 2589   7.148  17.778   9.157 -0.2977  0.1293 -0.0500
  205YOPE   C4A 2590   7.415  17.992   8.820 -0.0137 -0.1170  0.2104
  205YOPE   C1B 2591   7.175  18.205   9.762  0.1002 -0.0637 -0.0773
  205YOPE   C2B 2592   7.258  18.265   9.335 -0.0961  0.1621 -0.0232
  205YOPE   D3B 2593   7.421  18.482   8.976  0.3499  0.0068 -0.0298
  205YOPE   C4B 2594   7.296  18.712   8.737  0.3377  0.2247 -0.0700
  206YOPE   NH3 2595   9.657  16.736  10.440 -0.1669 -0.0160  0.1100
  206YOPE   PO4 2596   9.281  16.691  10.624 -0.3843  0.2855 -0.2446
  206YOPE   GL1 2597   9.280  16.575  10.178  0.2038  0.0354 -0.5117
  206YOPE   GL2 2598   9.592  16.234  10.038  0.3400  0.2012  0.1046
  206YOPE   C1A 2599   9.262  16.500   9.784 -0.2593  0.0566 -0.0301
  206YOPE   D2A 2600   9.124  16.536   9.379  0.1355  0.0006 -0.1541
  206YOPE   C3A 2601   9.315  16.726   9.020 -0.0677  0.0348  0.3155
  206YOPE   C4A 2602   9.537  17.041   8.738  0.2180  0.1081 -0.0779
  206YOPE   C1B 2603   9.479  16.085   9.606  0.0055  0.2204 -0.0884
  206YOPE   C2B 2604   9.533  15.953   9.313  0.1558  0.0498  0.0264
  206YOPE   D3B 2605   9.474  16.083   8.960 -0.0516  0.1345  0.2691
  206YOPE   C4B 2606   9.390  16.035   8.598 -0.1321 -0.2194  0.1389
  207YOPE   NH3 2607   9.101   6.267  10.361 -0.2473 -0.0755 -0.3591
  207YOPE   PO4 2608   8.690   6.139  10.406 -0.3245  0.1644  0.0597
  207YOPE   GL1 2609   8.854   6.043  10.020 -0.0098  0.1507 -0.0380
  207YOPE   GL2 2610   8.856   5.776   9.784  0.0181  0.0033 -0.1918
  207YOPE   C1A 2611   8.783   6.452   9.781 -0.2205  0.1552 -0.0998
  207YOPE   D2A 2612   9.060   6.734   9.487 -0.4563  0.0816 -0.0305
  207YOPE   C3A 2613   9.133   6.886   9.031 -0.1257  0.2402  0.0742
  207YOPE   C4A 2614   8.972   6.856   8.669  0.2535  0.2135  0.2537
  207YOPE   C1B 2615   8.940   6.038   9.506 -0.0876 -0.0301 -0.0723
  207YOPE   C2B 2616   8.804   6.434   9.187  0.1758 -0.0176  0.2525
  207YOPE   D3B 2617   8.686   6.513   8.876 -0.0396 -0.1922  0.2186
  207YOPE   C4B 2618   8.683   6.504   8.424  0.2353 -0.0738 -0.2853
  208YOPE   NH3 2619   8.388  17.003  10.219  0.0360  0.1645 -0.2090
  208YOPE   PO4 2620   8.402  16.621  10.579 -0.1001  0.0217 -0.4276
  208YOPE   GL1 2621   8.626  16.441  10.183 -0.2181 -0.0640  0.0822
  208YOPE   GL2 2622   8.782  16.721  10.083  0.0236 -0.2714  0.0258
  208YOPE   C1A 2623   8.749  16.425   9.726 -0.4389  0.5722  0.2631
  208YOPE   D2A 2624   8.618  16.496   9.303 -0.1057  0.0751 -0.2290
  208YOPE   C3A 2625   8.845  16.714   8.981  0.2184 -0.2776 -0.0951
  208YOPE   C4A 2626   9.017  17.014   8.646  0.1733  0.0123 -0.2912
  208YOPE   C1B 2627   8.960  16.874   9.691 -0.0394 -0.1797 -0.3427
  208YOPE   C2B 2628   9.114  17.020   9.406  0.0833  0.3116 -0.1652
  208YOPE   D3B 2629   9.216  17.260   9.104  0.1843 -0.2530  0.4240
  208YOPE   C4B 2630   9.317  17.451   8.789  0.3516 -0.0217  0.0117
  209YOPE   NH3 2631  10.336   7.971   9.884 -0.0552  0.0271  0.0363
  209YOPE   PO4 2632  10.164   8.341  10.179  0.1444  0.1309  0.1078
  209YOPE   GL1 2633   9.952   8.370   9.840  0.1668  0.2042 -0.1751
  209YOPE   GL2 2634  10.015   8.684   9.742  0.2077 -0.0937 -0.0021
  209YOPE   C1A 2635   9.795   8.465   9.399 -0.2242  0.0996 -0.2101
  209YOPE   D2A 2636   9.801   8.522   8.989  0.0423  0.2131 -0.3795
  209YOPE   C3A 2637   9.789   8.353   8.668 -0.0440  0.0017  0.0248
  209YOPE   C4A 2638  10.090   8.352   8.362  0.0949  0.0726  0.1154
  209YOPE   C1B 2639  10.178   8.808   9.399  0.1216  0.1332  0.4297
  209YOPE   C2B 2640  10.367   9.075   9.198  0.0107 -0.1099  0.0246
  209YOPE   D3B 2641  10.310   9.167   8.736 -0.1667 -0.1448  0.0089
  209YOPE   C4B 2642  10.430   9.144   8.365  0.0912 -0.2002 -0.1035
  210YOPE   NH3 2643  17.864  15.733  10.952  0.1610  0.0337  0.1831
  210YOPE   PO4 2644  17.936  16.245  11.029  0.3330 -0.0361  0.0647
  210YOPE   GL1 2645  17.973  16.137  10.632  0.0761 -0.1064  0.0959
  210YOPE   GL2 2646  18.069  16.480  10.560 -0.2961 -0.1943 -0.0957
  210YOPE   C1A 2647  17.811  15.962  10.215  0.3429 -0.0925 -0.3616
  210YOPE   D2A 2648  18.091  16.143   9.862 -0.0661 -0.0643  0.1802
  210YOPE   C3A 2649  18.020  16.126   9.482  0.1619  0.3135  0.1047
  210YOPE   C4A 2650  17.911  16.236   9.085  0.0299 -0.0310  0.2264
  210YOPE   C1B 2651  18.272  16.591  10.078  0.7249 -0.0519  0.0227
  210YOPE   C2B 2652  18.431  16.469   9.694 -0.1382 -0.0475 -0.2922
  210YOPE   D3B 2653  18.803  16.361   9.428  0.0739  0.1764 -0.0230
  210YOPE   C4B 2654  19.081  16.508   9.144 -0.2629 -0.1676  0.1958
  211YOPE   NH3 2655   0.566  12.282  10.553  0.0062 -0.1154 -0.1541
  211YOPE   PO4 2656   0.974  12.181  10.590 -0.2459 -0.0400 -0.3034
  211YOPE   GL1 2657   0.884  12.048  10.185  0.2141  0.1932 -0.1151
  211YOPE   GL2 2658   1.193  12.185  10.078  0.2779  0.0476  0.0934
  211YOPE   C1A 2659   0.610  12.119   9.832  0.0815 -0.0527  0.0602
  211YOPE   D2A 2660   0.548  12.322   9.486  0.1102  0.2307  0.2863
  211YOPE   C3A 2661   0.600  12.481   9.120 -0.2312  0.1828 -0.0474
  211YOPE   C4A 2662   0.311  12.765   8.893 -0.2510  0.2554  0.0379
  211YOPE   C1B 2663   1.086  11.999   9.735 -0.0420  0.3660  0.0143
  211YOPE   C2B 2664   0.943  12.073   9.322 -0.1966  0.0323 -0.2917
  211YOPE   D3B 2665   0.634  11.979   8.975  0.0971 -0.1276 -0.0599
  211YOPE   C4B 2666   0.270  11.787   8.737  0.1574  0.2255  0.2177
  212YOPE   NH3 2667   4.258  13.581  10.276  0.0305 -0.1365 -0.0336
  212YOPE   PO4 2668   4.776  13.584  10.144  0.0353 -0.0539 -0.0171
  212YOPE   GL1 2669   5.040  13.381   9.917 -0.0478  0.0192  0.0942
  212YOPE   GL2 2670   5.004  13.633   9.678 -0.2209 -0.5136  0.2399
  212YOPE   C1A 2671   5.232  13.199   9.560  0.0747  0.2428 -0.1653
  212YOPE   D2A 2672   5.504  13.144   9.195  0.0020  0.1271 -0.2683
  212YOPE   C3A 2673   5.714  13.470   8.964 -0.0023  0.1727 -0.4068
  212YOPE   C4A 2674   6.037  13.504   8.640 -0.0771  0.2237  0.1138
  212YOPE   C1B 2675   5.130  13.620   9.293  0.2715 -0.1001  0.3777
  212YOPE   C2B 2676   5.202  13.403   8.888 -0.0472 -0.2274  0.3142
  212YOPE   D3B 2677   5.356  13.149   8.699 -0.2335  0.0056  0.2427
  212YOPE   C4B 2678   5.703  13.014   8.658  0.0375  0.2274  0.2265
  213YOPE   NH3 2679  10.675  10.375  10.556  0.0693 -0.0808 -0.0661
  213YOPE   PO4 2680  10.222  10.488  10.432  0.0917 -0.1799  0.3361
  213YOPE   GL1 2681  10.216  10.703   9.943 -0.1928  0.1294  0.1253
  213YOPE   GL2 2682   9.875  10.619   9.779  0.0867 -0.0177  0.0467
  213YOPE   C1A 2683  10.282  10.700   9.497  0.0899  0.1255 -0.1083
  213YOPE   D2A 2684  10.622  10.960   9.312 -0.2735  0.1583  0.0819
  213YOPE   C3A 2685  10.482  11.242   8.969 -0.0374  0.0337  0.1119
  213YOPE   C4A 2686  10.245  11.534   8.751 -0.0851 -0.0712  0.0904
  213YOPE   C1B 2687   9.681  10.544   9.422 -0.2543 -0.1029  0.0284
  213YOPE   C2B 2688   9.532  10.321   9.067 -0.1889  0.0923 -0.0142
  213YOPE   D3B 2689   9.380  10.114   8.719 -0.0417 -0.0638  0.4886
  213YOPE   C4B 2690   9.140  10.143   8.387  0.2371 -0.1327 -0.1596
  214YOPE   NH3 2691  17.289  17.692  10.239 -0.0576  0.2426  0.3708
  214YOPE   PO4 2692  16.945  17.983  10.156 -0.1858 -0.0198  0.0092
  214YOPE   GL1 2693  17.295  18.005   9.853  0.0831  0.1246  0.0247
  214YOPE   GL2 2694  17.616  17.928   9.935 -0.1727 -0.2717 -0.0376
  214YOPE   C1A 2695  17.518  17.890   9.500  0.1318  0.0746  0.4811
  214YOPE   D2A 2696  17.614  17.854   9.019 -0.2023  0.0770 -0.1031
  214YOPE   C3A 2697  17.527  17.920   8.558 -0.0200  0.0223 -0.1303
  214YOPE   C4A 2698  17.794  17.947   8.264  0.2093  0.2588  0.1007
  214YOPE   C1B 2699  18.036  18.041   9.786  0.0455  0.0906 -0.0109
  214YOPE   C2B 2700  18.052  17.966   9.352 -0.2996 -0.0066  0.4018
  214YOPE   D3B 2701  18.091  17.677   8.923 -0.1928  0.0141  0.1835
  214YOPE   C4B 2702  18.116  17.521   8.535 -0.0916  0.4764  0.0911
  215YOPE   NH3 2703  16.132   0.211  10.363 -0.0424  0.0839 -0.2816
  215YOPE   PO4 2704  15.846   0.532  10.143  0.3380  0.1604  0.0189
  215YOPE   GL1 2705  15.858   0.225   9.781 -0.1770  0.0302 -0.3924
  215YOPE   GL2 2706  16.203   0.210   9.747  0.0656 -0.0430  0.0133
  215YOPE   C1A 2707  15.809   0.010   9.412  0.1451  0.0770 -0.0741
  215YOPE   D2A 2708  15.917  -0.014   9.003 -0.1565  0.2219 -0.1970
  215YOPE   C3A 2709  15.944   0.020   8.594 -0.0051  0.1247 -0.0545
  215YOPE   C4A 2710  15.612   0.127   8.298 -0.4114  0.1392 -0.0094
  215YOPE   C1B 2711  16.108   0.408   9.250  0.1663  0.2234 -0.0101
  215YOPE   C2B 2712  16.142   0.449   8.851 -0.0531  0.0359  0.0214
  215YOPE   D3B 2713  16.099   0.548   8.447  0.1398 -0.1273  0.1031
  215YOPE   C4B 2714  15.839   0.943   8.194 -0.0457 -0.1053 -0.2179
  216YOPE   NH3 2715   4.816  17.731  10.518  0.4846  0.1485  0.1481
  216YOPE   PO4 2716   5.213  17.851  10.404 -0.0997  0.2115  0.1577
  216YOPE   GL1 2717   5.098  17.610  10.070  0.4340  0.0163 -0.0738
  216YOPE   GL2 2718   5.244  17.345   9.919  0.0811 -0.0102  0.0818
  216YOPE   C1A 2719   4.744  17.656   9.762  0.0267 -0.0035  0.1922
  216YOPE   D2A 2720   4.527  17.763   9.473 -0.0277 -0.0059 -0.0011
  216YOPE   C3A 2721   4.423  18.006   9.128 -0.0528  0.0361 -0.1933
  216YOPE   C4A 2722   4.206  18.391   9.029 -0.1443 -0.0572  0.1293
  216YOPE   C1B 2723   5.317  17.563   9.588 -0.2553 -0.0580  0.0615
  216YOPE   C2B 2724   5.352  17.509   9.096 -0.2933  0.2119  0.1288
  216YOPE   D3B 2725   5.392  17.315   8.702  0.2027 -0.1906 -0.2388
  216YOPE   C4B 2726   5.416  17.338   8.264 -0.1938 -0.1157 -0.0024
  217YOPE   NH3 2727  17.255  15.287  10.756 -0.2190 -0.2144  0.0979
  217YOPE   PO4 2728  17.670  15.223  11.029 -0.0945 -0.2067  0.0888
  217YOPE   GL1 2729  17.748  15.249  10.702  0.2840  0.0975 -0.0030
  217YOPE   GL2 2730  17.547  15.074  10.437 -0.1532 -0.2808  0.0122
  217YOPE   C1A 2731  17.863  15.463  10.332 -0.0867 -0.3448  0.2250
  217YOPE   D2A 2732  17.601  15.552  10.003 -0.0867  0.1472 -0.0248
  217YOPE   C3A 2733  17.624  15.841   9.722 -0.0384  0.0630  0.0296
  217YOPE   C4A 2734  17.640  15.878   9.217  0.0979 -0.0338  0.0110
  217YOPE   C1B 2735  17.338  15.109  10.056 -0.0852 -0.1342 -0.3230
  217YOPE   C2B 2736  17.240  15.331   9.736  0.1578  0.1449  0.3047
  217YOPE   D3B 2737  17.267  15.621   9.399  0.2481  0.2224  0.1115
  217YOPE   C4B 2738  17.347  15.541   8.955 -0.0329 -0.0361 -0.0838
  218YOPE   NH3 2739  13.818  14.084  10.917  0.2041 -0.0053 -0.1550
  218YOPE   PO4 2740  13.950  14.528  10.753 -0.0924 -0.2519 -0.3469
  218YOPE   GL1 2741  14.086  14.817  10.387 -0.0796  0.1717 -0.0558
  218YOPE   GL2 2742  13.880  15.125  10.453  0.2013 -0.0648  0.0832
  218YOPE   C1A 2743  14.390  15.049  10.192 -0.0123 -0.1927 -0.0610
  218YOPE   D2A 2744  14.763  15.071   9.980 -0.2538 -0.4614 -0.1074
  218YOPE   C3A 2745  14.735  15.011   9.560 -0.1806  0.0971 -0.1437
  218YOPE   C4A 2746  14.781  15.076   9.111 -0.0562 -0.1306  0.2105
  218YOPE   C1B 2747  13.520  15.079  10.096  0.0168  0.1383  0.2193
  218YOPE   C2B 2748  13.491  14.924   9.683 -0.1342 -0.2152 -0.1532
  218YOPE   D3B 2749  13.748  14.939   9.383  0.0048  0.0975 -0.2015
  218YOPE   C4B 2750  13.942  14.683   9.004  0.1096  0.2916  0.0276
  219YOPE   NH3 2751   4.832   4.904   9.915 -0.1062  0.0076 -0.0220
  219YOPE   PO4 2752   5.255   4.642   9.962  0.1724  0.0040  0.1646
  219YOPE   GL1 2753   5.587   4.753   9.612 -0.2877  0.2634 -0.1177
  219YOPE   GL2 2754   5.781   5.012   9.704  0.0654  0.3111  0.0599
  219YOPE   C1A 2755   5.619   4.935   9.256  0.2204  0.0499  0.0059
  219YOPE   D2A 2756   5.800   5.145   8.920 -0.0628  0.1920  0.0719
  219YOPE   C3A 2757   5.543   5.340   8.595 -0.1744 -0.2571 -0.1297
  219YOPE   C4A 2758   5.333   5.570   8.281 -0.3215  0.4020 -0.1069
  219YOPE   C1B 2759   6.105   5.171   9.359  0.0179 -0.1369  0.3073
  219YOPE   C2B 2760   6.147   5.473   9.078  0.1035  0.1876  0.1456
  219YOPE   D3B 2761   5.971   5.620   8.724 -0.0298  0.0809 -0.0306
  219YOPE   C4B 2762   6.018   5.821   8.371  0.3332  0.0606 -0.1951
  220YOPE   NH3 2763   4.082   0.820  10.855  0.3541  0.1598 -0.2124
  220YOPE   PO4 2764   3.960   1.303  10.926 -0.0158 -0.1056 -0.2313
  220YOPE   GL1 2765   3.979   1.191  10.539  0.2797  0.0767 -0.0302
  220YOPE   GL2 2766   4.125   1.489  10.496 -0.0681 -0.2661 -0.0917
  220YOPE   C1A 2767   4.097   1.257  10.067  0.0752 -0.2761 -0.1761
  220YOPE   D2A 2768   4.335   1.402   9.699 -0.1084  0.0611 -0.1703
  220YOPE   C3A 2769   4.296   1.764   9.420  0.2670 -0.0721  0.1367
  220YOPE   C4A 2770   4.319   2.020   9.144  0.1201  0.0802 -0.1609
  220YOPE   C1B 2771   4.210   1.772  10.060 -0.5258  0.0068 -0.3836
  220YOPE   C2B 2772   4.600   1.945   9.746  0.0654 -0.1075  0.0398
  220YOPE   D3B 2773   4.568   2.309   9.479  0.0734  0.3629 -0.0334
  220YOPE   C4B 2774   4.939   2.370   9.136  0.3432  0.1988  0.0369
  221YOPE   NH3 2775  12.027   2.758  10.441  0.1112  0.1329 -0.1203
  221YOPE   PO4 2776  11.902   2.324  10.309 -0.0219  0.0130 -0.0039
  221YOPE   GL1 2777  11.600   2.262   9.973  0.0540 -0.0778  0.2108
  221YOPE   GL2 2778  11.533   1.978   9.955 -0.2706  0.1182  0.1339
  221YOPE   C1A 2779  11.646   2.398   9.680 -0.0804  0.2458  0.0139
  221YOPE   D2A 2780  11.865   2.426   9.324  0.0377  0.0877 -0.0997
  221YOPE   C3A 2781  11.608   2.260   9.002 -0.1007 -0.1993 -0.1387
  221YOPE   C4A 2782  11.689   2.229   8.563 -0.2167  0.4496 -0.3802
  221YOPE   C1B 2783  11.277   1.578  10.102 -0.3397  0.3719 -0.1555
  221YOPE   C2B 2784  11.267   1.120  10.054  0.2104 -0.2999 -0.2127
  221YOPE   D3B 2785  11.203   0.862   9.664 -0.0928  0.0523 -0.1979
  221YOPE   C4B 2786  11.344   0.767   9.244  0.0937 -0.0157 -0.0089
  222YOPE   NH3 2787  14.874  13.840  11.244 -0.1386  0.0407  0.3148
  222YOPE   PO4 2788  14.581  13.734  10.937 -0.1281 -0.0899 -0.1737
  222YOPE   GL1 2789  14.403  13.886  10.444 -0.0690  0.0841  0.4977
  222YOPE   GL2 2790  14.224  13.622  10.326 -0.0740 -0.1597 -0.2460
  222YOPE   C1A 2791  14.405  14.122  10.018  0.1761  0.0004 -0.0983
  222YOPE   D2A 2792  14.235  14.077   9.640  0.2062  0.0218  0.0168
  222YOPE   C3A 2793  14.429  14.214   9.296  0.1651  0.1204 -0.1719
  222YOPE   C4A 2794  14.424  14.378   8.989  0.3006 -0.0839  0.0274
  222YOPE   C1B 2795  14.160  13.653   9.887  0.0099  0.1477  0.0964
  222YOPE   C2B 2796  14.073  13.579   9.486 -0.3439  0.0416  0.1623
  222YOPE   D3B 2797  14.011  13.846   9.277  0.2878  0.3545  0.1304
  222YOPE   C4B 2798  13.997  14.149   9.015 -0.0076  0.1064 -0.0145
  223YOPE   NH3 2799  10.793   4.883  10.081 -0.0399 -0.0466 -0.1245
  223YOPE   PO4 2800  10.406   4.910  10.383 -0.1245 -0.1183  0.2561
  223YOPE   GL1 2801  10.253   4.866  10.049  0.0254 -0.0242  0.1733
  223YOPE   GL2 2802  10.172   4.546  10.038  0.2404  0.1689  0.0958
  223YOPE   C1A 2803   9.985   4.880   9.674  0.1640 -0.1830  0.0034
  223YOPE   D2A 2804   9.953   4.927   9.274 -0.1795  0.1577 -0.0255
  223YOPE   C3A 2805  10.240   4.868   9.021 -0.0149  0.3931 -0.2433
  223YOPE   C4A 2806  10.335   4.955   8.636 -0.1327  0.4375  0.0654
  223YOPE   C1B 2807  10.448   4.314   9.747  0.0000 -0.1226  0.1854
  223YOPE   C2B 2808  10.648   4.268   9.337 -0.0565  0.2478  0.1781
  223YOPE   D3B 2809  10.882   4.272   9.046 -0.1134  0.0104 -0.1016
  223YOPE   C4B 2810  10.963   4.307   8.675  0.1556  0.2639 -0.3163
  224YOPE   NH3 2811   8.189  15.776  10.353  0.1453  0.0201 -0.1756
  224YOPE   PO4 2812   8.566  16.004  10.394  0.0786 -0.0134 -0.2005
  224YOPE   GL1 2813   8.477  15.846   9.964  0.0784 -0.0942  0.0048
  224YOPE   GL2 2814   8.458  15.472   9.859 -0.1210  0.1029 -0.0874
  224YOPE   C1A 2815   8.358  15.972   9.583 -0.1946 -0.0696 -0.0659
  224YOPE   D2A 2816   8.253  16.042   9.155  0.0285  0.2513 -0.0100
  224YOPE   C3A 2817   8.501  16.301   8.827 -0.3366  0.4056  0.0987
  224YOPE   C4A 2818   8.737  16.429   8.439 -0.2011  0.2098 -0.0709
  224YOPE   C1B 2819   8.699  15.533   9.546 -0.1992  0.0244  0.0246
  224YOPE   C2B 2820   8.714  15.550   9.096 -0.0644  0.2514 -0.2465
  224YOPE   D3B 2821   8.606  15.679   8.693 -0.0649  0.1788  0.0483
  224YOPE   C4B 2822   8.865  15.919   8.379 -0.1229 -0.0878 -0.1636
  225YOPE   NH3 2823   6.343  15.268  10.831 -0.0167  0.1954  0.1230
  225YOPE   PO4 2824   6.452  15.234  10.483 -0.1264  0.0824  0.4997
  225YOPE   GL1 2825   6.210  15.210  10.239  0.1625 -0.1743  0.0390
  225YOPE   GL2 2826   6.313  14.984  10.021 -0.3097  0.0691 -0.1070
  225YOPE   C1A 2827   5.982  15.380   9.827 -0.0670 -0.0854  0.1658
  225YOPE   D2A 2828   5.713  15.542   9.536  0.2435  0.2472  0.0100
  225YOPE   C3A 2829   5.737  15.548   9.153  0.2450 -0.0305 -0.2521
  225YOPE   C4A 2830   5.788  15.275   8.729 -0.1599 -0.1191  0.3904
  225YOPE   C1B 2831   6.406  15.178   9.596  0.5666  0.2887 -0.0113
  225YOPE   C2B 2832   6.820  15.139   9.547 -0.1905 -0.1938  0.0421
  225YOPE   D3B 2833   7.107  14.774   9.511  0.0164 -0.2566  0.1506
  225YOPE   C4B 2834   7.537  14.846   9.469  0.1167 -0.2062 -0.0145
  226YOPE   NH3 2835  10.711   2.333  10.644  0.1010 -0.1687  0.1768
  226YOPE   PO4 2836  10.736   2.344  10.278  0.0974  0.1276 -0.0643
  226YOPE   GL1 2837  10.506   2.351   9.998  0.0382  0.2380  0.0067
  226YOPE   GL2 2838  10.194   2.386  10.180  0.0548 -0.3543  0.1234
  226YOPE   C1A 2839  10.168   2.141   9.649 -0.2356  0.1212  0.0738
  226YOPE   D2A 2840  10.163   1.953   9.352 -0.0765 -0.0024 -0.3676
  226YOPE   C3A 2841   9.982   2.002   9.039  0.1137 -0.0392  0.2375
  226YOPE   C4A 2842   9.780   2.287   8.657 -0.1393 -0.2206  0.0527
  226YOPE   C1B 2843  10.005   1.952  10.076 -0.0429  0.1232 -0.2111
  226YOPE   C2B 2844   9.919   1.668   9.619  0.2571 -0.0518  0.2065
  226YOPE   D3B 2845   9.804   1.562   9.193  0.1385  0.0244  0.2084
  226YOPE   C4B 2846   9.527   1.470   8.950  0.3193 -0.0015  0.1262
  227YOPE   NH3 2847  11.485   9.704   9.896  0.0239 -0.0784  0.1456
  227YOPE   PO4 2848  11.738  10.041   9.896 -0.0053  0.0390 -0.1473
  227YOPE   GL1 2849  11.602  10.216   9.528  0.0940 -0.0045 -0.3493
  227YOPE   GL2 2850  11.295  10.247   9.511 -0.1682 -0.1287  0.2022
  227YOPE   C1A 2851  11.738  10.464   9.265  0.0119 -0.0366  0.1772
  227YOPE   D2A 2852  11.628  10.615   8.839  0.0964  0.2457  0.1437
  227YOPE   C3A 2853  11.399  11.037   8.731  0.1152 -0.0452 -0.1065
  227YOPE   C4A 2854  11.107  11.372   8.848 -0.1170 -0.0388  0.1442
  227YOPE   C1B 2855  11.055  10.301   9.031  0.0301  0.4080  0.0725
  227YOPE   C2B 2856  11.183  10.449   8.635  0.1579 -0.0986 -0.4345
  227YOPE   D3B 2857  11.244  10.731   8.361  0.3338  0.0503 -0.1680
  227YOPE   C4B 2858  11.149  11.115   8.313 -0.0799  0.3263 -0.1998
  228YOPE   NH3 2859   9.002   4.154  10.170  0.0640  0.1831  0.1158
  228YOPE   PO4 2860   8.994   3.723  10.220 -0.0073 -0.0960  0.0744
  228YOPE   GL1 2861   8.991   3.651   9.804 -0.2990  0.0022 -0.0234
  228YOPE   GL2 2862   8.875   3.986   9.662  0.0369 -0.0314  0.2964
  228YOPE   C1A 2863   8.978   3.534   9.336  0.1870 -0.2874  0.1371
  228YOPE   D2A 2864   8.867   3.491   8.977  0.3131 -0.0999  0.1427
  228YOPE   C3A 2865   9.016   3.679   8.591  0.4711 -0.4824  0.0430
  228YOPE   C4A 2866   9.057   4.113   8.741 -0.0477 -0.0231 -0.0955
  228YOPE   C1B 2867   8.862   4.008   9.275  0.0666  0.1881  0.1319
  228YOPE   C2B 2868   8.587   3.944   8.874  0.1871  0.0776 -0.2001
  228YOPE   D3B 2869   8.174   3.957   8.683 -0.0011 -0.1542 -0.0366
  228YOPE   C4B 2870   7.920   4.122   8.413 -0.0361 -0.1524 -0.0847
  229YOPE   NH3 2871  10.689  10.070  10.164  0.1726 -0.3101  0.1037
  229YOPE   PO4 2872  10.456  10.263  10.053 -0.0008 -0.0645  0.0430
  229YOPE   GL1 2873  10.344  10.106   9.678 -0.0732 -0.3444 -0.0498
  229YOPE   GL2 2874  10.108   9.821   9.757 -0.2811 -0.3924  0.2547
  229YOPE   C1A 2875  10.120  10.264   9.296  0.1038 -0.1566 -0.2879
  229YOPE   D2A 2876  10.023  10.468   8.987  0.0494 -0.1208 -0.1362
  229YOPE   C3A 2877   9.903  10.313   8.652 -0.0139  0.1318  0.1386
  229YOPE   C4A 2878   9.788   9.960   8.417 -0.1748 -0.2463 -0.0424
  229YOPE   C1B 2879  10.268   9.704   9.373  0.1074  0.3138  0.2272
  229YOPE   C2B 2880  10.557   9.564   8.989 -0.2099 -0.1414 -0.0372
  229YOPE   D3B 2881  10.658   9.566   8.540  0.3515 -0.3193  0.2597
  229YOPE   C4B 2882  10.854   9.369   8.153  0.0599 -0.1530  0.0172
  230YOPE   NH3 2883   0.913  10.711  10.313  0.1900 -0.0758 -0.0663
  230YOPE   PO4 2884   1.446  10.749  10.267 -0.1575 -0.3935 -0.3753
  230YOPE   GL1 2885   1.491  10.951   9.927 -0.2080  0.1384 -0.3108
  230YOPE   GL2 2886   1.558  11.243  10.004  0.0828  0.0520  0.0565
  230YOPE   C1A 2887   1.132  11.021   9.575 -0.0223  0.1452 -0.0018
  230YOPE   D2A 2888   0.861  11.049   9.207  0.0888  0.3761  0.3340
  230YOPE   C3A 2889   1.094  11.135   8.827  0.3441 -0.0895 -0.1918
  230YOPE   C4A 2890   1.112  11.407   8.472 -0.1237 -0.0869  0.0732
  230YOPE   C1B 2891   1.541  11.238   9.542  0.0732  0.3936  0.1461
  230YOPE   C2B 2892   1.651  11.356   9.113 -0.0077  0.1190 -0.0377
  230YOPE   D3B 2893   1.783  11.360   8.742  0.0340  0.1311 -0.0639
  230YOPE   C4B 2894   2.145  11.140   8.555  0.1980  0.3587  0.2894
  231YOPE   NH3 2895   2.931   9.772  10.644 -0.0769 -0.2154  0.0319
  231YOPE   PO4 2896   2.731   9.515  10.368 -0.0138  0.0635 -0.1110
  231YOPE   GL1 2897   2.949   9.598  10.059 -0.0895  0.1555 -0.0296
  231YOPE   GL2 2898   2.905   9.903  10.037 -0.1952 -0.2071 -0.2420
  231YOPE   C1A 2899   2.959   9.541   9.595  0.2147  0.1355  0.1794
  231YOPE   D2A 2900   2.915   9.827   9.247  0.1505  0.4003  0.0136
  231YOPE   C3A 2901   3.161   9.916   8.963  0.0014 -0.0746  0.2196
  231YOPE   C4A 2902   3.314  10.260   8.622  0.2193 -0.1644  0.1290
  231YOPE   C1B 2903   3.150  10.045   9.666 -0.2280  0.1466 -0.0247
  231YOPE   C2B 2904   2.991  10.296   9.368  0.1072 -0.0030 -0.0604
  231YOPE   D3B 2905   3.054  10.450   9.007 -0.0117 -0.0863 -0.1213
  231YOPE   C4B 2906   2.812  10.555   8.677 -0.1151  0.0110 -0.2743
  232YOPE   NH3 2907   6.960   6.816  10.493  0.2062  0.0968  0.1101
  232YOPE   PO4 2908   7.428   6.565  10.364  0.1131 -0.0508  0.0882
  232YOPE   GL1 2909   7.160   6.659  10.056 -0.2146  0.3476  0.0544
  232YOPE   GL2 2910   7.213   6.994   9.961 -0.0593  0.1123  0.1498
  232YOPE   C1A 2911   7.017   6.633   9.622 -0.1673 -0.0486  0.0034
  232YOPE   D2A 2912   7.106   6.354   9.297  0.0427  0.0099 -0.0033
  232YOPE   C3A 2913   7.028   6.558   8.868 -0.1386  0.2609  0.0007
  232YOPE   C4A 2914   6.610   6.737   8.574  0.0308 -0.0946 -0.0095
  232YOPE   C1B 2915   7.330   7.101   9.570  0.1544 -0.0693  0.1706
  232YOPE   C2B 2916   7.556   7.227   9.275  0.2131  0.1775 -0.0693
  232YOPE   D3B 2917   7.701   7.461   8.964 -0.1194 -0.1619 -0.2263
  232YOPE   C4B 2918   7.758   7.708   8.589 -0.1802  0.0913  0.0923
  233YOPE   NH3 2919  17.551   3.965   9.460  0.1557  0.4167  0.0280
  233YOPE   PO4 2920  17.668   4.404   9.610 -0.1006 -0.0136  0.3673
  233YOPE   GL1 2921  17.824   4.281   9.229 -0.1617 -0.0421  0.0289
  233YOPE   GL2 2922  18.011   4.585   9.081  0.0575 -0.4420 -0.0369
  233YOPE   C1A 2923  17.916   4.083   8.891  0.2914 -0.1638 -0.2774
  233YOPE   D2A 2924  17.845   4.128   8.513 -0.2216 -0.1332 -0.2144
  233YOPE   C3A 2925  18.131   4.020   8.208 -0.2627 -0.0287 -0.0167
  233YOPE   C4A 2926  18.517   4.160   8.014  0.0955 -0.1863 -0.5258
  233YOPE   C1B 2927  18.003   4.577   8.717 -0.0008  0.1690  0.0764
  233YOPE   C2B 2928  17.898   4.640   8.354  0.0484  0.2205  0.2916
  233YOPE   D3B 2929  17.974   4.504   7.902  0.0441 -0.2032  0.2678
  233YOPE   C4B 2930  18.025   4.736   7.503 -0.0533  0.1066  0.4227
  234YOPE   NH3 2931  14.219  12.564  10.576  0.0421  0.2069  0.3115
  234YOPE   PO4 2932  14.505  12.185  10.457  0.0311 -0.1373 -0.0249
  234YOPE   GL1 2933  14.440  12.034  10.067  0.0569  0.2681  0.1082
  234YOPE   GL2 2934  14.100  12.023   9.939 -0.2013 -0.1022 -0.0225
  234YOPE   C1A 2935  14.505  12.018   9.680  0.0903  0.1945 -0.4417
  234YOPE   D2A 2936  14.395  12.146   9.276 -0.0140 -0.0916  0.0042
  234YOPE   C3A 2937  14.615  12.192   8.962 -0.0882  0.2590  0.0362
  234YOPE   C4A 2938  14.565  12.175   8.545 -0.0278  0.3179  0.0751
  234YOPE   C1B 2939  13.731  12.252   9.936  0.0601 -0.2710  0.4360
  234YOPE   C2B 2940  13.591  12.552   9.580  0.0416  0.1219 -0.0078
  234YOPE   D3B 2941  13.680  12.513   9.156 -0.4599  0.3004  0.0115
  234YOPE   C4B 2942  13.843  12.692   8.823  0.2626 -0.0073  0.0459
  235YOPE   NH3 2943   1.042   2.831   9.784  0.2855  0.1378 -0.1210
  235YOPE   PO4 2944   1.266   3.212   9.994 -0.0042  0.0626 -0.1254
  235YOPE   GL1 2945   1.186   3.253   9.602 -0.0855  0.2637 -0.1419
  235YOPE   GL2 2946   1.171   3.563   9.464  0.3849  0.0256 -0.1408
  235YOPE   C1A 2947   1.218   3.031   9.146 -0.2386  0.3718 -0.3124
  235YOPE   D2A 2948   1.350   2.850   8.708 -0.0869 -0.1003  0.2683
  235YOPE   C3A 2949   1.252   2.714   8.361  0.0368 -0.3417  0.0160
  235YOPE   C4A 2950   0.965   2.597   7.994 -0.0752 -0.1872  0.0108
  235YOPE   C1B 2951   1.145   3.515   8.989 -0.2048 -0.0483  0.1119
  235YOPE   C2B 2952   1.267   3.563   8.555  0.2359 -0.0510  0.1233
  235YOPE   D3B 2953   1.021   3.674   8.208 -0.3706  0.1549 -0.1668
  235YOPE   C4B 2954   0.867   4.104   8.070 -0.0947 -0.3541  0.0880
  236YOPE   NH3 2955   5.536  13.695  10.147  0.2909 -0.0271  0.1175
  236YOPE   PO4 2956   5.640  13.275  10.241  0.2171  0.2618 -0.2363
  236YOPE   GL1 2957   5.559  13.208   9.871 -0.2251  0.1532  0.0479
  236YOPE   GL2 2958   5.526  13.553   9.684 -0.2133 -0.2148  0.4459
  236YOPE   C1A 2959   5.873  13.209   9.532 -0.1682  0.0461  0.2873
  236YOPE   D2A 2960   6.145  12.938   9.248 -0.0213 -0.3857  0.1119
  236YOPE   C3A 2961   5.944  12.699   9.012  0.0679  0.0806  0.1152
  236YOPE   C4A 2962   5.682  12.505   8.646  0.1916  0.2657  0.2373
  236YOPE   C1B 2963   5.844  13.696   9.366 -0.1256 -0.3206 -0.0723
  236YOPE   C2B 2964   6.085  13.858   8.972  0.0173  0.0457  0.1157
  236YOPE   D3B 2965   6.424  13.959   8.629 -0.4753  0.0666  0.1026
  236YOPE   C4B 2966   6.828  13.927   8.431 -0.2354  0.2159  0.3034
  237YOPE   NH3 2967  14.925   7.636   9.725 -0.0403 -0.1668  0.2299
  237YOPE   PO4 2968  15.137   8.099   9.623 -0.0311  0.1342  0.3932
  237YOPE   GL1 2969  15.421   8.102   9.282  0.0728 -0.3633  0.2245
  237YOPE   GL2 2970  15.743   8.283   9.296  0.3161  0.1338  0.0061
  237YOPE   C1A 2971  15.554   8.099   8.863 -0.1600 -0.3586 -0.0695
  237YOPE   D2A 2972  15.934   8.029   8.595  0.1997 -0.2328  0.1279
  237YOPE   C3A 2973  16.056   8.388   8.493 -0.1009 -0.0681 -0.0625
  237YOPE   C4A 2974  16.062   8.888   8.542  0.2131  0.1531 -0.0825
  237YOPE   C1B 2975  16.135   8.175   9.017 -0.0385 -0.1181 -0.0542
  237YOPE   C2B 2976  16.475   8.128   8.716  0.0289 -0.0413 -0.2346
  237YOPE   D3B 2977  16.446   8.045   8.287 -0.2494 -0.0792  0.1593
  237YOPE   C4B 2978  16.565   7.800   7.884 -0.0385  0.3931  0.1168
  238YOPE   NH3 2979  11.614  10.321  10.482 -0.2149 -0.0407 -0.0778
  238YOPE   PO4 2980  11.746  10.516  10.100 -0.0484  0.1073 -0.0903
  238YOPE   GL1 2981  11.785  10.691   9.739  0.0382  0.2115 -0.0290
  238YOPE   GL2 2982  12.097  10.680   9.526  0.3220  0.3587 -0.1408
  238YOPE   C1A 2983  11.651  11.029   9.365  0.2237  0.0374  0.0328
  238YOPE   D2A 2984  11.772  11.213   8.972 -0.2006  0.0758 -0.0815
  238YOPE   C3A 2985  11.824  11.126   8.548  0.0918  0.1013 -0.0356
  238YOPE   C4A 2986  11.651  10.862   8.183  0.0556  0.1875  0.0912
  238YOPE   C1B 2987  12.096  10.851   9.080 -0.0290 -0.3959 -0.0494
  238YOPE   C2B 2988  12.196  10.811   8.616  0.1803  0.1671 -0.1557
  238YOPE   D3B 2989  12.431  10.827   8.267  0.1595 -0.2640 -0.1406
  238YOPE   C4B 2990  12.500  10.702   7.882 -0.0740 -0.0115 -0.0133
  239YOPE   NH3 2991  17.330   6.191   9.676 -0.1043  0.0955 -0.0255
  239YOPE   PO4 2992  17.567   5.781   9.509 -0.0063  0.1265  0.1824
  239YOPE   GL1 2993  17.615   5.643   9.083  0.1917  0.1782  0.0861
  239YOPE   GL2 2994  17.936   5.737   8.932 -0.0959  0.3081 -0.0374
  239YOPE   C1A 2995  17.514   5.761   8.640 -0.2632 -0.2234 -0.1352
  239YOPE   D2A 2996  17.582   5.632   8.220 -0.1773 -0.0666  0.0090
  239YOPE   C3A 2997  17.589   5.745   7.805  0.0852 -0.0515  0.0564
  239YOPE   C4A 2998  17.776   5.823   7.376  0.0882  0.2682 -0.1924
  239YOPE   C1B 2999  18.003   5.603   8.524  0.1548 -0.3536 -0.0209
  239YOPE   C2B 3000  18.098   5.543   8.084 -0.0003  0.1291 -0.1031
  239YOPE   D3B 3001  18.143   5.675   7.689  0.1151 -0.0741 -0.1302
  239YOPE   C4B 3002  18.230   5.897   7.186  0.1203 -0.2430  0.0866
  240YOPE   NH3 3003  11.495  11.927  10.286 -0.0204 -0.0085 -0.1482
  240YOPE   PO4 3004  11.936  12.161  10.458 -0.0034  0.1206 -0.0967
  240YOPE   GL1 3005  11.947  12.022  10.000  0.0201 -0.3753 -0.0062
  240YOPE   GL2 3006  12.172  11.737   9.956  0.0075 -0.0478  0.3752
  240YOPE   C1A 3007  11.786  12.048   9.642 -0.0547 -0.0255 -0.4583
  240YOPE   D2A 3008  11.713  12.029   9.328  0.2036  0.0669 -0.4179
  240YOPE   C3A 3009  11.914  12.223   8.996 -0.0549 -0.0930 -0.0144
  240YOPE   C4A 3010  12.214  12.193   8.671  0.0330 -0.0512 -0.1753
  240YOPE   C1B 3011  12.186  11.718   9.603 -0.1603 -0.0379  0.0177
  240YOPE   C2B 3012  12.268  12.038   9.398  0.1750  0.1521  0.2613
  240YOPE   D3B 3013  12.558  12.182   9.029  0.1221 -0.0048 -0.0762
  240YOPE   C4B 3014  12.759  12.277   8.681 -0.0979  0.1911 -0.1692
  241YOPE   NH3 3015   3.516  15.079  10.554  0.0916 -0.2886  0.0486
  241YOPE   PO4 3016   3.840  14.729  10.487 -0.3856 -0.1917 -0.2483
  241YOPE   GL1 3017   4.014  14.946  10.140 -0.3087  0.1105 -0.0940
  241YOPE   GL2 3018   3.918  14.792   9.850  0.0506 -0.0911  0.1837
  241YOPE   C1A 3019   4.348  15.011   9.775  0.0227  0.2220  0.3025
  241YOPE   D2A 3020   4.447  15.076   9.331 -0.0690  0.2183 -0.0429
  241YOPE   C3A 3021   4.317  15.384   9.088  0.3171 -0.4016  0.0257
  241YOPE   C4A 3022   4.279  15.348   8.662  0.1745  0.2537 -0.1317
  241YOPE   C1B 3023   3.954  14.995   9.481  0.0284  0.1226 -0.0900
  241YOPE   C2B 3024   3.952  14.995   9.159 -0.5662  0.1157 -0.0210
  241YOPE   D3B 3025   3.968  14.944   8.779  0.0002  0.2274 -0.1928
  241YOPE   C4B 3026   3.585  15.038   8.500  0.1212 -0.3988 -0.2104
  242YOPE   NH3 3027   8.579  10.799  10.187  0.0975  0.0592 -0.2061
  242YOPE   PO4 3028   8.697  11.164  10.238  0.0408  0.1112  0.0003
  242YOPE   GL1 3029   8.636  11.235   9.839  0.0387 -0.1439  0.0764
  242YOPE   GL2 3030   8.712  11.444   9.588 -0.0537  0.1057 -0.0795
  242YOPE   C1A 3031   8.812  10.963   9.512 -0.0900  0.3155 -0.0360
  242YOPE   D2A 3032   8.704  10.613   9.260 -0.4758  0.0174 -0.0260
  242YOPE   C3A 3033   8.604  10.526   8.815  0.0384 -0.3352 -0.2670
  242YOPE   C4A 3034   8.825  10.584   8.449 -0.0736 -0.1221 -0.1062
  242YOPE   C1B 3035   8.774  11.491   9.185 -0.0736 -0.1475 -0.1245
  242YOPE   C2B 3036   8.772  11.483   8.715 -0.1655  0.2633 -0.2126
  242YOPE   D3B 3037   8.707  11.869   8.537  0.1377 -0.1745  0.0944
  242YOPE   C4B 3038   8.709  12.301   8.303  0.1936  0.2226 -0.0369
  243YOPE   NH3 3039   0.092   1.774   9.873 -0.1684 -0.0070 -0.3364
  243YOPE   PO4 3040   0.437   1.870  10.193 -0.1258  0.0300 -0.1484
  243YOPE   GL1 3041   0.654   1.593   9.875 -0.4113 -0.0171 -0.0994
  243YOPE   GL2 3042   0.686   1.736   9.594 -0.5347  0.0177  0.3790
  243YOPE   C1A 3043   0.576   1.260   9.603 -0.1320 -0.1749 -0.0442
  243YOPE   D2A 3044   0.278   0.963   9.403  0.0997  0.0202 -0.0558
  243YOPE   C3A 3045   0.344   0.814   9.078 -0.0706 -0.0370 -0.1492
  243YOPE   C4A 3046  -0.078   0.726   8.832 -0.0165  0.2242 -0.1888
  243YOPE   C1B 3047   1.010   1.654   9.270 -0.2365  0.2000  0.0118
  243YOPE   C2B 3048   1.095   1.468   8.793  0.2001  0.1146  0.0749
  243YOPE   D3B 3049   1.374   1.369   8.410  0.1811  0.0810  0.0607
  243YOPE   C4B 3050   1.624   1.493   8.076 -0.0346  0.4016  0.1566
  244YOPE   NH3 3051   7.065  11.065  10.210 -0.1315 -0.1716  0.2257
  244YOPE   PO4 3052   6.746  10.892  10.227 -0.0460  0.4698  0.3233
  244YOPE   GL1 3053   6.697  11.043   9.803  0.0114 -0.0225  0.1751
  244YOPE   GL2 3054   6.938  11.307   9.541 -0.1685  0.0206 -0.2634
  244YOPE   C1A 3055   6.664  10.886   9.304 -0.1587 -0.2382  0.2252
  244YOPE   D2A 3056   6.660  10.874   8.860  0.2747  0.1999 -0.1109
  244YOPE   C3A 3057   6.492  11.061   8.506  0.1450  0.0104  0.0372
  244YOPE   C4A 3058   6.215  11.308   8.186 -0.0353 -0.0799 -0.0267
  244YOPE   C1B 3059   6.761  11.574   9.222  0.2733  0.2329 -0.0639
  244YOPE   C2B 3060   6.749  11.873   8.960  0.1173 -0.1466  0.0105
  244YOPE   D3B 3061   6.682  12.015   8.602 -0.1469 -0.2126 -0.1673
  244YOPE   C4B 3062   6.339  12.028   8.228 -0.0717  0.0805  0.0182
  245YOPE   NH3 3063  14.260  16.153  10.490  0.4368  0.0182  0.3349
  245YOPE   PO4 3064  13.994  16.475  10.285 -0.2544 -0.2192  0.0465
  245YOPE   GL1 3065  14.189  16.207   9.954 -0.1545 -0.1078  0.1943
  245YOPE   GL2 3066  14.015  15.883  10.033  0.0269 -0.1115 -0.2178
  245YOPE   C1A 3067  14.320  15.963   9.595 -0.1905  0.1724 -0.0511
  245YOPE   D2A 3068  14.279  15.800   9.214  0.0296  0.0209 -0.1377
  245YOPE   C3A 3069  14.191  16.031   8.836 -0.1606 -0.0497  0.0286
  245YOPE   C4A 3070  14.288  16.099   8.398 -0.3027  0.2856 -0.1093
  245YOPE   C1B 3071  13.834  16.037   9.584  0.1556 -0.1404 -0.0587
  245YOPE   C2B 3072  13.546  16.184   9.443 -0.3209  0.1239  0.1759
  245YOPE   D3B 3073  13.358  16.157   9.036  0.2353  0.3409 -0.4061
  245YOPE   C4B 3074  13.153  16.426   8.661  0.0137 -0.4006 -0.1643
  246YOPE   NH3 3075  10.143   0.175  10.738 -0.3358  0.0665 -0.0398
  246YOPE   PO4 3076  10.311  -0.307  10.729 -0.2813 -0.1209 -0.0839
  246YOPE   GL1 3077  10.247  -0.132  10.354  0.0481  0.1276  0.0890
  246YOPE   GL2 3078   9.950  -0.184  10.193 -0.1771 -0.0643 -0.1981
  246YOPE   C1A 3079  10.419   0.170  10.058 -0.1698  0.0775  0.0177
  246YOPE   D2A 3080  10.278   0.273   9.585 -0.0864 -0.0450 -0.1549
  246YOPE   C3A 3081  10.538   0.304   9.292 -0.1503 -0.0193 -0.0828
  246YOPE   C4A 3082  10.732  -0.011   9.005  0.1075 -0.0162 -0.2058
  246YOPE   C1B 3083  10.002  -0.174   9.719  0.0212 -0.0169  0.3907
  246YOPE   C2B 3084  10.033  -0.170   9.344 -0.0772 -0.4630  0.2088
  246YOPE   D3B 3085  10.238   0.028   9.054  0.0126 -0.0848  0.0126
  246YOPE   C4B 3086  10.287  -0.100   8.701  0.0328 -0.0209  0.1151
  247YOPE   NH3 3087  14.093   8.888   9.828 -0.0323  0.4158 -0.2065
  247YOPE   PO4 3088  14.074   8.425   9.723  0.0730  0.2457 -0.1836
  247YOPE   GL1 3089  14.101   8.199   9.392 -0.0138 -0.0521  0.0630
  247YOPE   GL2 3090  14.016   7.851   9.538  0.1892 -0.4390 -0.0360
  247YOPE   C1A 3091  14.012   8.076   8.942 -0.3019 -0.1809 -0.3158
  247YOPE   D2A 3092  14.143   8.081   8.597 -0.4372  0.4126  0.0585
  247YOPE   C3A 3093  13.904   8.207   8.192  0.0996  0.0344 -0.0617
  247YOPE   C4A 3094  13.496   8.082   8.068 -0.2446  0.0595 -0.3374
  247YOPE   C1B 3095  14.079   7.635   9.244 -0.3657  0.1969 -0.0721
  247YOPE   C2B 3096  14.083   7.509   8.923  0.3325  0.0150  0.0706
  247YOPE   D3B 3097  14.068   7.497   8.408  0.1103 -0.0402  0.3003
  247YOPE   C4B 3098  13.979   7.694   8.073  0.0933  0.1263 -0.0838
  248YOPE   NH3 3099  14.739   3.484  10.186  0.2828  0.1965 -0.2401
  248YOPE   PO4 3100  14.496   3.883  10.235 -0.0334 -0.0971  0.0879
  248YOPE   GL1 3101  14.481   3.743   9.816  0.0197  0.2100 -0.3860
  248YOPE   GL2 3102  14.463   3.396   9.696 -0.4420 -0.1264  0.1006
  248YOPE   C1A 3103  14.393   3.945   9.422 -0.0700  0.2896 -0.1759
  248YOPE   D2A 3104  14.370   4.061   9.046 -0.0443  0.0969  0.0394
  248YOPE   C3A 3105  14.464   4.418   8.825 -0.2149 -0.1667 -0.1264
  248YOPE   C4A 3106  14.395   4.689   8.512 -0.0337  0.0439  0.1107
  248YOPE   C1B 3107  14.257   3.285   9.247  0.1279 -0.0965 -0.1990
  248YOPE   C2B 3108  13.975   3.217   8.993  0.3528  0.1434  0.1586
  248YOPE   D3B 3109  14.001   3.049   8.587 -0.1011  0.0426  0.0209
  248YOPE   C4B 3110  13.961   2.686   8.311  0.0293  0.1039  0.2525
  249YOPE   NH3 3111  15.977   1.053  10.038  0.0624 -0.1040 -0.0168
  249YOPE   PO4 3112  16.311   1.080   9.879  0.0457 -0.1067 -0.1926
  249YOPE   GL1 3113  16.133   1.112   9.516  0.3291  0.0267 -0.1285
  249YOPE   GL2 3114  15.869   1.292   9.520 -0.1486  0.0050  0.0414
  249YOPE   C1A 3115  16.234   1.086   9.109  0.0299  0.1369 -0.1186
  249YOPE   D2A 3116  16.124   0.945   8.737  0.0573 -0.0239 -0.1825
  249YOPE   C3A 3117  16.361   0.998   8.343 -0.0837  0.1591  0.3477
  249YOPE   C4A 3118  16.376   1.053   7.930 -0.2474  0.0712  0.1538
  249YOPE   C1B 3119  15.763   1.133   9.111  0.2774  0.0865 -0.1564
  249YOPE   C2B 3120  15.699   1.149   8.657 -0.0284 -0.2452 -0.1116
  249YOPE   D3B 3121  15.614   1.354   8.409 -0.2470  0.1397  0.0586
  249YOPE   C4B 3122  15.674   1.665   8.149  0.1478  0.0839 -0.2373
  250YOPE   NH3 3123  17.904  14.779  10.878  0.0717  0.0066  0.1671
  250YOPE   PO4 3124  18.181  15.149  10.900  0.0546  0.1897  0.2121
  250YOPE   GL1 3125  18.408  15.344  10.537  0.0737 -0.0603  0.0262
  250YOPE   GL2 3126  18.281  15.650  10.309  0.0678 -0.0482  0.2132
  250YOPE   C1A 3127  18.626  15.338  10.142  0.1290 -0.2252  0.0415
  250YOPE   D2A 3128  18.440  15.259   9.774  0.2806  0.0976  0.1150
  250YOPE   C3A 3129  18.417  15.335   9.370  0.4542  0.0989  0.1758
  250YOPE   C4A 3130  18.305  15.140   8.972  0.0069  0.1571  0.1169
  250YOPE   C1B 3131  18.097  15.618   9.930  0.0504  0.3528  0.0514
  250YOPE   C2B 3132  18.067  15.644   9.526 -0.0040 -0.1241  0.1753
  250YOPE   D3B 3133  18.043  15.661   9.061 -0.1242 -0.0705 -0.2178
  250YOPE   C4B 3134  17.894  15.560   8.688  0.2643 -0.0540  0.1548
  251YOPE   NH3 3135   5.493   1.766  10.588  0.4364  0.0418 -0.1305
  251YOPE   PO4 3136   5.949   1.951  10.580 -0.2132 -0.0486 -0.0044
  251YOPE   GL1 3137   6.017   1.919  10.183  0.2611 -0.1119 -0.2459
  251YOPE   GL2 3138   6.352   1.784  10.064 -0.3575  0.0705  0.5898
  251YOPE   C1A 3139   5.902   1.798   9.808 -0.0008 -0.2290  0.4125
  251YOPE   D2A 3140   5.576   1.516   9.791 -0.3532  0.2529  0.1567
  251YOPE   C3A 3141   5.342   1.405   9.432 -0.0523  0.2383  0.1009
  251YOPE   C4A 3142   5.080   1.415   9.012  0.0840 -0.1314 -0.0388
  251YOPE   C1B 3143   6.820   1.933  10.026 -0.1396  0.2672  0.3218
  251YOPE   C2B 3144   6.989   2.010   9.578 -0.1980  0.0169 -0.1066
  251YOPE   D3B 3145   7.144   2.025   9.169 -0.0105  0.1476  0.3521
  251YOPE   C4B 3146   6.969   1.855   8.864 -0.1659  0.1750 -0.0827
  252YOPE   NH3 3147  10.602   7.086  10.118 -0.2587 -0.1800  0.1590
  252YOPE   PO4 3148  10.342   6.785  10.195  0.0236  0.0300 -0.0546
  252YOPE   GL1 3149  10.284   6.775   9.748  0.2272  0.2028 -0.3563
  252YOPE   GL2 3150  10.202   7.111   9.747  0.2129 -0.3026  0.0104
  252YOPE   C1A 3151  10.366   6.562   9.320 -0.0120  0.0758 -0.3305
  252YOPE   D2A 3152  10.296   6.522   8.848 -0.0193  0.6038  0.1327
  252YOPE   C3A 3153  10.566   6.436   8.449 -0.1155  0.0035  0.0952
  252YOPE   C4A 3154  10.576   6.218   8.037  0.0310 -0.0667 -0.2063
  252YOPE   C1B 3155  10.100   7.155   9.269  0.0206 -0.0466 -0.2040
  252YOPE   C2B 3156  10.310   6.996   8.889  0.1393  0.0445 -0.3184
  252YOPE   D3B 3157  10.591   6.947   8.490 -0.0410  0.2041  0.4614
  252YOPE   C4B 3158  10.706   7.234   8.054 -0.0743 -0.1362  0.2084
  253YOPE   NH3 3159  14.005   7.435   9.920 -0.0302  0.1464 -0.0118
  253YOPE   PO4 3160  13.568   7.640  10.011 -0.0188 -0.1133 -0.1412
  253YOPE   GL1 3161  13.564   7.664   9.582 -0.2616 -0.5548 -0.2972
  253YOPE   GL2 3162  13.577   7.393   9.520 -0.0144  0.0914 -0.1362
  253YOPE   C1A 3163  13.608   7.782   9.086  0.2176 -0.2249 -0.0117
  253YOPE   D2A 3164  13.711   7.822   8.579  0.2477 -0.1831 -0.0854
  253YOPE   C3A 3165  13.517   7.636   8.169  0.1860 -0.0805  0.3034
  253YOPE   C4A 3166  13.607   7.688   7.743  0.0466 -0.0909  0.0455
  253YOPE   C1B 3167  13.775   7.241   9.255 -0.1759 -0.1619  0.1769
  253YOPE   C2B 3168  13.646   7.283   8.781 -0.0095 -0.0250 -0.3641
  253YOPE   D3B 3169  13.504   7.183   8.367 -0.0122  0.0136 -0.0226
  253YOPE   C4B 3170  13.579   6.834   8.099  0.1031  0.0513 -0.0248
  254YOPE   NH3 3171   5.253   8.562  10.196  0.2270 -0.1744  0.0982
  254YOPE   PO4 3172   5.343   9.036  10.383 -0.0337  0.2865  0.0488
  254YOPE   GL1 3173   5.466   8.938   9.911  0.0536 -0.1019 -0.1176
  254YOPE   GL2 3174   5.815   9.047   9.862  0.3293 -0.0502 -0.0822
  254YOPE   C1A 3175   5.614   8.890   9.473  0.0894 -0.1274  0.0289
  254YOPE   D2A 3176   5.577   9.004   9.089  0.1428  0.4295  0.2876
  254YOPE   C3A 3177   5.227   9.047   8.894  0.3750  0.2503  0.0487
  254YOPE   C4A 3178   5.030   9.175   8.635 -0.1863  0.1164  0.2185
  254YOPE   C1B 3179   5.963   9.216   9.394 -0.1647 -0.1542  0.3758
  254YOPE   C2B 3180   6.154   8.990   9.102  0.4227  0.0401  0.1434
  254YOPE   D3B 3181   6.078   8.998   8.616 -0.1064 -0.0476  0.1743
  254YOPE   C4B 3182   6.444   8.941   8.251 -0.0180  0.0932 -0.1255
  255YOPE   NH3 3183   3.326  15.802  10.509  0.1235 -0.0081 -0.0339
  255YOPE   PO4 3184   3.672  16.007  10.481  0.0277  0.0426  0.1427
  255YOPE   GL1 3185   3.506  16.157  10.119 -0.2034  0.2889  0.2974
  255YOPE   GL2 3186   3.245  16.074   9.954 -0.0024  0.3685  0.0297
  255YOPE   C1A 3187   3.697  16.448   9.746  0.1009  0.0135  0.2791
  255YOPE   D2A 3188   3.768  16.432   9.367 -0.1445  0.3083 -0.1846
  255YOPE   C3A 3189   4.132  16.263   9.164 -0.0763 -0.0308  0.1232
  255YOPE   C4A 3190   4.103  16.352   8.630  0.2418 -0.0145 -0.1556
  255YOPE   C1B 3191   3.135  16.273   9.559  0.3625 -0.0910  0.0836
  255YOPE   C2B 3192   3.075  16.475   9.135 -0.0192  0.3296  0.0965
  255YOPE   D3B 3193   3.058  16.678   8.797 -0.4326 -0.2313  0.0305
  255YOPE   C4B 3194   2.911  17.061   8.741  0.0630  0.0020 -0.1476
  256YOPE   NH3 3195   1.053   8.787   9.908 -0.0271  0.0149 -0.0682
  256YOPE   PO4 3196   0.766   8.460   9.777  0.0566  0.1215  0.2061
  256YOPE   GL1 3197   0.974   8.542   9.381  0.2258  0.1920 -0.2902
  256YOPE   GL2 3198   1.108   8.802   9.374  0.3806 -0.1170  0.0408
  256YOPE   C1A 3199   1.212   8.424   9.013  0.1021  0.0967 -0.2946
  256YOPE   D2A 3200   1.218   8.425   8.542  0.2052  0.0609  0.0096
  256YOPE   C3A 3201   0.977   8.136   8.253 -0.1120  0.0038  0.3180
  256YOPE   C4A 3202   1.020   8.130   7.813 -0.0879  0.0474  0.1852
  256YOPE   C1B 3203   1.081   8.981   9.087 -0.1637  0.2015  0.1942
  256YOPE   C2B 3204   1.276   8.828   8.817  0.1083  0.0328 -0.1995
  256YOPE   D3B 3205   1.436   8.982   8.562  0.1677 -0.1267  0.0594
  256YOPE   C4B 3206   1.713   9.071   8.246 -0.0614  0.2276 -0.2739
  257YOPE   NH3 3207  14.232   3.413  10.125  0.2067  0.1613 -0.1573
  257YOPE   PO4 3208  13.755   3.114  10.127  0.1805 -0.1784 -0.0029
  257YOPE   GL1 3209  13.537   2.849   9.795  0.1711  0.0611 -0.4268
  257YOPE   GL2 3210  13.567   3.138   9.627  0.0802 -0.1031  0.0459
  257YOPE   C1A 3211  13.278   2.682   9.430  0.1097 -0.1432  0.1281
  257YOPE   D2A 3212  13.208   2.506   8.923  0.0985 -0.2404 -0.1073
  257YOPE   C3A 3213  12.868   2.379   8.584 -0.0561 -0.0884  0.1984
  257YOPE   C4A 3214  12.523   2.388   8.678  0.1512  0.1893  0.1333
  257YOPE   C1B 3215  13.752   2.927   9.364 -0.1647  0.0968  0.2138
  257YOPE   C2B 3216  13.652   2.836   8.856  0.1442  0.3237  0.1099
  257YOPE   D3B 3217  13.404   2.750   8.499 -0.0828  0.0756 -0.2009
  257YOPE   C4B 3218  13.550   2.796   8.097  0.0868 -0.0051 -0.1123
  258YOPE   NH3 3219   7.852   4.849   9.996  0.0326  0.0371 -0.0113
  258YOPE   PO4 3220   7.688   4.443  10.006  0.2880  0.2867 -0.0554
  258YOPE   GL1 3221   7.646   4.503   9.573  0.1292 -0.2902 -0.0956
  258YOPE   GL2 3222   7.208   4.400   9.478 -0.2104 -0.1673  0.0857
  258YOPE   C1A 3223   7.560   4.557   9.197  0.1910 -0.0123 -0.0424
  258YOPE   D2A 3224   7.507   4.556   8.743  0.0779 -0.0559  0.3080
  258YOPE   C3A 3225   7.413   4.334   8.424  0.1015  0.4591  0.1116
  258YOPE   C4A 3226   7.545   3.921   8.197  0.2405 -0.2085  0.0057
  258YOPE   C1B 3227   6.902   4.391   9.308  0.0340 -0.5443 -0.1826
  258YOPE   C2B 3228   6.628   4.472   9.257  0.0801 -0.0269 -0.0591
  258YOPE   D3B 3229   6.559   4.457   8.882  0.0367 -0.0381  0.0096
  258YOPE   C4B 3230   6.594   4.875   8.546 -0.0296  0.2257 -0.1537
  259YOPE   NH3 3231  17.189   7.908   9.568  0.0890  0.2476  0.0936
  259YOPE   PO4 3232  17.375   8.290   9.598 -0.1497  0.0752  0.0766
  259YOPE   GL1 3233  17.525   8.037   9.225 -0.1593  0.0186  0.1894
  259YOPE   GL2 3234  17.789   8.007   9.196 -0.0561  0.2678 -0.4617
  259YOPE   C1A 3235  17.451   7.989   8.716  0.2055  0.0895 -0.0961
  259YOPE   D2A 3236  17.451   7.891   8.388  0.0014  0.0122 -0.2814
  259YOPE   C3A 3237  17.361   8.219   8.229  0.0410  0.0631  0.1992
  259YOPE   C4A 3238  16.900   8.290   8.119  0.2635 -0.3688  0.0383
  259YOPE   C1B 3239  17.929   7.983   8.806  0.0329 -0.2044 -0.1595
  259YOPE   C2B 3240  17.972   8.097   8.447  0.3796  0.0307 -0.0600
  259YOPE   D3B 3241  17.886   7.962   8.020 -0.3782 -0.0615 -0.0240
  259YOPE   C4B 3242  17.534   7.828   7.796 -0.2340 -0.0890 -0.0497
  260YOPE   NH3 3243  10.930   8.380   9.875 -0.3343 -0.2293 -0.1008
  260YOPE   PO4 3244  10.486   8.449   9.788 -0.0835 -0.2678 -0.1370
  260YOPE   GL1 3245  10.277   8.272   9.451  0.0275  0.1233  0.4439
  260YOPE   GL2 3246  10.511   8.033   9.452  0.1291 -0.0248  0.0212
  260YOPE   C1A 3247  10.278   8.343   8.994  0.1488  0.0968 -0.2500
  260YOPE   D2A 3248  10.193   8.661   8.741 -0.3403  0.1636  0.1294
  260YOPE   C3A 3249  10.016   8.829   8.445 -0.3676 -0.0645  0.3369
  260YOPE   C4A 3250   9.801   9.248   8.456  0.1827  0.2740 -0.2091
  260YOPE   C1B 3251  10.692   7.989   9.060 -0.1606 -0.2106  0.2567
  260YOPE   C2B 3252  10.962   7.928   8.646  0.4499 -0.1315 -0.1734
  260YOPE   D3B 3253  11.124   7.783   8.314 -0.0518  0.0019 -0.0956
  260YOPE   C4B 3254  11.444   7.748   7.997  0.0430 -0.2492 -0.0446
  261YOPE   NH3 3255   8.183  14.652  10.102  0.1804  0.1105 -0.0666
  261YOPE   PO4 3256   8.515  14.447  10.373 -0.1507  0.2304 -0.2842
  261YOPE   GL1 3257   8.687  14.619   9.978  0.1200 -0.0664  0.0654
  261YOPE   GL2 3258   8.698  14.975   9.904  0.0018 -0.1275  0.1178
  261YOPE   C1A 3259   8.507  14.662   9.547 -0.2358  0.2972 -0.1825
  261YOPE   D2A 3260   8.377  14.487   9.118  0.1666 -0.2655 -0.3327
  261YOPE   C3A 3261   8.643  14.592   8.700 -0.0045 -0.0501 -0.2091
  261YOPE   C4A 3262   8.981  14.823   8.387  0.0166  0.0052  0.2919
  261YOPE   C1B 3263   8.875  15.030   9.511 -0.1047  0.1225 -0.0988
  261YOPE   C2B 3264   9.081  15.139   9.047 -0.1802  0.3671 -0.2050
  261YOPE   D3B 3265   9.358  15.082   8.765  0.0441  0.0081 -0.0498
  261YOPE   C4B 3266   9.607  15.227   8.430 -0.2414 -0.0565 -0.2470
  262YOPE   NH3 3267   6.840  13.470  10.335  0.1049  0.0624 -0.1736
  262YOPE   PO4 3268   6.569  13.123  10.446 -0.0132 -0.1129  0.0873
  262YOPE   GL1 3269   6.609  13.226  10.006  0.3099 -0.1011  0.1562
  262YOPE   GL2 3270   6.567  13.635   9.931 -0.2622  0.4958  0.0524
  262YOPE   C1A 3271   6.372  13.289   9.549 -0.0236  0.2980  0.0672
  262YOPE   D2A 3272   6.231  13.444   9.119 -0.0932 -0.1516 -0.0575
  262YOPE   C3A 3273   6.544  13.515   8.777  0.0699  0.0777 -0.0342
  262YOPE   C4A 3274   6.907  13.618   8.882 -0.0980  0.5564 -0.1748
  262YOPE   C1B 3275   6.418  13.777   9.496  0.4002  0.1667  0.0408
  262YOPE   C2B 3276   6.578  13.862   9.139  0.0295 -0.1711 -0.1522
  262YOPE   D3B 3277   6.820  14.129   8.924  0.1093 -0.1595  0.2092
  262YOPE   C4B 3278   6.998  14.424   8.651 -0.0522  0.0002  0.2714
  263YOPE   NH3 3279   7.884   2.583  10.605 -0.1136  0.2054 -0.2752
  263YOPE   PO4 3280   8.047   2.977  10.589 -0.0272  0.1917 -0.0046
  263YOPE   GL1 3281   7.955   2.946  10.086  0.3036 -0.1675 -0.0385
  263YOPE   GL2 3282   7.730   3.051   9.968 -0.0498  0.2548 -0.0721
  263YOPE   C1A 3283   8.060   3.060   9.658  0.1075 -0.1615 -0.2632
  263YOPE   D2A 3284   8.085   3.130   9.236  0.2241 -0.0092  0.2618
  263YOPE   C3A 3285   7.984   3.064   8.887 -0.2337 -0.0127  0.2537
  263YOPE   C4A 3286   7.781   3.013   8.523 -0.0594 -0.0055  0.0863
  263YOPE   C1B 3287   7.611   3.140   9.535  0.1540  0.2141 -0.0417
  263YOPE   C2B 3288   7.556   3.145   9.155  0.1690  0.0560  0.0341
  263YOPE   D3B 3289   7.478   3.204   8.807  0.2816 -0.2877 -0.2295
  263YOPE   C4B 3290   7.399   3.351   8.406 -0.0691 -0.0910 -0.3738
  264YOPE   NH3 3291   6.368   4.121  10.154  0.1669  0.1857  0.1838
  264YOPE   PO4 3292   6.597   4.129   9.801 -0.2103 -0.1970 -0.1426
  264YOPE   GL1 3293   6.433   3.721   9.767  0.0923  0.0046 -0.1556
  264YOPE   GL2 3294   6.078   3.647   9.723 -0.1825 -0.4406 -0.3389
  264YOPE   C1A 3295   6.318   3.290   9.592  0.0752  0.2784 -0.4503
  264YOPE   D2A 3296   6.115   3.065   9.258 -0.1339  0.2624 -0.0742
  264YOPE   C3A 3297   6.075   2.747   8.997  0.1234 -0.0571  0.1699
  264YOPE   C4A 3298   6.081   2.596   8.624  0.1710  0.2089  0.1014
  264YOPE   C1B 3299   6.145   3.531   9.207  0.1462 -0.0916  0.1101
  264YOPE   C2B 3300   6.136   3.611   8.814 -0.2265  0.1810  0.3257
  264YOPE   D3B 3301   5.810   3.446   8.497  0.3287  0.2847  0.0353
  264YOPE   C4B 3302   5.372   3.411   8.688  0.0117  0.1192  0.2751
  265YOPE   NH3 3303   0.416   2.603  10.192  0.3130  0.0853  0.0246
  265YOPE   PO4 3304   0.523   2.750   9.744  0.0940  0.0679  0.0044
  265YOPE   GL1 3305   0.341   2.492   9.362  0.2541  0.0482 -0.3128
  265YOPE   GL2 3306  -0.024   2.474   9.294 -0.1830  0.0076  0.1596
  265YOPE   C1A 3307   0.473   2.277   9.103 -0.1380 -0.0874  0.1018
  265YOPE   D2A 3308   0.176   2.117   8.779  0.0569 -0.0736 -0.2328
  265YOPE   C3A 3309   0.363   1.917   8.485 -0.2809  0.1593  0.0107
  265YOPE   C4A 3310   0.470   1.518   8.480 -0.0007 -0.0015  0.0401
  265YOPE   C1B 3311  -0.108   2.561   8.860 -0.2266  0.1226  0.0107
  265YOPE   C2B 3312  -0.203   2.568   8.525 -0.1081  0.2400 -0.0715
  265YOPE   D3B 3313  -0.494   2.790   8.224  0.2659  0.2051  0.0275
  265YOPE   C4B 3314  -0.665   3.002   7.752 -0.2708  0.1331  0.1403
  266YOPE   NH3 3315   9.334  17.109  10.382  0.0365 -0.1895  0.0318
  266YOPE   PO4 3316   9.817  17.178  10.331 -0.1613 -0.3477  0.1299
  266YOPE   GL1 3317   9.985  17.402  10.038  0.0024 -0.1137  0.1014
  266YOPE   GL2 3318   9.710  17.468   9.889  0.0229 -0.1243 -0.2329
  266YOPE   C1A 3319  10.294  17.681   9.826  0.1710  0.0700  0.4070
  266YOPE   D2A 3320  10.470  17.654   9.423 -0.1748 -0.1041 -0.1806
  266YOPE   C3A 3321  10.851  17.831   9.318 -0.0002 -0.1612  0.0724
  266YOPE   C4A 3322  11.028  17.862   8.841 -0.0157  0.0736  0.2653
  266YOPE   C1B 3323   9.911  17.605   9.484  0.1113 -0.0164  0.1863
  266YOPE   C2B 3324  10.061  17.479   9.242  0.1547 -0.2203 -0.0855
  266YOPE   D3B 3325  10.083  17.517   8.825 -0.0742 -0.2234  0.0571
  266YOPE   C4B 3326   9.946  17.722   8.483  0.0377 -0.2524 -0.1919
  267YOPE   NH3 3327  14.578   0.886  10.183  0.0592 -0.1394  0.3587
  267YOPE   PO4 3328  14.230   0.505  10.085 -0.4695 -0.1606 -0.0468
  267YOPE   GL1 3329  14.100   0.648   9.665  0.0471 -0.3495  0.0312
  267YOPE   GL2 3330  13.775   0.611   9.721  0.0324 -0.1505 -0.0039
  267YOPE   C1A 3331  13.978   0.856   9.271 -0.0522  0.0799  0.0829
  267YOPE   D2A 3332  13.896   0.920   8.829 -0.0379  0.0842  0.2299
  267YOPE   C3A 3333  13.860   1.382   8.750 -0.2087  0.1743  0.0468
  267YOPE   C4A 3334  14.202   1.654   8.553 -0.0499  0.0902 -0.1148
  267YOPE   C1B 3335  13.663   0.447   9.303  0.5564 -0.0426 -0.1512
  267YOPE   C2B 3336  13.564   0.506   8.947 -0.2143  0.0454 -0.0145
  267YOPE   D3B 3337  13.566   0.457   8.505 -0.1621  0.1897  0.3534
  267YOPE   C4B 3338  13.531   0.141   8.092 -0.1762 -0.0363  0.1600
  268POPC   NC3 3339   9.149   5.429  10.138  0.3169 -0.0329  0.1056
  268POPC   PO4 3340   9.262   5.855  10.173 -0.0173  0.0968 -0.1733
  268POPC   GL1 3341   9.437   5.754   9.820 -0.1505  0.0026 -0.0234
  268POPC   GL2 3342   9.679   5.889   9.855 -0.0015 -0.2370 -0.0334
  268POPC   C1A 3343   9.294   5.624   9.445 -0.4532 -0.2180 -0.1317
  268POPC   D2A 3344   9.292   5.631   8.935  0.0657 -0.2485 -0.1084
  268POPC   C3A 3345   8.969   5.572   8.728 -0.2258 -0.0470 -0.0724
  268POPC   C4A 3346   8.791   5.546   8.283 -0.1227 -0.3840 -0.4645
  268POPC   C1B 3347   9.863   5.790   9.412 -0.2930  0.1594  0.1296
  268POPC   C2B 3348   9.816   5.776   8.986 -0.0477  0.3087  0.1844
  268POPC   C3B 3349   9.543   5.846   8.585 -0.1677 -0.0420  0.0508
  268POPC   C4B 3350   9.095   5.995   8.439  0.1897  0.0851  0.1084
  269POPC   NC3 3351   5.739   0.795  10.637  0.1330  0.2611  0.1341
  269POPC   PO4 3352   5.631   1.278  10.547 -0.1771  0.1038  0.0512
  269POPC   GL1 3353   5.639   1.127  10.159 -0.1153  0.1114  0.2126
  269POPC   GL2 3354   5.924   1.262   9.997 -0.0279  0.0541 -0.0187
  269POPC   C1A 3355   5.537   1.036   9.721 -0.0669  0.3991  0.0319
  269POPC   D2A 3356   5.129   0.848   9.523  0.0647  0.1762  0.2202
  269POPC   C3A 3357   4.765   1.038   9.468  0.0212  0.0453 -0.0583
  269POPC   C4A 3358   4.457   0.948   9.678 -0.1794  0.0781  0.1933
  269POPC   C1B 3359   6.190   1.380   9.680  0.0020 -0.0625  0.1776
  269POPC   C2B 3360   5.943   1.530   9.289  0.1627 -0.2944  0.0148
  269POPC   C3B 3361   5.978   1.808   8.859 -0.0173  0.0534 -0.2400
  269POPC   C4B 3362   6.328   1.843   8.705  0.1519 -0.2088 -0.2589
  270POPC   NC3 3363  10.727   3.483  10.503  0.1684  0.0031 -0.0274
  270POPC   PO4 3364  11.124   3.244  10.376 -0.1732  0.2320 -0.1478
  270POPC   GL1 3365  11.300   2.897  10.080  0.0619  0.0421 -0.2289
  270POPC   GL2 3366  11.580   2.727  10.067  0.1151 -0.1333 -0.1865
  270POPC   C1A 3367  11.253   2.748   9.673 -0.1568  0.4904 -0.0331
  270POPC   D2A 3368  11.392   2.589   9.266 -0.2342  0.0882  0.0003
  270POPC   C3A 3369  11.282   2.794   8.980 -0.1517 -0.0397  0.1316
  270POPC   C4A 3370  11.325   2.841   8.597 -0.1601  0.2881  0.1326
  270POPC   C1B 3371  11.934   2.833   9.717 -0.0335  0.0243  0.1406
  270POPC   C2B 3372  11.933   2.971   9.333  0.4640  0.1898  0.2185
  270POPC   C3B 3373  11.824   3.180   8.898  0.1880 -0.2027  0.1131
  270POPC   C4B 3374  11.692   3.189   8.455 -0.0007  0.2662 -0.0561
  271POPC   NC3 3375  13.324  17.634  10.326 -0.1010 -0.0690 -0.1974
  271POPC   PO4 3376  13.644  17.459  10.200 -0.4577  0.1695  0.0455
  271POPC   GL1 3377  13.534  17.731   9.894  0.2128  0.0033 -0.1721
  271POPC   GL2 3378  13.185  17.624   9.819  0.0557  0.0468  0.0120
  271POPC   C1A 3379  13.494  17.792   9.420 -0.1780 -0.0444 -0.0168
  271POPC   D2A 3380  13.372  18.182   9.291 -0.2533  0.0307 -0.0787
  271POPC   C3A 3381  12.970  18.175   9.219  0.2490 -0.0204  0.0273
  271POPC   C4A 3382  12.781  18.119   8.797 -0.1267 -0.1213 -0.0174
  271POPC   C1B 3383  13.007  17.445   9.493 -0.3787  0.2226  0.1221
  271POPC   C2B 3384  13.094  17.706   9.115 -0.1941 -0.0812  0.1201
  271POPC   C3B 3385  13.241  17.819   8.763  0.0742 -0.0540 -0.1689
  271POPC   C4B 3386  13.551  17.917   8.478  0.2123  0.0613 -0.0262
  272POPC   NC3 3387   4.862  10.289  10.385 -0.0607 -0.0653 -0.1433
  272POPC   PO4 3388   4.383  10.193  10.355 -0.0710  0.2253  0.0634
  272POPC   GL1 3389   4.404  10.357  10.016 -0.0878 -0.1791 -0.0655
  272POPC   GL2 3390   4.733  10.561   9.978 -0.1617 -0.0852 -0.4557
  272POPC   C1A 3391   4.497  10.251   9.685  0.0112  0.2141 -0.0965
  272POPC   D2A 3392   4.584  10.191   9.252  0.1000 -0.1158  0.0817
  272POPC   C3A 3393   4.947  10.282   8.998  0.0782  0.1236  0.2765
  272POPC   C4A 3394   4.985  10.149   8.569 -0.0217  0.1712 -0.0309
  272POPC   C1B 3395   4.900  10.867   9.644  0.0052 -0.0063  0.1342
  272POPC   C2B 3396   4.900  10.719   9.274 -0.1952 -0.2342  0.2702
  272POPC   C3B 3397   4.640  10.667   8.966 -0.2008  0.2089  0.1773
  272POPC   C4B 3398   4.511  10.223   8.770  0.0058  0.0944  0.2769
  273POPC   NC3 3399  13.690   2.068  10.729  0.1081  0.1535  0.1572
  273POPC   PO4 3400  13.788   1.731  10.366 -0.1347 -0.1868 -0.1024
  273POPC   GL1 3401  13.530   1.482  10.055  0.1848  0.0094 -0.0903
  273POPC   GL2 3402  13.280   1.643  10.072 -0.3371  0.1543  0.0940
  273POPC   C1A 3403  13.533   1.487   9.617  0.1736 -0.1987 -0.3373
  273POPC   D2A 3404  13.785   1.743   9.197 -0.2295  0.2340 -0.3043
  273POPC   C3A 3405  13.883   1.877   8.818  0.0997  0.2230  0.3924
  273POPC   C4A 3406  13.731   1.880   8.383  0.3173 -0.0571  0.0288
  273POPC   C1B 3407  13.050   1.699   9.707 -0.1718  0.1411  0.1840
  273POPC   C2B 3408  13.097   1.520   9.320 -0.0106 -0.1155 -0.1797
  273POPC   C3B 3409  12.972   1.657   8.852 -0.0380  0.1291 -0.1143
  273POPC   C4B 3410  12.673   1.874   8.620 -0.0338  0.0247 -0.2509
  274POPC   NC3 3411  11.598  14.165  10.954  0.1873  0.3217 -0.0201
  274POPC   PO4 3412  11.335  13.802  11.008 -0.2260  0.2418  0.1967
  274POPC   GL1 3413  11.390  13.790  10.545 -0.0450 -0.0171 -0.1366
  274POPC   GL2 3414  11.644  13.916  10.549 -0.0246  0.0329  0.0539
  274POPC   C1A 3415  11.620  13.464  10.306  0.1461  0.1618 -0.0183
  274POPC   D2A 3416  11.540  13.252   9.900  0.1651  0.2408 -0.0553
  274POPC   C3A 3417  11.195  13.309   9.590  0.0264  0.0880 -0.3108
  274POPC   C4A 3418  10.879  13.285   9.280 -0.2932  0.0236  0.0996
  274POPC   C1B 3419  11.864  13.890  10.145 -0.2745 -0.0208  0.4184
  274POPC   C2B 3420  11.787  13.792   9.758 -0.1399  0.2705  0.1628
  274POPC   C3B 3421  11.767  13.658   9.288 -0.1913 -0.0939  0.0621
  274POPC   C4B 3422  11.872  13.308   9.015  0.0348 -0.1148 -0.3525
  275POPC   NC3 3423   6.520   4.771  10.186 -0.0439 -0.1975  0.0873
  275POPC   PO4 3424   6.243   4.558   9.967  0.0742 -0.2265  0.5054
  275POPC   GL1 3425   6.255   4.668   9.538 -0.0155 -0.0274 -0.1559
  275POPC   GL2 3426   6.484   4.871   9.487 -0.1235 -0.1527 -0.1714
  275POPC   C1A 3427   6.170   4.633   9.133  0.2042  0.0191 -0.2765
  275POPC   D2A 3428   6.129   4.803   8.733  0.3795  0.1582 -0.0455
  275POPC   C3A 3429   5.759   4.892   8.438 -0.0105 -0.0386 -0.0961
  275POPC   C4A 3430   5.512   5.025   8.110  0.3104  0.1141  0.4342
  275POPC   C1B 3431   6.453   5.054   9.015  0.0154 -0.0852  0.0757
  275POPC   C2B 3432   6.425   5.272   8.661  0.0628  0.1537 -0.0242
  275POPC   C3B 3433   6.155   5.280   8.382 -0.3194  0.2434 -0.1019
  275POPC   C4B 3434   5.851   5.413   8.069 -0.0678  0.3484  0.1589
  276POPC   NC3 3435   9.309   3.452  10.569 -0.0105 -0.4360  0.0908
  276POPC   PO4 3436   9.704   3.215  10.649  0.1700 -0.4303  0.2795
  276POPC   GL1 3437   9.795   3.176  10.222  0.0628  0.3139 -0.0130
  276POPC   GL2 3438   9.514   3.103  10.182  0.1976  0.2397  0.1991
  276POPC   C1A 3439   9.943   3.099   9.786 -0.0211 -0.2621  0.1029
  276POPC   D2A 3440   9.853   3.452   9.468 -0.0201 -0.0596 -0.2478
  276POPC   C3A 3441   9.874   3.326   9.133  0.1387  0.2471 -0.3821
  276POPC   C4A 3442   9.809   3.382   8.749  0.0584  0.0210  0.2099
  276POPC   C1B 3443   9.368   2.904   9.827  0.0827 -0.2424  0.0376
  276POPC   C2B 3444   9.232   2.695   9.613 -0.1716  0.0589  0.3517
  276POPC   C3B 3445   8.987   2.461   9.368  0.0776  0.2337 -0.0495
  276POPC   C4B 3446   9.012   2.253   8.930  0.0712 -0.0263 -0.0374
  277POPC   NC3 3447   6.993   5.442  10.065  0.0898  0.1964 -0.6293
  277POPC   PO4 3448   6.545   5.224   9.892  0.0928 -0.1899  0.0084
  277POPC   GL1 3449   6.627   5.338   9.533 -0.2031 -0.2732  0.0188
  277POPC   GL2 3450   6.514   5.657   9.463  0.2668 -0.0144 -0.1568
  277POPC   C1A 3451   6.782   5.373   9.164  0.1053  0.1316 -0.1485
  277POPC   D2A 3452   6.895   5.379   8.755 -0.0061  0.1285 -0.2445
  277POPC   C3A 3453   7.277   5.215   8.517  0.0745  0.1490  0.0321
  277POPC   C4A 3454   7.304   5.080   8.054 -0.0882 -0.1293 -0.1845
  277POPC   C1B 3455   6.450   5.844   9.164 -0.2012 -0.1031  0.1593
  277POPC   C2B 3456   6.448   5.803   8.717  0.2288  0.0069 -0.0912
  277POPC   C3B 3457   6.582   5.657   8.284 -0.0484 -0.2008  0.1467
  277POPC   C4B 3458   6.537   6.028   8.023  0.0885 -0.0849  0.1826
  278POPC   NC3 3459   3.388  17.275  10.712  0.0008 -0.0147 -0.1495
  278POPC   PO4 3460   3.323  17.667  10.520 -0.0361 -0.1826 -0.0514
  278POPC   GL1 3461   3.296  17.928  10.224 -0.1917  0.1719  0.0635
  278POPC   GL2 3462   3.510  17.937  10.066  0.2769 -0.1102 -0.0587
  278POPC   C1A 3463   3.256  18.344   9.970  0.2235 -0.0703  0.2106
  278POPC   D2A 3464   3.120  18.442   9.625 -0.0880 -0.0706 -0.1002
  278POPC   C3A 3465   3.235  18.331   9.265 -0.0146 -0.2207  0.3005
  278POPC   C4A 3466   3.333  18.365   8.976 -0.1492 -0.3793 -0.2173
  278POPC   C1B 3467   3.290  17.871   9.646  0.0454 -0.2559  0.2709
  278POPC   C2B 3468   3.369  17.877   9.197  0.0066  0.0844 -0.2398
  278POPC   C3B 3469   3.574  17.779   8.801 -0.1558 -0.0519 -0.0823
  278POPC   C4B 3470   3.748  17.530   8.436  0.0759 -0.5359  0.0622
  279POPC   NC3 3471   3.587   5.794   9.877 -0.3281  0.1613 -0.1251
  279POPC   PO4 3472   3.976   5.719   9.846  0.0028  0.0371 -0.1546
  279POPC   GL1 3473   3.984   5.719   9.515 -0.1335 -0.1595 -0.1006
  279POPC   GL2 3474   3.753   5.478   9.455  0.2920  0.0064  0.1495
  279POPC   C1A 3475   4.121   5.638   9.127  0.0695 -0.1029  0.1914
  279POPC   D2A 3476   4.182   5.746   8.653 -0.2434 -0.1431 -0.0846
  279POPC   C3A 3477   4.204   5.483   8.317  0.0118 -0.0211 -0.1217
  279POPC   C4A 3478   4.127   5.333   7.911 -0.2085  0.0937  0.4182
  279POPC   C1B 3479   3.649   5.411   9.070  0.2955 -0.0035 -0.0580
  279POPC   C2B 3480   3.735   5.411   8.590 -0.2376 -0.1206 -0.0525
  279POPC   C3B 3481   3.647   5.493   8.186  0.0356 -0.0988  0.0467
  279POPC   C4B 3482   3.541   5.292   7.846 -0.0594 -0.1257  0.1158
  280POPC   NC3 3483   6.087   7.845  10.388 -0.0903 -0.0557  0.2105
  280POPC   PO4 3484   5.954   7.551  10.418  0.1097  0.3094 -0.0584
  280POPC   GL1 3485   6.273   7.379  10.280  0.2233  0.0655  0.4444
  280POPC   GL2 3486   6.492   7.582  10.135 -0.3104  0.0343  0.1974
  280POPC   C1A 3487   6.510   7.160   9.787  0.1800 -0.3857  0.1643
  280POPC   D2A 3488   6.660   7.060   9.375 -0.2188  0.0763  0.1820
  280POPC   C3A 3489   7.041   6.919   9.188 -0.0150 -0.0991  0.0728
  280POPC   C4A 3490   7.313   7.082   8.855  0.0350  0.0701  0.2426
  280POPC   C1B 3491   6.474   7.632   9.631 -0.2073 -0.2175 -0.0428
  280POPC   C2B 3492   6.352   7.513   9.279  0.0311 -0.1856 -0.2286
  280POPC   C3B 3493   6.434   7.544   8.911 -0.1430 -0.0315  0.1222
  280POPC   C4B 3494   6.679   7.572   8.573  0.1218  0.2740 -0.0031
  281POPC   NC3 3495  14.941   8.941  10.216  0.1051 -0.2139 -0.2129
  281POPC   PO4 3496  15.197   9.391  10.028  0.2127 -0.0076  0.0284
  281POPC   GL1 3497  15.386   9.379   9.600 -0.0344  0.0127 -0.0668
  281POPC   GL2 3498  15.779   9.410   9.525 -0.0938 -0.1625 -0.2715
  281POPC   C1A 3499  15.258   9.414   9.112  0.2195 -0.0290 -0.0360
  281POPC   D2A 3500  15.217   9.590   8.689  0.0477 -0.1620  0.0100
  281POPC   C3A 3501  15.390   9.559   8.271  0.0739  0.0796  0.1317
  281POPC   C4A 3502  15.666   9.781   8.003  0.1573  0.0451  0.4054
  281POPC   C1B 3503  16.108   9.400   9.261 -0.1907  0.1716 -0.2244
  281POPC   C2B 3504  16.081   9.496   8.845  0.1403 -0.2221 -0.0157
  281POPC   C3B 3505  15.991   9.344   8.419 -0.1411  0.3324 -0.0082
  281POPC   C4B 3506  16.160   9.478   8.009  0.0533  0.0834 -0.0526
  282POPC   NC3 3507   5.036  11.272  10.437  0.1584  0.2533  0.1163
  282POPC   PO4 3508   4.759  10.875  10.338 -0.1443 -0.1931  0.1101
  282POPC   GL1 3509   4.651  11.199   9.971  0.1920 -0.4456  0.0607
  282POPC   GL2 3510   4.822  11.576  10.074  0.3465  0.0631  0.2860
  282POPC   C1A 3511   4.489  11.394   9.642  0.3051  0.1798  0.2198
  282POPC   D2A 3512   4.590  11.518   9.287  0.0971  0.0841  0.2071
  282POPC   C3A 3513   4.326  11.569   9.045 -0.2686  0.1188  0.0319
  282POPC   C4A 3514   4.148  11.673   8.626 -0.3046 -0.2081  0.3444
  282POPC   C1B 3515   5.083  11.307   9.737 -0.1779  0.1288  0.2127
  282POPC   C2B 3516   5.106  11.218   9.369 -0.5278 -0.0807  0.1559
  282POPC   C3B 3517   5.004  11.081   8.921 -0.0960 -0.1448  0.0051
  282POPC   C4B 3518   4.769  11.107   8.589  0.0771  0.0404 -0.0932
  283POPC   NC3 3519   5.442   9.518  10.475 -0.0583 -0.1635 -0.4910
  283POPC   PO4 3520   5.276   9.980  10.378  0.2605  0.1460  0.1810
  283POPC   GL1 3521   5.343   9.706   9.953 -0.1084 -0.0929  0.0990
  283POPC   GL2 3522   5.402   9.419   9.993 -0.1616 -0.0696  0.0987
  283POPC   C1A 3523   5.414   9.832   9.513 -0.0154 -0.0716 -0.0683
  283POPC   D2A 3524   5.386  10.130   9.192  0.0445  0.1387  0.3504
  283POPC   C3A 3525   5.470  10.092   8.727 -0.0371 -0.0326 -0.0847
  283POPC   C4A 3526   5.495  10.109   8.335 -0.2312  0.1196  0.0627
  283POPC   C1B 3527   5.529   9.361   9.569  0.0659 -0.0762  0.2370
  283POPC   C2B 3528   5.384   9.480   9.161 -0.3532 -0.0551 -0.2458
  283POPC   C3B 3529   5.577   9.442   8.812 -0.0291 -0.1103  0.2590
  283POPC   C4B 3530   5.566   8.994   8.489  0.0012  0.0687 -0.3588
  284POPC   NC3 3531   7.499  14.062  10.415 -0.2181  0.0056 -0.0939
  284POPC   PO4 3532   7.804  14.461  10.363  0.0810  0.0653 -0.1248
  284POPC   GL1 3533   7.888  14.259   9.945 -0.1913 -0.2903  0.0564
  284POPC   GL2 3534   7.570  14.039   9.891  0.2210 -0.0088 -0.1409
  284POPC   C1A 3535   7.941  14.156   9.411 -0.0675 -0.1493 -0.0519
  284POPC   D2A 3536   7.827  13.826   8.997  0.1365 -0.3832 -0.0475
  284POPC   C3A 3537   7.821  13.992   8.635 -0.1783  0.0772  0.0294
  284POPC   C4A 3538   7.799  14.042   8.154  0.0623 -0.0532  0.0770
  284POPC   C1B 3539   7.432  14.230   9.465 -0.2375 -0.1348  0.1952
  284POPC   C2B 3540   7.268  14.481   9.133 -0.0328  0.1499 -0.0467
  284POPC   C3B 3541   7.224  14.879   9.050  0.1584  0.4385 -0.1626
  284POPC   C4B 3542   6.977  15.111   8.863  0.3867  0.3065 -0.1125
  285POPC   NC3 3543   6.290   0.157  10.754 -0.1379 -0.3558 -0.0194
  285POPC   PO4 3544   5.973  -0.222  10.563 -0.2159 -0.2993 -0.1159
  285POPC   GL1 3545   5.823  -0.268  10.101 -0.3835  0.4972  0.1563
  285POPC   GL2 3546   5.570  -0.551  10.115  0.0466 -0.1093  0.4316
  285POPC   C1A 3547   5.989  -0.117   9.697 -0.0895  0.1351  0.0173
  285POPC   D2A 3548   6.074   0.025   9.292 -0.1034  0.0489  0.3268
  285POPC   C3A 3549   5.871   0.313   8.929 -0.1762  0.2074 -0.2519
  285POPC   C4A 3550   5.798   0.255   8.505  0.1446 -0.2474  0.1232
  285POPC   C1B 3551   5.808  -0.578   9.704  0.2594 -0.1810 -0.0779
  285POPC   C2B 3552   5.752  -0.436   9.381  0.2392 -0.0480 -0.1623
  285POPC   C3B 3553   5.812  -0.629   8.921 -0.0723 -0.1099 -0.0150
  285POPC   C4B 3554   5.747  -0.541   8.488 -0.1230  0.1269  0.0487
  286POPC   NC3 3555  16.411  13.810  10.600  0.1975 -0.4060 -0.0919
  286POPC   PO4 3556  16.086  13.732  10.653 -0.0617  0.0143  0.0370
  286POPC   GL1 3557  16.212  13.470  10.331 -0.0663 -0.1319  0.0928
  286POPC   GL2 3558  16.020  13.472  10.150 -0.2927  0.2904 -0.0709
  286POPC   C1A 3559  16.468  13.250   9.973 -0.1305 -0.0735  0.0116
  286POPC   D2A 3560  16.879  13.046   9.728  0.1415 -0.0727 -0.1221
  286POPC   C3A 3561  16.794  12.897   9.263 -0.0786  0.2749  0.0711
  286POPC   C4A 3562  16.990  12.919   8.811  0.0067  0.0710  0.3508
  286POPC   C1B 3563  16.275  13.770   9.940 -0.0419 -0.0339 -0.1836
  286POPC   C2B 3564  16.237  13.908   9.573 -0.0046 -0.1010 -0.1481
  286POPC   C3B 3565  16.059  13.810   9.180  0.0762 -0.2265 -0.1130
  286POPC   C4B 3566  15.912  14.038   8.857 -0.0162 -0.0723  0.2127
  287POPC   NC3 3567   4.876   4.058  10.332  0.1998  0.0491  0.0669
  287POPC   PO4 3568   4.853   4.378  10.058  0.0268  0.1780  0.1417
  287POPC   GL1 3569   5.079   4.176   9.645 -0.0487 -0.1160 -0.3731
  287POPC   GL2 3570   5.378   4.257   9.540  0.0787  0.2963 -0.1278
  287POPC   C1A 3571   4.899   4.130   9.269  0.1153  0.2471 -0.2177
  287POPC   D2A 3572   4.583   4.119   9.012 -0.0785 -0.2290  0.1976
  287POPC   C3A 3573   4.598   4.090   8.612  0.0127  0.0036 -0.0968
  287POPC   C4A 3574   4.550   3.859   8.323  0.4370 -0.1884  0.2513
  287POPC   C1B 3575   5.655   4.281   9.209  0.0287 -0.1314 -0.0100
  287POPC   C2B 3576   5.728   4.510   8.920 -0.0838 -0.2439 -0.1775
  287POPC   C3B 3577   5.768   4.395   8.461 -0.1621 -0.3036 -0.1722
  287POPC   C4B 3578   5.539   4.544   8.070  0.2303  0.0240 -0.0269
  288POPC   NC3 3579   7.428   9.125  10.452 -0.1521 -0.0432 -0.0253
  288POPC   PO4 3580   7.497   9.454  10.508  0.3444  0.1127 -0.2137
  288POPC   GL1 3581   7.286   9.455  10.110 -0.3341  0.0433  0.2348
  288POPC   GL2 3582   7.139   9.741  10.125 -0.2053  0.1058  0.0304
  288POPC   C1A 3583   7.287   9.308   9.653 -0.0540  0.3854 -0.1589
  288POPC   D2A 3584   7.121   9.010   9.492 -0.0044 -0.1619 -0.0827
  288POPC   C3A 3585   7.246   9.009   9.103 -0.1816  0.2393 -0.1584
  288POPC   C4A 3586   7.410   9.090   8.683  0.2766  0.3927  0.2709
  288POPC   C1B 3587   7.039   9.779   9.661 -0.0408  0.0163  0.3498
  288POPC   C2B 3588   6.912   9.564   9.289  0.0237  0.0523 -0.2614
  288POPC   C3B 3589   7.014   9.341   8.844 -0.0276 -0.0792 -0.3548
  288POPC   C4B 3590   6.954   8.961   8.683  0.1716  0.2857  0.2395
  289POPC   NC3 3591  14.994   5.240   9.959 -0.0890 -0.4879  0.1088
  289POPC   PO4 3592  15.151   5.673  10.148 -0.1122  0.0343  0.1823
  289POPC   GL1 3593  15.155   5.685   9.721 -0.0829  0.1337  0.0075
  289POPC   GL2 3594  15.363   5.915   9.587 -0.0242  0.0103  0.1425
  289POPC   C1A 3595  14.764   5.887   9.470  0.2342 -0.2186 -0.1849
  289POPC   D2A 3596  14.374   6.050   9.337 -0.3074  0.1272  0.1538
  289POPC   C3A 3597  14.240   5.920   8.865 -0.3470 -0.1245  0.0369
  289POPC   C4A 3598  14.155   5.877   8.460 -0.1901 -0.0734  0.0372
  289POPC   C1B 3599  15.276   6.022   9.172  0.2555  0.3504 -0.0728
  289POPC   C2B 3600  15.147   5.952   8.748 -0.1562 -0.0198 -0.0280
  289POPC   C3B 3601  14.974   5.727   8.445 -0.0853  0.1539 -0.0178
  289POPC   C4B 3602  14.786   5.699   8.046 -0.0713 -0.0664  0.0205
  290POPC   NC3 3603   6.716   2.986  10.458  0.1972 -0.1155 -0.2091
  290POPC   PO4 3604   6.710   3.198  10.118  0.2269  0.0918  0.2094
  290POPC   GL1 3605   6.835   3.333   9.771 -0.3391 -0.0043  0.0564
  290POPC   GL2 3606   7.069   3.119   9.541  0.2302 -0.0001 -0.0247
  290POPC   C1A 3607   6.755   3.433   9.324  0.2490 -0.1636  0.1832
  290POPC   D2A 3608   6.570   3.319   8.975 -0.2904 -0.2464  0.2167
  290POPC   C3A 3609   6.254   3.133   8.671  0.0812  0.0884 -0.2961
  290POPC   C4A 3610   6.061   2.927   8.236 -0.1845 -0.0010 -0.1007
  290POPC   C1B 3611   7.025   3.112   9.114 -0.1563 -0.1734 -0.0797
  290POPC   C2B 3612   7.030   3.389   8.806  0.1687  0.1686  0.1067
  290POPC   C3B 3613   6.724   3.363   8.522  0.1604  0.2262 -0.0122
  290POPC   C4B 3614   6.591   2.999   8.175  0.2742 -0.3638  0.2469
  291POPC   NC3 3615  12.014   4.641  10.816 -0.2546 -0.3330 -0.2897
  291POPC   PO4 3616  12.248   4.790  10.486 -0.3419  0.1428 -0.3406
  291POPC   GL1 3617  12.219   4.737  10.041  0.0726 -0.0797 -0.0233
  291POPC   GL2 3618  12.203   5.117   9.958 -0.1773 -0.0490  0.0465
  291POPC   C1A 3619  12.108   4.813   9.579  0.3498  0.2849  0.1792
  291POPC   D2A 3620  12.113   4.535   9.192 -0.3548 -0.1125 -0.1475
  291POPC   C3A 3621  12.261   4.190   9.024  0.2642  0.1620 -0.1685
  291POPC   C4A 3622  12.406   4.151   8.605  0.0811 -0.1920 -0.0040
  291POPC   C1B 3623  12.570   4.806   9.692 -0.0811  0.4090 -0.0907
  291POPC   C2B 3624  12.545   4.810   9.286 -0.2154 -0.0800 -0.0256
  291POPC   C3B 3625  12.533   4.568   8.909 -0.0214 -0.1138 -0.3483
  291POPC   C4B 3626  12.770   4.529   8.479 -0.0003 -0.0627 -0.1239
  292POPC   NC3 3627   6.259  10.765  10.134 -0.0084  0.4276 -0.1186
  292POPC   PO4 3628   6.109  11.118  10.128  0.1121  0.0288 -0.0845
  292POPC   GL1 3629   6.208  10.921   9.648  0.1510  0.0448 -0.0673
  292POPC   GL2 3630   6.035  10.618   9.705 -0.1330  0.0757  0.1469
  292POPC   C1A 3631   6.030  10.919   9.249  0.1031  0.0394 -0.0755
  292POPC   D2A 3632   6.138  10.791   8.984 -0.2497 -0.1016 -0.1370
  292POPC   C3A 3633   6.041  10.916   8.563  0.1715  0.0201 -0.1152
  292POPC   C4A 3634   5.930  10.770   8.209  0.4542 -0.2940 -0.0484
  292POPC   C1B 3635   5.891  10.382   9.314 -0.2779 -0.1099 -0.3024
  292POPC   C2B 3636   5.868  10.400   8.937  0.1151 -0.2862  0.0615
  292POPC   C3B 3637   5.682  10.534   8.555 -0.0876  0.3134 -0.0510
  292POPC   C4B 3638   5.424  10.681   8.228  0.1714 -0.2806 -0.0043
  293POPC   NC3 3639   6.095  13.025  10.167  0.1127 -0.1438  0.2999
  293POPC   PO4 3640   6.364  12.744  10.227 -0.1485  0.2315 -0.2435
  293POPC   GL1 3641   6.387  12.768   9.815 -0.0927  0.2459 -0.1032
  293POPC   GL2 3642   6.560  12.525   9.748  0.0177  0.2916 -0.0348
  293POPC   C1A 3643   6.768  12.914   9.561  0.1931  0.0127  0.0532
  293POPC   D2A 3644   7.100  12.759   9.352 -0.0679 -0.1941 -0.0057
  293POPC   C3A 3645   7.056  12.821   9.005  0.2219  0.0082  0.0566
  293POPC   C4A 3646   7.009  13.142   8.692  0.1169  0.3325  0.0906
  293POPC   C1B 3647   6.413  12.482   9.367  0.3875  0.0170 -0.3666
  293POPC   C2B 3648   6.412  12.302   8.970 -0.3007 -0.1431 -0.0840
  293POPC   C3B 3649   6.254  12.386   8.616  0.0243  0.2654  0.0208
  293POPC   C4B 3650   6.123  12.749   8.317  0.1872 -0.2060 -0.0663
  294POPC   NC3 3651   4.536  16.398  11.144 -0.2280  0.0701  0.1920
  294POPC   PO4 3652   4.731  16.311  10.732  0.1405  0.2152  0.0078
  294POPC   GL1 3653   4.707  16.235  10.211 -0.0991 -0.1246  0.0398
  294POPC   GL2 3654   4.881  16.023  10.075 -0.1685 -0.0003 -0.1078
  294POPC   C1A 3655   4.615  16.303   9.678 -0.2033 -0.0532 -0.0330
  294POPC   D2A 3656   4.643  16.415   9.192  0.0484 -0.2380  0.2476
  294POPC   C3A 3657   4.592  16.559   8.680  0.2042 -0.3697 -0.0382
  294POPC   C4A 3658   4.559  16.612   8.217 -0.0572 -0.1701 -0.1773
  294POPC   C1B 3659   4.913  15.874   9.577  0.1327 -0.1893  0.1128
  294POPC   C2B 3660   4.902  16.012   9.147  0.1121  0.3835  0.1390
  294POPC   C3B 3661   4.693  16.105   8.716 -0.0159  0.2455 -0.1041
  294POPC   C4B 3662   4.527  16.068   8.361  0.0683 -0.1011  0.1202
  295POPC   NC3 3663  14.762   0.289  10.079  0.1569  0.1764 -0.1039
  295POPC   PO4 3664  15.092   0.121  10.042 -0.1602  0.0368 -0.0956
  295POPC   GL1 3665  15.360   0.037   9.679 -0.0832  0.0200 -0.0653
  295POPC   GL2 3666  15.602  -0.288   9.745  0.0124 -0.1027 -0.3172
  295POPC   C1A 3667  15.328   0.099   9.200 -0.1148  0.0080 -0.1394
  295POPC   D2A 3668  15.423   0.006   8.780 -0.0535  0.0603  0.0678
  295POPC   C3A 3669  15.171   0.200   8.464  0.0214  0.0736 -0.1468
  295POPC   C4A 3670  15.112   0.183   8.084  0.3130 -0.0721  0.3889
  295POPC   C1B 3671  15.496  -0.398   9.351  0.2514 -0.1529  0.1529
  295POPC   C2B 3672  15.699  -0.438   8.877  0.2333  0.2055  0.0633
  295POPC   C3B 3673  15.676  -0.457   8.548  0.0873  0.1581  0.0419
  295POPC   C4B 3674  15.774  -0.345   8.160  0.1069 -0.1379 -0.0553
  296POPC   NC3 3675  16.017  13.119  10.610 -0.4504 -0.3493 -0.0944
  296POPC   PO4 3676  15.517  12.916  10.614  0.2071 -0.1993  0.0054
  296POPC   GL1 3677  15.801  12.768  10.297  0.2188  0.2040 -0.1521
  296POPC   GL2 3678  15.720  12.724   9.948  0.1333  0.0187 -0.0186
  296POPC   C1A 3679  16.191  12.864  10.100 -0.3114  0.2532 -0.1463
  296POPC   D2A 3680  16.348  12.870   9.709  0.2437  0.1747 -0.0959
  296POPC   C3A 3681  16.243  12.793   9.375 -0.1590 -0.0075 -0.1786
  296POPC   C4A 3682  16.196  12.978   8.979  0.2405  0.1144 -0.0294
  296POPC   C1B 3683  15.717  12.699   9.529  0.3056 -0.1847 -0.0684
  296POPC   C2B 3684  15.741  12.874   9.133  0.1882 -0.2677 -0.0339
  296POPC   C3B 3685  15.778  13.089   8.725 -0.1167  0.1063  0.0081
  296POPC   C4B 3686  15.818  13.304   8.338  0.2083 -0.0473 -0.2977
  297POPC   NC3 3687   0.877  17.575  10.879  0.2313  0.0216  0.2662
  297POPC   PO4 3688   1.193  17.290  10.771 -0.1705  0.1633 -0.0436
  297POPC   GL1 3689   1.338  17.171  10.368  0.2350  0.0787  0.1038
  297POPC   GL2 3690   1.007  16.933  10.173 -0.1093 -0.4482 -0.0230
  297POPC   C1A 3691   1.623  17.241  10.124  0.0899 -0.1234  0.1269
  297POPC   D2A 3692   1.770  17.076   9.796 -0.0056 -0.0885  0.0167
  297POPC   C3A 3693   1.770  17.047   9.346 -0.1430  0.0979 -0.0029
  297POPC   C4A 3694   1.901  16.923   8.957 -0.0750 -0.1525  0.0284
  297POPC   C1B 3695   0.806  17.094   9.842  0.1275 -0.3706  0.1930
  297POPC   C2B 3696   0.765  17.253   9.468  0.1498  0.0438  0.1747
  297POPC   C3B 3697   0.805  17.424   9.211  0.1380  0.1754  0.0688
  297POPC   C4B 3698   0.985  17.370   8.821  0.0958 -0.0344 -0.4075
  298POPC   NC3 3699   8.506   4.676  10.517  0.0539  0.0334  0.3317
  298POPC   PO4 3700   8.670   4.608  10.186 -0.4211 -0.2307 -0.1365
  298POPC   GL1 3701   8.661   4.426   9.828  0.0950 -0.5244  0.0814
  298POPC   GL2 3702   8.840   4.771   9.712  0.0174 -0.1895 -0.0123
  298POPC   C1A 3703   8.594   4.366   9.402 -0.2493 -0.2450 -0.2409
  298POPC   D2A 3704   8.721   4.401   9.023 -0.0525 -0.0158 -0.1000
  298POPC   C3A 3705   8.502   4.402   8.641 -0.2702  0.3121  0.1043
  298POPC   C4A 3706   8.365   4.219   8.196  0.2748  0.1540  0.0894
  298POPC   C1B 3707   8.924   4.814   9.214  0.0900  0.3026  0.0547
  298POPC   C2B 3708   9.176   5.128   8.866  0.0759  0.0755 -0.1732
  298POPC   C3B 3709   9.460   5.275   8.631 -0.3698  0.4025 -0.1019
  298POPC   C4B 3710   9.517   5.549   8.199  0.1021 -0.0065  0.1403
  299POPC   NC3 3711   6.923  10.628  10.712 -0.2173 -0.0833 -0.2955
  299POPC   PO4 3712   7.052  10.366  10.264  0.0020  0.3488  0.1056
  299POPC   GL1 3713   6.881  10.548   9.856 -0.1853 -0.1376 -0.2988
  299POPC   GL2 3714   6.610  10.478   9.843  0.1427  0.0300  0.0236
  299POPC   C1A 3715   6.951  10.574   9.479  0.2045 -0.3344 -0.0930
  299POPC   D2A 3716   7.017  10.534   9.106 -0.1843 -0.0384  0.2209
  299POPC   C3A 3717   6.752  10.383   8.859  0.2263  0.0758  0.0463
  299POPC   C4A 3718   6.648  10.192   8.444 -0.2587  0.0343 -0.0026
  299POPC   C1B 3719   6.741  10.155   9.485  0.1761 -0.1015  0.1812
  299POPC   C2B 3720   6.643   9.915   9.130 -0.2702  0.1472 -0.0697
  299POPC   C3B 3721   6.453   9.699   8.806 -0.4505  0.3468 -0.1442
  299POPC   C4B 3722   6.360   9.789   8.426  0.3984 -0.2809 -0.0285
  300POPC   NC3 3723  17.539  16.630  11.155 -0.0812 -0.2882 -0.2547
  300POPC   PO4 3724  17.460  16.944  10.771  0.0470 -0.0833  0.2973
  300POPC   GL1 3725  17.704  16.857  10.444 -0.1918 -0.1913  0.0332
  300POPC   GL2 3726  18.073  16.956  10.370  0.1576 -0.0128  0.2456
  300POPC   C1A 3727  17.792  16.522  10.169  0.1516 -0.0086  0.1598
  300POPC   D2A 3728  17.489  16.286   9.949 -0.0090 -0.1638  0.1644
  300POPC   C3A 3729  17.466  16.329   9.490 -0.0013  0.0985  0.0635
  300POPC   C4A 3730  17.367  16.277   9.012  0.0137 -0.1145 -0.3598
  300POPC   C1B 3731  17.918  16.954   9.944 -0.0229  0.0063  0.0975
  300POPC   C2B 3732  17.920  17.057   9.539  0.0279  0.2529  0.0467
  300POPC   C3B 3733  17.937  17.074   9.127 -0.1546  0.0984  0.0487
  300POPC   C4B 3734  18.184  17.169   8.856 -0.5268  0.0950  0.1092
  301POPC   NC3 3735  11.610   3.634  10.575 -0.0724 -0.0278 -0.2327
  301POPC   PO4 3736  11.226   3.804  10.533 -0.2226 -0.0184 -0.1458
  301POPC   GL1 3737  11.139   3.652  10.099  0.2502  0.0002 -0.1052
  301POPC   GL2 3738  10.830   3.786  10.032  0.0139 -0.2012 -0.3740
  301POPC   C1A 3739  10.954   3.378   9.649 -0.1592  0.0984 -0.3183
  301POPC   D2A 3740  11.038   3.019   9.381 -0.0538 -0.2229  0.0294
  301POPC   C3A 3741  10.806   2.997   8.991  0.0665 -0.2940  0.3664
  301POPC   C4A 3742  10.842   3.040   8.500 -0.0923 -0.1543  0.0566
  301POPC   C1B 3743  10.661   3.867   9.676  0.2584  0.3204  0.0229
  301POPC   C2B 3744  10.956   3.850   9.403 -0.1131  0.0833  0.0015
  301POPC   C3B 3745  11.012   3.551   9.189  0.2171  0.3400 -0.0771
  301POPC   C4B 3746  11.141   3.359   8.786 -0.2321 -0.1951  0.1246
  302POPC   NC3 3747  16.256  14.278  10.602 -0.1374  0.3444 -0.1235
  302POPC   PO4 3748  16.489  14.577  10.650 -0.0458 -0.0598 -0.0448
  302POPC   GL1 3749  16.614  14.790  10.272 -0.0359  0.3249  0.1133
  302POPC   GL2 3750  16.860  14.552  10.142 -0.1115  0.1776 -0.0687
  302POPC   C1A 3751  16.528  14.676   9.802  0.0777  0.1417  0.2796
  302POPC   D2A 3752  16.295  14.431   9.633  0.1795  0.0156 -0.3365
  302POPC   C3A 3753  16.414  14.285   9.272 -0.0802 -0.1170  0.1356
  302POPC   C4A 3754  16.429  14.421   8.838 -0.0588 -0.3564  0.0127
  302POPC   C1B 3755  17.077  14.567   9.756  0.0858  0.0608  0.1496
  302POPC   C2B 3756  17.357  14.537   9.354  0.0007  0.2120 -0.0360
  302POPC   C3B 3757  17.624  14.662   9.077 -0.4909  0.1418  0.1783
  302POPC   C4B 3758  17.986  14.728   8.866  0.1790  0.1141 -0.3200
  303POPC   NC3 3759   4.084  18.183  10.756 -0.2280 -0.0506 -0.0780
  303POPC   PO4 3760   3.860  18.660  10.658  0.0270 -0.2353  0.0107
  303POPC   GL1 3761   3.868  19.015  10.326  0.2179  0.0642  0.0251
  303POPC   GL2 3762   4.087  18.949  10.067  0.0231  0.1793 -0.2972
  303POPC   C1A 3763   3.564  19.294  10.163  0.1281  0.0281  0.0771
  303POPC   D2A 3764   3.490  19.392   9.675 -0.0709 -0.1217 -0.0822
  303POPC   C3A 3765   3.683  19.339   9.262  0.1159 -0.2118  0.0024
  303POPC   C4A 3766   3.961  19.359   8.887 -0.2776  0.0533  0.1077
  303POPC   C1B 3767   3.986  19.171   9.666  0.4000  0.2700  0.0193
  303POPC   C2B 3768   4.137  19.406   9.328  0.2737  0.0682  0.0431
  303POPC   C3B 3769   4.455  19.258   9.033 -0.1062 -0.0746 -0.1936
  303POPC   C4B 3770   4.860  19.226   8.983  0.0777  0.1686 -0.2683
  304POPC   NC3 3771  12.345  15.095  10.708  0.2940  0.2714 -0.3924
  304POPC   PO4 3772  12.448  14.644  10.897 -0.2182 -0.0891 -0.3361
  304POPC   GL1 3773  12.267  14.659  10.461  0.5040 -0.2025 -0.2670
  304POPC   GL2 3774  11.968  14.804  10.368 -0.2792  0.3862 -0.1322
  304POPC   C1A 3775  12.307  14.730   9.953 -0.0105  0.0019  0.1826
  304POPC   D2A 3776  12.385  14.772   9.567  0.1496 -0.2189 -0.0227
  304POPC   C3A 3777  12.145  14.942   9.179  0.0826 -0.1962 -0.1939
  304POPC   C4A 3778  12.168  15.356   9.091  0.1622  0.1977 -0.0265
  304POPC   C1B 3779  11.980  15.106   9.988  0.1091 -0.0682  0.0730
  304POPC   C2B 3780  12.063  15.357   9.597 -0.0901  0.4421  0.0429
  304POPC   C3B 3781  11.811  15.610   9.460  0.0605 -0.0176  0.1999
  304POPC   C4B 3782  11.714  16.061   9.434 -0.1448 -0.0538  0.1241
  305POPC   NC3 3783   5.527  18.273  10.439  0.3503  0.0949 -0.3297
  305POPC   PO4 3784   5.885  18.630  10.495 -0.0297  0.0716  0.0789
  305POPC   GL1 3785   5.787  18.835  10.148 -0.0450  0.1292 -0.0949
  305POPC   GL2 3786   5.704  18.563  10.026  0.2725  0.1339  0.3721
  305POPC   C1A 3787   6.044  19.147   9.717 -0.3665  0.0148  0.3472
  305POPC   D2A 3788   5.876  19.274   9.330  0.0572 -0.0348  0.2395
  305POPC   C3A 3789   6.027  19.366   8.989 -0.3161  0.1914  0.1373
  305POPC   C4A 3790   6.272  19.689   8.807 -0.3051  0.1493 -0.0114
  305POPC   C1B 3791   5.880  18.732   9.555  0.1490  0.1906 -0.1282
  305POPC   C2B 3792   5.532  18.913   9.381 -0.0161  0.1511  0.2323
  305POPC   C3B 3793   5.427  19.187   9.093 -0.0510  0.3130 -0.0048
  305POPC   C4B 3794   5.293  19.277   8.624 -0.2932  0.0176  0.1715
  306POPC   NC3 3795  10.342  13.587  11.330  0.0875  0.0435 -0.1886
  306POPC   PO4 3796  10.541  13.523  10.866  0.1937 -0.3354  0.0058
  306POPC   GL1 3797  10.511  13.608  10.460 -0.2995 -0.0474  0.0554
  306POPC   GL2 3798  10.683  13.807  10.212  0.4172 -0.3379 -0.0876
  306POPC   C1A 3799  10.247  13.492  10.043  0.0678 -0.0602  0.0942
  306POPC   D2A 3800   9.842  13.539   9.798 -0.0222 -0.1397  0.2237
  306POPC   C3A 3801   9.927  13.493   9.273  0.1458  0.5307 -0.1433
  306POPC   C4A 3802   9.894  13.543   8.866 -0.5196 -0.2407 -0.0880
  306POPC   C1B 3803  10.570  13.900   9.904 -0.0333 -0.0153 -0.0266
  306POPC   C2B 3804  10.348  13.795   9.551 -0.0942 -0.0758 -0.0394
  306POPC   C3B 3805  10.561  13.724   9.173  0.0659 -0.1697  0.1026
  306POPC   C4B 3806  10.791  13.683   8.929  0.2818 -0.0397  0.1257
  307POPC   NC3 3807   1.082  15.121  11.008 -0.1514 -0.0304 -0.1414
  307POPC   PO4 3808   1.246  14.782  10.856 -0.0032 -0.1334 -0.0746
  307POPC   GL1 3809   0.799  14.697  10.702 -0.0517 -0.0315 -0.1720
  307POPC   GL2 3810   0.760  14.417  10.824 -0.0727  0.2126  0.2275
  307POPC   C1A 3811   0.570  14.955  10.364 -0.1616 -0.3041  0.3251
  307POPC   D2A 3812   0.316  14.815  10.002  0.1164 -0.1038  0.3310
  307POPC   C3A 3813   0.312  14.720   9.583  0.0195 -0.2053 -0.2112
  307POPC   C4A 3814   0.038  14.699   9.219 -0.0719 -0.0654 -0.0824
  307POPC   C1B 3815   0.835  14.344  10.353  0.2535  0.1295 -0.2976
  307POPC   C2B 3816   0.685  14.514   9.930 -0.1044 -0.2557 -0.1835
  307POPC   C3B 3817   0.631  14.344   9.507  0.1924 -0.2024 -0.1731
  307POPC   C4B 3818   0.541  14.545   9.079  0.1203 -0.1202  0.1817
  308YOPC   NC3 3819  14.194  15.011  10.896  0.3509 -0.1333  0.0140
  308YOPC   PO4 3820  14.450  14.634  10.830  0.2062 -0.3486  0.0828
  308YOPC   GL1 3821  14.577  14.648  10.461 -0.1403 -0.0618  0.0120
  308YOPC   GL2 3822  14.284  14.394  10.412 -0.0351 -0.2055 -0.0057
  308YOPC   C1A 3823  14.877  14.588  10.157 -0.0152 -0.0305  0.3007
  308YOPC   D2A 3824  14.830  14.339   9.718 -0.1927 -0.0497 -0.0658
  308YOPC   C3A 3825  14.860  14.489   9.288 -0.1374 -0.0147 -0.0555
  308YOPC   C4A 3826  14.930  14.548   8.951 -0.0448  0.0013 -0.1225
  308YOPC   C1B 3827  14.340  14.622   9.980 -0.0693 -0.0578 -0.0796
  308YOPC   C2B 3828  14.356  14.618   9.592  0.0770 -0.2076 -0.2798
  308YOPC   D3B 3829  14.398  14.756   9.277  0.4318 -0.1104  0.3869
  308YOPC   C4B 3830  14.425  14.882   8.841  0.2211  0.0337 -0.2801
  309YOPC   NC3 3831  10.418  14.718  10.431 -0.0425 -0.2341 -0.1226
  309YOPC   PO4 3832  10.682  14.638  10.794  0.0137  0.0267  0.0131
  309YOPC   GL1 3833  10.943  14.379  10.385 -0.0041 -0.2041 -0.1017
  309YOPC   GL2 3834  10.761  14.333  10.178 -0.0629 -0.2616  0.4494
  309YOPC   C1A 3835  11.152  13.970  10.216  0.2126 -0.1855 -0.2314
  309YOPC   D2A 3836  11.127  13.596   9.935 -0.1342 -0.0641 -0.1186
  309YOPC   C3A 3837  10.672  13.429   9.717  0.1070 -0.0502 -0.4984
  309YOPC   C4A 3838  10.235  13.259   9.620 -0.1315 -0.1227 -0.0727
  309YOPC   C1B 3839  10.916  14.250   9.873 -0.2391 -0.0600 -0.0881
  309YOPC   C2B 3840  11.051  13.908   9.532 -0.1132 -0.0493 -0.2504
  309YOPC   D3B 3841  11.282  13.731   9.200  0.2566  0.3027 -0.3217
  309YOPC   C4B 3842  11.216  13.431   8.884 -0.0591 -0.2979  0.2289
  310YOPC   NC3 3843   7.326  14.905  10.382 -0.0923  0.0000  0.1043
  310YOPC   PO4 3844   7.499  15.266  10.260 -0.0050  0.1833  0.3563
  310YOPC   GL1 3845   7.601  15.265   9.865 -0.1773  0.0348  0.0357
  310YOPC   GL2 3846   7.323  15.320   9.598 -0.0297 -0.0948 -0.3004
  310YOPC   C1A 3847   7.782  15.285   9.440  0.3133  0.0226 -0.1366
  310YOPC   D2A 3848   7.760  15.229   9.020 -0.1611  0.2069  0.0207
  310YOPC   C3A 3849   7.638  14.813   8.827 -0.0014  0.1726 -0.2953
  310YOPC   C4A 3850   7.817  14.398   9.017  0.0063 -0.1555  0.0672
  310YOPC   C1B 3851   7.301  15.383   9.139  0.2776  0.0925 -0.1511
  310YOPC   C2B 3852   7.382  15.264   8.688 -0.0317  0.2032  0.0451
  310YOPC   D3B 3853   7.446  15.609   8.578 -0.1909  0.0458  0.0774
  310YOPC   C4B 3854   7.671  15.721   8.293  0.0188  0.0445  0.0550
  311YOPC   NC3 3855   6.659   6.127  10.947 -0.1120 -0.1850 -0.2185
  311YOPC   PO4 3856   6.573   6.488  10.732 -0.0315  0.0998  0.1241
  311YOPC   GL1 3857   6.517   6.550  10.235 -0.0510 -0.1166 -0.1731
  311YOPC   GL2 3858   6.678   6.701  10.016  0.0969 -0.2359  0.3193
  311YOPC   C1A 3859   6.286   6.362   9.976 -0.1184  0.1993 -0.2011
  311YOPC   D2A 3860   6.113   6.076   9.830  0.1111  0.3695  0.1298
  311YOPC   C3A 3861   5.966   5.959   9.409  0.1307 -0.0402  0.3162
  311YOPC   C4A 3862   6.080   6.087   9.052 -0.1923  0.1594  0.1418
  311YOPC   C1B 3863   6.480   6.663   9.577  0.0199 -0.0161 -0.2271
  311YOPC   C2B 3864   6.544   6.733   9.047  0.0936  0.1066 -0.1083
  311YOPC   D3B 3865   6.717   7.121   8.884 -0.0117 -0.1563 -0.1850
  311YOPC   C4B 3866   7.012   7.194   8.489 -0.0006 -0.0566 -0.1600
  312YOPC   NC3 3867  16.337  16.112  10.710  0.1334 -0.1018 -0.0519
  312YOPC   PO4 3868  16.783  16.255  10.890 -0.4453 -0.1961 -0.3299
  312YOPC   GL1 3869  16.964  16.370  10.454  0.0084  0.1751 -0.0268
  312YOPC   GL2 3870  17.205  16.569  10.434 -0.3830  0.0417 -0.0655
  312YOPC   C1A 3871  16.986  16.257   9.967  0.0344  0.0876 -0.0236
  312YOPC   D2A 3872  17.074  15.878   9.787  0.1280 -0.0026  0.1899
  312YOPC   C3A 3873  16.775  15.546   9.635 -0.2411  0.0986 -0.0084
  312YOPC   C4A 3874  16.530  15.356   9.438 -0.0164  0.0311  0.2241
  312YOPC   C1B 3875  17.321  16.084  10.372  0.0424 -0.0823  0.0419
  312YOPC   C2B 3876  17.142  15.641  10.227  0.3261  0.0190 -0.1086
  312YOPC   D3B 3877  16.702  15.703  10.101 -0.3450 -0.1941  0.0843
  312YOPC   C4B 3878  16.316  15.550   9.854  0.0644  0.3148  0.2992
  313YOPC   NC3 3879  12.144   0.443  10.949 -0.1357 -0.1851 -0.0687
  313YOPC   PO4 3880  11.850   0.681  10.914 -0.2089  0.3437  0.1564
  313YOPC   GL1 3881  11.575   0.804  10.644  0.1238 -0.0024 -0.0878
  313YOPC   GL2 3882  11.665   1.155  10.479  0.1581  0.0921 -0.1001
  313YOPC   C1A 3883  11.366   0.647  10.322  0.0109 -0.2963 -0.0923
  313YOPC   D2A 3884  11.395   0.452   9.906  0.1095 -0.1610 -0.0636
  313YOPC   C3A 3885  11.620   0.337   9.437 -0.1491  0.2686  0.0086
  313YOPC   C4A 3886  11.904   0.005   9.266 -0.1585  0.3136  0.3525
  313YOPC   C1B 3887  11.712   1.307  10.077  0.0605 -0.1548 -0.0870
  313YOPC   C2B 3888  11.863   1.569   9.852  0.0799  0.1138 -0.2783
  313YOPC   D3B 3889  11.587   1.617   9.568 -0.3137  0.1890 -0.1484
  313YOPC   C4B 3890  11.182   1.363   9.507  0.1159  0.1427  0.0096
  314YOPC   NC3 3891  13.811  10.286   9.691  0.0105 -0.1729 -0.0421
  314YOPC   PO4 3892  13.982  10.581   9.888 -0.0008 -0.3646 -0.3950
  314YOPC   GL1 3893  13.880  10.932   9.613 -0.0051  0.1602 -0.0727
  314YOPC   GL2 3894  13.654  10.899   9.695 -0.3737  0.2134 -0.4240
  314YOPC   C1A 3895  13.897  11.067   9.165 -0.0191 -0.2820 -0.0354
  314YOPC   D2A 3896  13.766  11.239   8.874  0.0226 -0.1441  0.2477
  314YOPC   C3A 3897  13.854  11.500   8.718  0.1041  0.0910 -0.2573
  314YOPC   C4A 3898  13.586  11.804   8.511 -0.1129 -0.1564 -0.1580
  314YOPC   C1B 3899  13.564  10.741   9.332  0.0048  0.0282 -0.2816
  314YOPC   C2B 3900  13.673  10.565   8.926 -0.0095 -0.0976 -0.1183
  314YOPC   D3B 3901  13.760  10.825   8.541 -0.1214 -0.0500  0.2137
  314YOPC   C4B 3902  13.761  11.101   8.331  0.0976  0.0250  0.2736
  315YOPC   NC3 3903   3.605  17.331  10.283  0.2288  0.1747  0.0972
  315YOPC   PO4 3904   3.229  17.167  10.262 -0.2540 -0.0806  0.1542
  315YOPC   GL1 3905   3.127  17.335   9.802  0.1692  0.1224 -0.2470
  315YOPC   GL2 3906   3.429  17.429   9.801 -0.0799 -0.0710 -0.2476
  315YOPC   C1A 3907   3.053  17.395   9.389  0.2485  0.4110  0.1886
  315YOPC   D2A 3908   2.940  17.513   8.907 -0.2562 -0.2499 -0.1847
  315YOPC   C3A 3909   3.151  17.674   8.613  0.3400 -0.1689  0.0196
  315YOPC   C4A 3910   3.356  18.090   8.490 -0.0467  0.0636 -0.2808
  315YOPC   C1B 3911   3.527  17.475   9.403  0.2177  0.0776  0.1111
  315YOPC   C2B 3912   3.389  17.207   9.018  0.1979 -0.1302  0.0711
  315YOPC   D3B 3913   3.048  16.958   9.213 -0.1041  0.2302  0.0523
  315YOPC   C4B 3914   2.801  16.770   9.444 -0.0374 -0.0016  0.0631
  316YOPC   NC3 3915  18.198   6.555   9.965 -0.0070  0.1855 -0.0509
  316YOPC   PO4 3916  18.654   6.749   9.865 -0.0584  0.2187 -0.0794
  316YOPC   GL1 3917  18.779   6.841   9.393 -0.1149 -0.1082 -0.2045
  316YOPC   GL2 3918  19.025   6.978   9.310  0.1433 -0.3587 -0.2585
  316YOPC   C1A 3919  18.735   7.061   8.945 -0.0341 -0.2940  0.0140
  316YOPC   D2A 3920  18.994   7.459   8.808 -0.0083 -0.0932  0.1422
  316YOPC   C3A 3921  19.100   7.402   8.323 -0.0008  0.0729 -0.3130
  316YOPC   C4A 3922  19.184   7.708   8.024  0.0723  0.0179  0.2632
  316YOPC   C1B 3923  19.255   6.981   9.029 -0.1668 -0.0025 -0.3061
  316YOPC   C2B 3924  19.360   7.122   8.610  0.2260  0.2541  0.0494
  316YOPC   D3B 3925  19.725   7.292   8.542 -0.1891  0.3010  0.0653
  316YOPC   C4B 3926  20.125   7.214   8.621  0.0182  0.0884 -0.1343
  317YOPC   NC3 3927  14.804  17.996  10.117 -0.0364 -0.0332  0.1130
  317YOPC   PO4 3928  14.384  17.711  10.217 -0.0312 -0.3235  0.0905
  317YOPC   GL1 3929  14.415  17.885   9.790 -0.1800  0.0624  0.1275
  317YOPC   GL2 3930  14.081  18.011   9.644  0.1835 -0.2224  0.2496
  317YOPC   C1A 3931  14.497  17.864   9.329 -0.1279  0.4409 -0.3846
  317YOPC   D2A 3932  14.482  18.072   9.004  0.1250  0.0706  0.2810
  317YOPC   C3A 3933  14.660  17.947   8.639 -0.0767  0.1688  0.1108
  317YOPC   C4A 3934  14.810  18.146   8.246  0.1368  0.2178 -0.0281
  317YOPC   C1B 3935  13.937  18.186   9.266  0.1535  0.2195 -0.0670
  317YOPC   C2B 3936  13.657  18.324   8.895 -0.5835  0.1263 -0.0360
  317YOPC   D3B 3937  13.819  18.385   8.548 -0.2177  0.2326 -0.0620
  317YOPC   C4B 3938  13.896  18.114   8.190 -0.1399  0.0206 -0.1192
  318YOPC   NC3 3939  10.231   2.277  10.688 -0.1092  0.2649  0.1768
  318YOPC   PO4 3940  10.429   1.950  10.848  0.3654 -0.4172 -0.1928
  318YOPC   GL1 3941  10.354   1.719  10.477 -0.1579 -0.2787  0.1140
  318YOPC   GL2 3942  10.442   1.982  10.343 -0.1518 -0.2271  0.2339
  318YOPC   C1A 3943   9.966   1.531  10.399  0.2028  0.3620 -0.4074
  318YOPC   D2A 3944   9.586   1.699  10.147 -0.2879  0.0106  0.0554
  318YOPC   C3A 3945   9.374   1.727   9.768  0.0626 -0.0555 -0.0408
  318YOPC   C4A 3946   9.190   1.686   9.367 -0.0905 -0.1502 -0.1281
  318YOPC   C1B 3947  10.516   1.862   9.901 -0.0532  0.0901 -0.1342
  318YOPC   C2B 3948  10.686   2.113   9.582 -0.0454 -0.0449  0.0974
  318YOPC   D3B 3949  10.405   2.346   9.275 -0.0544 -0.2544 -0.3607
  318YOPC   C4B 3950  10.005   2.460   9.158 -0.1030 -0.1093 -0.2871
  319YOPC   NC3 3951  18.188   0.314  10.301 -0.0358 -0.1843  0.0682
  319YOPC   PO4 3952  18.511  -0.002  10.366  0.1333 -0.2224  0.0054
  319YOPC   GL1 3953  18.637   0.004  10.072 -0.0008  0.4695 -0.1626
  319YOPC   GL2 3954  18.895   0.045   9.949  0.4116  0.0436  0.0329
  319YOPC   C1A 3955  18.522  -0.178   9.620 -0.1300  0.0875 -0.1714
  319YOPC   D2A 3956  18.470  -0.172   9.178  0.2402 -0.0099 -0.0004
  319YOPC   C3A 3957  18.514  -0.310   8.636  0.2365  0.2643 -0.1434
  319YOPC   C4A 3958  18.653  -0.434   8.259 -0.1852  0.0786  0.1860
  319YOPC   C1B 3959  19.018  -0.259   9.664  0.2237 -0.4059 -0.1360
  319YOPC   C2B 3960  19.267  -0.630   9.601 -0.0427 -0.2418 -0.3860
  319YOPC   D3B 3961  19.683  -0.491   9.555 -0.3175  0.0891  0.0401
  319YOPC   C4B 3962  19.894  -0.528   9.957  0.2080 -0.1755  0.0339
  320YOPC   NC3 3963   6.979  12.579  10.575  0.1872  0.0695 -0.2386
  320YOPC   PO4 3964   7.319  12.633  10.259  0.3624 -0.0593  0.1002
  320YOPC   GL1 3965   7.533  12.652   9.875 -0.0949  0.3319  0.3844
  320YOPC   GL2 3966   7.807  12.425   9.698 -0.0246 -0.1883 -0.3257
  320YOPC   C1A 3967   7.607  12.854   9.415 -0.3457 -0.0552 -0.1990
  320YOPC   D2A 3968   7.590  12.924   8.989 -0.1013 -0.0639  0.1284
  320YOPC   C3A 3969   7.405  12.813   8.672  0.1291 -0.0070  0.0325
  320YOPC   C4A 3970   7.122  12.627   8.339  0.1000 -0.0668 -0.0011
  320YOPC   C1B 3971   7.873  12.442   9.283  0.2626  0.0674  0.3759
  320YOPC   C2B 3972   7.925  12.467   8.935  0.1754 -0.0932 -0.2323
  320YOPC   D3B 3973   7.935  12.799   8.624 -0.2351  0.0360  0.0540
  320YOPC   C4B 3974   7.740  13.057   8.385  0.0068  0.1514 -0.0973
  321YOPC   NC3 3975   5.323   2.479  10.908  0.1127  0.1599 -0.2210
  321YOPC   PO4 3976   4.980   2.384  10.874 -0.1799 -0.0979 -0.1427
  321YOPC   GL1 3977   5.003   2.250  10.434  0.4838 -0.1759  0.1308
  321YOPC   GL2 3978   5.176   2.428  10.229  0.0506 -0.1033 -0.0431
  321YOPC   C1A 3979   4.936   1.971  10.147  0.1180 -0.0316  0.2177
  321YOPC   D2A 3980   4.843   1.544   9.961  0.0028  0.0447  0.0703
  321YOPC   C3A 3981   4.839   1.521   9.523  0.1040 -0.3008  0.4185
  321YOPC   C4A 3982   4.609   1.431   9.142 -0.2830 -0.0227  0.0505
  321YOPC   C1B 3983   5.035   2.856  10.097 -0.3399 -0.1269 -0.3085
  321YOPC   C2B 3984   5.005   3.205   9.933 -0.0747 -0.0780 -0.0473
  321YOPC   D3B 3985   5.091   3.197   9.427  0.4271  0.2223 -0.1101
  321YOPC   C4B 3986   5.121   3.116   8.986 -0.0411  0.0165 -0.0557
  322YOPC   NC3 3987  14.243   2.669  10.299  0.2013  0.1457  0.0479
  322YOPC   PO4 3988  14.586   2.995  10.175 -0.2001 -0.0169 -0.3059
  322YOPC   GL1 3989  14.856   3.000   9.745 -0.2835  0.2292 -0.0408
  322YOPC   GL2 3990  14.938   3.312   9.653  0.0583  0.1543 -0.0223
  322YOPC   C1A 3991  14.733   3.063   9.218 -0.1907  0.2129  0.2293
  322YOPC   D2A 3992  14.449   3.119   8.829 -0.1869  0.1286  0.2527
  322YOPC   C3A 3993  14.533   2.843   8.480 -0.1729  0.1302  0.0483
  322YOPC   C4A 3994  14.628   2.407   8.330  0.1185 -0.2897 -0.0138
  322YOPC   C1B 3995  14.877   3.554   9.296 -0.1242  0.0580  0.3654
  322YOPC   C2B 3996  14.622   3.628   8.997  0.3736  0.1919 -0.0300
  322YOPC   D3B 3997  14.250   3.572   8.747  0.0181  0.1288 -0.0669
  322YOPC   C4B 3998  13.909   3.587   8.467 -0.1309 -0.0707  0.2651
  323YOPC   NC3 3999   6.274  12.246  10.052  0.0091 -0.2819  0.0867
  323YOPC   PO4 4000   6.630  12.344  10.285 -0.0504  0.1414 -0.1127
  323YOPC   GL1 4001   6.939  12.270   9.898  0.0471 -0.3185 -0.1421
  323YOPC   GL2 4002   7.230  12.269   9.891 -0.0657 -0.3058 -0.1794
  323YOPC   C1A 4003   6.937  12.340   9.481  0.0096 -0.0043  0.0583
  323YOPC   D2A 4004   6.927  12.328   9.016 -0.0869  0.3657 -0.1579
  323YOPC   C3A 4005   6.664  12.688   8.713 -0.3486  0.0013  0.1079
  323YOPC   C4A 4006   6.635  12.948   8.348  0.0506 -0.0889 -0.0617
  323YOPC   C1B 4007   7.428  12.302   9.443  0.2114  0.0295 -0.0294
  323YOPC   C2B 4008   7.420  12.476   9.082  0.1595  0.2399  0.0046
  323YOPC   D3B 4009   7.485  12.351   8.742  0.0710 -0.2006 -0.0215
  323YOPC   C4B 4010   7.772  12.383   8.420  0.2959  0.2787 -0.1470
  324YOPC   NC3 4011  12.993  10.199  10.037 -0.0428 -0.0136 -0.0211
  324YOPC   PO4 4012  13.404  10.005   9.825 -0.1116  0.0695 -0.0444
  324YOPC   GL1 4013  13.561   9.950   9.421 -0.1668 -0.1937 -0.1754
  324YOPC   GL2 4014  13.607  10.242   9.264  0.1138 -0.0619  0.0013
  324YOPC   C1A 4015  13.707   9.785   9.082  0.0295  0.2771  0.2110
  324YOPC   D2A 4016  13.730   9.819   8.601 -0.2912 -0.3616  0.2876
  324YOPC   C3A 4017  13.707   9.742   8.282  0.0510  0.0929  0.1030
  324YOPC   C4A 4018  13.814   9.871   7.827  0.3233 -0.0819  0.0599
  324YOPC   C1B 4019  13.353  10.125   8.814 -0.1808  0.0486  0.0724
  324YOPC   C2B 4020  13.382  10.236   8.345  0.0664  0.1794  0.0092
  324YOPC   D3B 4021  13.431  10.303   7.929  0.3112  0.0728  0.1512
  324YOPC   C4B 4022  13.733  10.334   7.635  0.1873 -0.2568 -0.0163
  325YOPC   NC3 4023   5.045  15.794  10.752  0.2103 -0.2981  0.0002
  325YOPC   PO4 4024   5.172  16.159  10.507 -0.0403  0.1223 -0.5109
  325YOPC   GL1 4025   5.386  16.268  10.198 -0.1361 -0.0238  0.1014
  325YOPC   GL2 4026   5.186  16.454  10.010  0.1061  0.2096 -0.0082
  325YOPC   C1A 4027   5.315  15.870   9.872 -0.1536 -0.0703  0.2647
  325YOPC   D2A 4028   5.343  15.868   9.336 -0.2249 -0.0322  0.0492
  325YOPC   C3A 4029   5.255  15.899   8.842  0.1394  0.0114  0.0974
  325YOPC   C4A 4030   5.489  15.622   8.575  0.3254  0.0583  0.3661
  325YOPC   C1B 4031   5.319  16.327   9.665  0.0061  0.0334  0.1158
  325YOPC   C2B 4032   5.335  16.394   9.239  0.0286 -0.0667 -0.2001
  325YOPC   D3B 4033   5.060  16.422   8.893  0.2157  0.0403  0.0684
  325YOPC   C4B 4034   5.022  16.436   8.414  0.1177 -0.2319  0.1222
  326YOPC   NC3 4035   5.041   7.834  10.517  0.0320 -0.0306  0.0591
  326YOPC   PO4 4036   4.931   7.840  10.139 -0.1633  0.0573  0.0162
  326YOPC   GL1 4037   5.026   7.835   9.713  0.0443  0.2017 -0.0227
  326YOPC   GL2 4038   4.962   8.076   9.583 -0.0778  0.0930 -0.1096
  326YOPC   C1A 4039   5.249   7.627   9.337  0.0821  0.0856 -0.0443
  326YOPC   D2A 4040   5.332   7.530   8.873 -0.1683  0.1438  0.1675
  326YOPC   C3A 4041   5.482   7.328   8.505  0.1398  0.2835  0.1567
  326YOPC   C4A 4042   5.872   7.231   8.328  0.1697 -0.0426 -0.2161
  326YOPC   C1B 4043   4.957   7.986   9.149 -0.0353 -0.0013 -0.0706
  326YOPC   C2B 4044   5.126   7.983   8.747  0.0081 -0.1427 -0.1159
  326YOPC   D3B 4045   5.057   8.245   8.424  0.3953 -0.0207 -0.2539
  326YOPC   C4B 4046   5.117   8.730   8.372  0.1871  0.0201 -0.1356
  327YOPC   NC3 4047  13.132   0.769  10.731 -0.0768 -0.0846 -0.0516
  327YOPC   PO4 4048  13.111   1.099  10.418  0.0496 -0.0707 -0.0143
  327YOPC   GL1 4049  12.963   1.153  10.034 -0.0620  0.0151  0.1489
  327YOPC   GL2 4050  12.762   1.407   9.911  0.2189 -0.1447  0.1946
  327YOPC   C1A 4051  13.124   1.137   9.645  0.1009 -0.2308 -0.0245
  327YOPC   D2A 4052  13.321   0.890   9.419 -0.1494 -0.4490  0.1335
  327YOPC   C3A 4053  13.261   0.942   8.991  0.0689 -0.1494  0.1614
  327YOPC   C4A 4054  13.494   1.078   8.597 -0.0294 -0.1104 -0.1651
  327YOPC   C1B 4055  12.691   1.261   9.425 -0.0173 -0.1575 -0.1747
  327YOPC   C2B 4056  12.673   1.240   8.990  0.0239 -0.0613 -0.2619
  327YOPC   D3B 4057  12.390   0.875   8.763 -0.0072 -0.0152  0.0020
  327YOPC   C4B 4058  12.024   0.786   8.478  0.1109 -0.0148  0.1709
  328YOPC   NC3 4059  15.448  16.184  10.350 -0.2735  0.3541 -0.1074
  328YOPC   PO4 4060  15.106  16.466  10.251  0.1259 -0.1429  0.0101
  328YOPC   GL1 4061  15.271  16.420   9.894  0.0365 -0.1906 -0.0378
  328YOPC   GL2 4062  15.668  16.436   9.959  0.0766 -0.3650 -0.1089
  328YOPC   C1A 4063  15.188  16.305   9.484  0.1868  0.1652  0.0694
  328YOPC   D2A 4064  15.124  16.219   9.065  0.0621 -0.3159  0.0706
  328YOPC   C3A 4065  15.170  16.556   8.673 -0.0099  0.1085 -0.1545
  328YOPC   C4A 4066  15.540  16.765   8.648  0.1970 -0.1496 -0.2984
  328YOPC   C1B 4067  15.617  16.442   9.460 -0.2696  0.1891 -0.0125
  328YOPC   C2B 4068  15.508  16.473   9.082 -0.1038 -0.1306  0.0085
  328YOPC   D3B 4069  15.887  16.501   8.874 -0.0557  0.1415 -0.3564
  328YOPC   C4B 4070  16.201  16.826   8.642 -0.2393  0.1285  0.2012
  329YOPC   NC3 4071  12.324  11.293  10.300 -0.1696 -0.0316 -0.1736
  329YOPC   PO4 4072  12.638  11.585  10.193 -0.1401 -0.2100 -0.2677
  329YOPC   GL1 4073  12.957  11.604   9.934 -0.1669 -0.1268 -0.6231
  329YOPC   GL2 4074  13.190  11.810   9.934 -0.0037 -0.2336  0.2230
  329YOPC   C1A 4075  13.105  11.550   9.508 -0.1483  0.2250  0.2412
  329YOPC   D2A 4076  12.989  11.681   9.137 -0.3530  0.1235  0.3177
  329YOPC   C3A 4077  12.773  11.367   8.816  0.1877 -0.3098 -0.2048
  329YOPC   C4A 4078  12.619  11.300   8.364 -0.2787 -0.1367 -0.2736
  329YOPC   C1B 4079  13.392  12.003   9.524 -0.1394 -0.3060 -0.0731
  329YOPC   C2B 4080  13.435  12.013   9.027  0.0748  0.0214  0.0121
  329YOPC   D3B 4081  13.434  12.344   8.747 -0.1534  0.1157  0.0002
  329YOPC   C4B 4082  13.610  12.509   8.396 -0.0860  0.2143 -0.0841
  330YOPC   NC3 4083   4.025  15.674  10.559  0.2895  0.0564  0.2045
  330YOPC   PO4 4084   3.662  15.490  10.302 -0.1037  0.0810 -0.0189
  330YOPC   GL1 4085   3.852  15.818  10.020  0.0032 -0.1610  0.1152
  330YOPC   GL2 4086   4.066  16.135  10.041  0.1498 -0.0509  0.1389
  330YOPC   C1A 4087   3.671  16.003   9.583 -0.1611  0.1826  0.1419
  330YOPC   D2A 4088   3.449  16.098   9.131  0.0553 -0.1942 -0.4551
  330YOPC   C3A 4089   3.691  16.203   8.909 -0.2106 -0.0216 -0.0835
  330YOPC   C4A 4090   3.655  16.107   8.423 -0.0792 -0.0588  0.0261
  330YOPC   C1B 4091   4.185  16.031   9.620 -0.0234  0.1247  0.0660
  330YOPC   C2B 4092   4.446  15.930   9.292 -0.0632  0.1311  0.0179
  330YOPC   D3B 4093   4.256  15.904   8.861 -0.1657 -0.3231  0.2310
  330YOPC   C4B 4094   4.052  15.724   8.469  0.3178 -0.2187 -0.1750
  331YOPC   NC3 4095  17.807   2.382   9.843  0.0877 -0.3594 -0.1084
  331YOPC   PO4 4096  18.054   2.149   9.676  0.1492  0.0035  0.2446
  331YOPC   GL1 4097  17.881   2.076   9.324 -0.1871 -0.1247 -0.0739
  331YOPC   GL2 4098  17.628   2.175   9.319  0.0053 -0.0884 -0.3060
  331YOPC   C1A 4099  17.890   2.138   8.818 -0.1237 -0.5074 -0.3901
  331YOPC   D2A 4100  18.119   2.041   8.414  0.1956 -0.1747 -0.3421
  331YOPC   C3A 4101  18.039   2.314   8.020  0.0904 -0.1949  0.0310
  331YOPC   C4A 4102  18.140   2.698   7.777 -0.0314  0.0612 -0.0082
  331YOPC   C1B 4103  17.666   2.598   9.153  0.1970 -0.0198 -0.3459
  331YOPC   C2B 4104  17.663   3.011   8.976  0.0437  0.0688  0.3002
  331YOPC   D3B 4105  18.036   3.043   8.676 -0.3942  0.2717  0.2279
  331YOPC   C4B 4106  18.318   2.945   8.300 -0.2615  0.0008 -0.4331
  332YOPC   NC3 4107   5.809  11.561  10.287  0.0807  0.5117 -0.2973
  332YOPC   PO4 4108   6.125  11.824  10.316  0.0977 -0.2735 -0.0431
  332YOPC   GL1 4109   6.028  11.758   9.914 -0.3640 -0.0904 -0.0222
  332YOPC   GL2 4110   6.026  11.484   9.746  0.1074  0.0948 -0.1967
  332YOPC   C1A 4111   5.663  11.734   9.551  0.0692  0.2012  0.3243
  332YOPC   D2A 4112   5.561  11.709   9.116 -0.0877  0.1633 -0.0476
  332YOPC   C3A 4113   5.465  11.298   9.061  0.2062  0.2454  0.0723
  332YOPC   C4A 4114   5.534  10.986   8.694 -0.1393  0.1859  0.0652
  332YOPC   C1B 4115   5.935  11.429   9.305  0.0006  0.1486  0.1466
  332YOPC   C2B 4116   5.934  11.374   8.844  0.1439  0.0582 -0.0521
  332YOPC   D3B 4117   5.593  11.550   8.658  0.3254 -0.3957 -0.0232
  332YOPC   C4B 4118   5.165  11.427   8.510 -0.0106  0.2026  0.0048
  333YOPC   NC3 4119  11.547  12.896  10.978  0.0315  0.0400 -0.0562
  333YOPC   PO4 4120  11.769  12.492  10.925  0.0366 -0.0974 -0.1884
  333YOPC   GL1 4121  11.859  12.674  10.518  0.1117 -0.2982  0.0432
  333YOPC   GL2 4122  11.701  12.568  10.188 -0.0256  0.0001  0.1053
  333YOPC   C1A 4123  11.885  13.010  10.223  0.1913  0.1088  0.1726
  333YOPC   D2A 4124  12.006  13.045   9.856  0.1487 -0.2864  0.1458
  333YOPC   C3A 4125  11.724  13.138   9.435 -0.3293 -0.0489  0.2219
  333YOPC   C4A 4126  11.446  13.065   9.084  0.1195 -0.1453  0.0429
  333YOPC   C1B 4127  11.594  12.734   9.817  0.1955 -0.0722 -0.0075
  333YOPC   C2B 4128  11.439  12.749   9.442  0.1067 -0.1082 -0.2776
  333YOPC   D3B 4129  11.411  12.420   9.263  0.0280 -0.0593  0.2789
  333YOPC   C4B 4130  11.240  12.473   8.890  0.2198 -0.2590  0.1584
  334YOPC   NC3 4131   7.329  16.213  10.869 -0.1576  0.1312  0.3128
  334YOPC   PO4 4132   6.959  16.285  10.693 -0.0984 -0.1071  0.1571
  334YOPC   GL1 4133   7.112  16.542  10.302 -0.2047 -0.0083 -0.0217
  334YOPC   GL2 4134   7.047  16.386  10.006 -0.0886  0.0121 -0.1338
  334YOPC   C1A 4135   7.304  16.769   9.875 -0.2378  0.0953 -0.1834
  334YOPC   D2A 4136   7.484  17.066   9.651  0.0648  0.0108 -0.1894
  334YOPC   C3A 4137   7.640  17.015   9.142  0.0227 -0.1811 -0.1051
  334YOPC   C4A 4138   7.884  16.901   8.817  0.2632 -0.0030 -0.0755
  334YOPC   C1B 4139   7.054  16.243   9.505 -0.0792  0.0174  0.1120
  334YOPC   C2B 4140   7.182  16.241   9.082 -0.4210  0.0336 -0.0381
  334YOPC   D3B 4141   7.127  15.883   8.854  0.0817 -0.1247 -0.0056
  334YOPC   C4B 4142   6.950  15.612   8.494  0.0050 -0.1740 -0.0572
  335YOPC   NC3 4143   6.499   9.397  10.696  0.0149  0.0948  0.0003
  335YOPC   PO4 4144   6.550   9.051  10.411  0.1940 -0.2167 -0.2285
  335YOPC   GL1 4145   6.480   8.891   9.981 -0.1216  0.0649 -0.4552
  335YOPC   GL2 4146   6.540   8.532   9.922  0.1554  0.2561 -0.0310
  335YOPC   C1A 4147   6.609   8.986   9.584 -0.2487  0.0767  0.4251
  335YOPC   D2A 4148   6.721   8.975   9.168  0.0194  0.2021  0.2018
  335YOPC   C3A 4149   6.546   9.223   8.792 -0.1872 -0.1329  0.2405
  335YOPC   C4A 4150   6.641   9.372   8.413  0.0929  0.4005  0.0558
  335YOPC   C1B 4151   6.889   8.557   9.696 -0.1412 -0.2461 -0.1278
  335YOPC   C2B 4152   6.949   8.533   9.313 -0.6343  0.1210 -0.1990
  335YOPC   D3B 4153   7.068   8.565   8.953  0.0244 -0.1541  0.1341
  335YOPC   C4B 4154   7.242   8.611   8.526 -0.0449  0.2037 -0.1259
  336YOPC   NC3 4155  12.202   7.529  10.190 -0.1665  0.2178  0.1008
  336YOPC   PO4 4156  11.881   7.601  10.000 -0.1557  0.0640  0.3996
  336YOPC   GL1 4157  12.064   7.325   9.688  0.1532 -0.3717  0.2519
  336YOPC   GL2 4158  11.977   6.965   9.646 -0.1372  0.1965  0.1227
  336YOPC   C1A 4159  12.173   7.353   9.236 -0.1571 -0.1002  0.1942
  336YOPC   D2A 4160  12.209   7.389   8.769 -0.2228 -0.2621  0.2393
  336YOPC   C3A 4161  12.004   7.325   8.431  0.0909 -0.3375 -0.4267
  336YOPC   C4A 4162  11.922   7.469   7.990 -0.0295  0.0504 -0.0742
  336YOPC   C1B 4163  12.088   6.790   9.106 -0.0880  0.3822  0.0230
  336YOPC   C2B 4164  12.367   6.458   8.896  0.1101  0.1211 -0.1905
  336YOPC   D3B 4165  12.656   6.614   8.578 -0.0734  0.0089 -0.1209
  336YOPC   C4B 4166  13.041   6.756   8.397 -0.0314  0.0604 -0.1898
  337YOPC   NC3 4167  17.688   3.201   9.861  0.0614 -0.4242  0.0638
  337YOPC   PO4 4168  17.705   3.658   9.804 -0.1123  0.1082 -0.0975
  337YOPC   GL1 4169  17.470   3.386   9.447  0.3498 -0.1750  0.1670
  337YOPC   GL2 4170  17.237   3.567   9.274 -0.1909  0.1626  0.1325
  337YOPC   C1A 4171  17.247   3.040   9.289 -0.0333 -0.0676  0.1933
  337YOPC   D2A 4172  16.974   3.035   8.891  0.0450  0.4966 -0.0527
  337YOPC   C3A 4173  17.229   2.757   8.781  0.3102 -0.0642 -0.1546
  337YOPC   C4A 4174  17.571   2.641   8.663 -0.1747  0.3224  0.1115
  337YOPC   C1B 4175  17.335   3.420   8.878 -0.1043 -0.1000  0.0292
  337YOPC   C2B 4176  17.395   3.176   8.550 -0.1095 -0.0524 -0.1253
  337YOPC   D3B 4177  17.552   3.258   8.192  0.1024  0.0215  0.3281
  337YOPC   C4B 4178  17.962   3.263   7.977  0.0570  0.0427  0.0053
  338YOPC   NC3 4179  11.440  16.556  10.882 -0.2019  0.0188 -0.2159
  338YOPC   PO4 4180  11.463  16.015  10.780 -0.1811 -0.2281 -0.2430
  338YOPC   GL1 4181  11.298  15.909  10.341 -0.0938  0.2887 -0.2807
  338YOPC   GL2 4182  11.561  15.733  10.108  0.2367  0.3524  0.0561
  338YOPC   C1A 4183  11.264  16.143  10.004 -0.1993 -0.0441 -0.0792
  338YOPC   D2A 4184  11.143  16.296   9.610 -0.1699 -0.0615  0.3531
  338YOPC   C3A 4185  11.392  16.451   9.402 -0.3226 -0.1054  0.1535
  338YOPC   C4A 4186  11.469  16.671   9.015  0.2204  0.0102 -0.0826
  338YOPC   C1B 4187  11.539  15.335   9.857  0.0199 -0.2740  0.1961
  338YOPC   C2B 4188  11.424  15.192   9.411  0.1914 -0.1220 -0.0326
  338YOPC   D3B 4189  11.673  15.261   9.035 -0.1177  0.0267 -0.1160
  338YOPC   C4B 4190  11.743  15.006   8.697 -0.1631  0.2463  0.1127
  339YOPC   NC3 4191   9.998  10.184  10.117  0.1021 -0.0558  0.2945
  339YOPC   PO4 4192   9.755  10.564  10.234  0.0591 -0.1734 -0.3102
  339YOPC   GL1 4193   9.437  10.688   9.975  0.1415 -0.0232  0.2241
  339YOPC   GL2 4194   9.371  10.430   9.781 -0.1930  0.0228 -0.0959
  339YOPC   C1A 4195   9.317  11.042   9.656  0.5174 -0.1099 -0.0369
  339YOPC   D2A 4196   9.210  11.212   9.303  0.1647 -0.0464 -0.1718
  339YOPC   C3A 4197   9.032  11.051   8.938  0.0916  0.1656 -0.0781
  339YOPC   C4A 4198   9.070  10.987   8.620 -0.0154 -0.1392  0.0590
  339YOPC   C1B 4199   9.170  10.645   9.407 -0.2423 -0.2303  0.1888
  339YOPC   C2B 4200   9.494  10.799   9.013 -0.0009 -0.0035 -0.1556
  339YOPC   D3B 4201   9.542  11.149   8.682 -0.0250  0.1140 -0.0097
  339YOPC   C4B 4202   9.866  11.465   8.511  0.1719 -0.1536  0.0345
  340YOPC   NC3 4203  15.416   7.807   9.987 -0.1508 -0.1366  0.2466
  340YOPC   PO4 4204  15.215   7.369   9.987  0.0962  0.0214 -0.0768
  340YOPC   GL1 4205  15.338   7.352   9.579  0.1979  0.1284 -0.2250
  340YOPC   GL2 4206  15.433   7.622   9.493 -0.1710 -0.1657 -0.0467
  340YOPC   C1A 4207  15.307   7.236   9.199 -0.2473  0.0268 -0.0683
  340YOPC   D2A 4208  15.070   7.027   8.959 -0.0644  0.1238  0.3981
  340YOPC   C3A 4209  15.088   6.820   8.550  0.0156  0.0960  0.0446
  340YOPC   C4A 4210  15.022   6.796   8.056  0.2020 -0.1141  0.0545
  340YOPC   C1B 4211  15.257   7.679   9.103 -0.0412 -0.1115 -0.0223
  340YOPC   C2B 4212  15.235   7.485   8.712  0.2781 -0.3051 -0.1336
  340YOPC   D3B 4213  15.102   7.773   8.379  0.2898 -0.1907 -0.0727
  340YOPC   C4B 4214  14.972   8.146   8.145  0.0075 -0.1865  0.1331
  341YOPC   NC3 4215   7.503   3.133  10.463  0.3650 -0.0107  0.1503
  341YOPC   PO4 4216   7.493   2.702  10.324  0.0330 -0.0442 -0.0532
  341YOPC   GL1 4217   7.294   2.617   9.936 -0.1209  0.2185  0.1498
  341YOPC   GL2 4218   6.919   2.709  10.101  0.0274  0.0613 -0.3007
  341YOPC   C1A 4219   7.289   2.743   9.444 -0.1483  0.2243  0.0951
  341YOPC   D2A 4220   7.265   2.497   9.099  0.0324  0.2113  0.0286
  341YOPC   C3A 4221   7.249   2.717   8.771 -0.1374  0.0655 -0.0506
  341YOPC   C4A 4222   7.026   2.955   8.473 -0.1756 -0.0657 -0.2731
  341YOPC   C1B 4223   6.793   2.469   9.783 -0.4385  0.2308 -0.0134
  341YOPC   C2B 4224   6.686   2.263   9.313 -0.0706  0.0343  0.2184
  341YOPC   D3B 4225   6.576   1.939   9.209  0.0313  0.0488 -0.0676
  341YOPC   C4B 4226   6.434   1.677   9.264 -0.0340 -0.0021 -0.0368
  342YOPC   NC3 4227  15.654   9.195  10.018 -0.3086 -0.2094  0.0644
  342YOPC   PO4 4228  15.285   8.896   9.891  0.0298  0.0235 -0.4444
  342YOPC   GL1 4229  15.109   8.814   9.405 -0.0668 -0.0254  0.0943
  342YOPC   GL2 4230  15.050   8.473   9.339  0.0514 -0.2774 -0.2625
  342YOPC   C1A 4231  14.888   8.972   9.077  0.1612 -0.1051 -0.1073
  342YOPC   D2A 4232  14.826   9.264   8.709  0.1204 -0.4056 -0.3032
  342YOPC   C3A 4233  15.006   9.193   8.362 -0.0510 -0.1303 -0.0176
  342YOPC   C4A 4234  15.198   9.175   7.903 -0.0102  0.0425 -0.1182
  342YOPC   C1B 4235  15.270   8.541   9.015 -0.0509  0.5368  0.0870
  342YOPC   C2B 4236  15.050   8.786   8.609 -0.3433 -0.2370 -0.0436
  342YOPC   D3B 4237  15.194   8.653   8.175  0.2110 -0.0537 -0.4779
  342YOPC   C4B 4238  15.487   8.388   7.754 -0.1529 -0.0952 -0.0137
  343YOPC   NC3 4239  15.258   6.696   9.944  0.1409 -0.0622 -0.0934
  343YOPC   PO4 4240  15.557   6.305   9.836  0.2222 -0.2264  0.3693
  343YOPC   GL1 4241  15.597   6.441   9.440  0.1922 -0.2535 -0.0666
  343YOPC   GL2 4242  15.782   6.129   9.376 -0.1298 -0.2836  0.1063
  343YOPC   C1A 4243  15.423   6.670   9.116 -0.0634 -0.1860  0.0729
  343YOPC   D2A 4244  15.338   6.428   8.720 -0.1772  0.0963 -0.0313
  343YOPC   C3A 4245  15.426   6.565   8.343 -0.4562  0.1122  0.0815
  343YOPC   C4A 4246  15.477   6.844   7.872  0.3004 -0.3944  0.5742
  343YOPC   C1B 4247  15.825   6.128   8.953  0.0836  0.0612  0.2234
  343YOPC   C2B 4248  15.777   6.158   8.432 -0.2360 -0.1145  0.1821
  343YOPC   D3B 4249  15.402   6.073   8.289 -0.2835  0.1680 -0.1157
  343YOPC   C4B 4250  15.021   6.249   8.289 -0.1366  0.1566  0.0997
  344YOPC   NC3 4251  12.944   7.009   9.981  0.1517  0.0606  0.1882
  344YOPC   PO4 4252  12.588   7.184  10.179  0.2521  0.1036  0.1519
  344YOPC   GL1 4253  12.515   7.165   9.719 -0.0331 -0.1650 -0.2295
  344YOPC   GL2 4254  12.560   7.417   9.572  0.0572  0.1980  0.1552
  344YOPC   C1A 4255  12.603   6.930   9.363 -0.1976  0.1483  0.1199
  344YOPC   D2A 4256  12.500   6.999   8.984  0.1440  0.0234 -0.1032
  344YOPC   C3A 4257  12.926   7.045   8.829  0.1164  0.3847 -0.2281
  344YOPC   C4A 4258  13.350   6.901   8.825  0.0301  0.2182 -0.0028
  344YOPC   C1B 4259  12.728   7.406   9.189  0.2369  0.0064 -0.1875
  344YOPC   C2B 4260  12.783   7.629   8.934 -0.0071 -0.1334  0.0899
  344YOPC   D3B 4261  12.664   7.554   8.605  0.0748 -0.2851  0.2858
  344YOPC   C4B 4262  12.404   7.557   8.186  0.0391 -0.0019  0.2258
  345YOPC   NC3 4263  10.494  17.447  10.804  0.0373  0.0225 -0.0659
  345YOPC   PO4 4264  10.383  17.343  10.357  0.0170  0.0782 -0.3694
  345YOPC   GL1 4265  10.558  17.246  10.098  0.0192  0.1139 -0.2311
  345YOPC   GL2 4266  10.602  16.932   9.978  0.0304  0.3030  0.0575
  345YOPC   C1A 4267  10.779  17.170   9.619 -0.1690 -0.0642  0.1094
  345YOPC   D2A 4268  11.048  17.407   9.210  0.1410  0.1603 -0.1669
  345YOPC   C3A 4269  11.011  17.281   8.742  0.1804  0.0529  0.0649
  345YOPC   C4A 4270  10.902  16.834   8.505  0.1486 -0.2275  0.0345
  345YOPC   C1B 4271  10.830  16.677   9.561  0.1951  0.0323 -0.1381
  345YOPC   C2B 4272  10.653  16.348   9.329 -0.0116  0.0491  0.0428
  345YOPC   D3B 4273  11.021  16.227   9.150 -0.1233 -0.2047 -0.0956
  345YOPC   C4B 4274  11.364  16.177   8.964 -0.3010 -0.0531  0.0793
  346YOPC   NC3 4275   3.085  14.261  10.826 -0.3512  0.1734 -0.0021
  346YOPC   PO4 4276   3.239  13.884  10.613  0.4365  0.2516  0.0178
  346YOPC   GL1 4277   3.211  13.781  10.201 -0.2647 -0.4912  0.5453
  346YOPC   GL2 4278   3.460  13.587  10.047  0.0635  0.2021  0.3059
  346YOPC   C1A 4279   3.016  13.696   9.881 -0.3770  0.4851 -0.1636
  346YOPC   D2A 4280   2.766  13.949   9.675  0.2292  0.3630  0.1983
  346YOPC   C3A 4281   2.406  14.223   9.755 -0.0012 -0.3774  0.0032
  346YOPC   C4A 4282   2.176  14.499  10.111  0.0569  0.0034  0.0726
  346YOPC   C1B 4283   3.701  13.255   9.765  0.2134  0.1076 -0.0521
  346YOPC   C2B 4284   3.760  13.024   9.445 -0.0902  0.0476 -0.3027
  346YOPC   D3B 4285   3.805  13.082   8.940  0.0467  0.0691 -0.1489
  346YOPC   C4B 4286   3.434  13.081   8.649  0.2951  0.1207  0.0153
  347YOPC   NC3 4287  14.403  16.716  10.120  0.0709 -0.3245  0.0169
  347YOPC   PO4 4288  14.837  16.886  10.227  0.3329  0.2781 -0.0974
  347YOPC   GL1 4289  14.708  17.047   9.857 -0.0001 -0.0384  0.2673
  347YOPC   GL2 4290  14.416  17.150   9.872 -0.3228  0.1675 -0.2029
  347YOPC   C1A 4291  14.898  16.988   9.477 -0.0664 -0.1680  0.0768
  347YOPC   D2A 4292  14.934  16.717   9.268  0.0287  0.1452 -0.5258
  347YOPC   C3A 4293  14.754  16.548   9.058  0.3053  0.0593  0.1867
  347YOPC   C4A 4294  14.588  16.446   8.732  0.1260  0.0871 -0.1069
  347YOPC   C1B 4295  14.374  16.965   9.479  0.1309  0.0296 -0.1971
  347YOPC   C2B 4296  14.467  17.005   9.185 -0.1652 -0.0469 -0.0657
  347YOPC   D3B 4297  14.291  16.796   8.865 -0.2955  0.5835  0.1165
  347YOPC   C4B 4298  14.079  16.510   8.571  0.0638  0.1894 -0.1503
  348YOPC   NC3 4299   2.192   9.417  10.396 -0.3948  0.1884  0.1264
  348YOPC   PO4 4300   2.047   9.893  10.318  0.1501  0.1722 -0.0486
  348YOPC   GL1 4301   2.058   9.701   9.996  0.1675 -0.1030 -0.3780
  348YOPC   GL2 4302   2.412   9.661   9.937  0.0541  0.3842  0.1192
  348YOPC   C1A 4303   1.939   9.720   9.574 -0.0667 -0.3042  0.0252
  348YOPC   D2A 4304   1.840   9.563   9.169  0.0083  0.1476 -0.1763
  348YOPC   C3A 4305   1.914   9.829   8.856  0.2189 -0.0760  0.1436
  348YOPC   C4A 4306   1.769   9.929   8.570  0.1111  0.5340  0.2010
  348YOPC   C1B 4307   2.450   9.429   9.594  0.3263 -0.1786 -0.0567
  348YOPC   C2B 4308   2.665   9.398   9.176  0.0647 -0.1227  0.0724
  348YOPC   D3B 4309   2.737   9.680   8.794 -0.0152  0.0685  0.4344
  348YOPC   C4B 4310   2.836   9.997   8.447  0.1150  0.0145  0.0745
  349YOPC   NC3 4311  17.791   9.484  10.083  0.1628 -0.3036 -0.0065
  349YOPC   PO4 4312  18.267   9.482  10.048  0.0031 -0.0373  0.1323
  349YOPC   GL1 4313  18.238   9.528   9.696 -0.0209  0.0021 -0.2811
  349YOPC   GL2 4314  17.952   9.675   9.597  0.3206 -0.1311 -0.0221
  349YOPC   C1A 4315  18.223   9.538   9.248 -0.0751  0.2117  0.0549
  349YOPC   D2A 4316  17.993   9.625   8.875 -0.0612 -0.2172  0.1494
  349YOPC   C3A 4317  18.094   9.946   8.457  0.2219 -0.0281  0.1900
  349YOPC   C4A 4318  18.474  10.160   8.493 -0.0397  0.1307 -0.1946
  349YOPC   C1B 4319  18.022  10.019   9.344 -0.3119  0.1131 -0.0294
  349YOPC   C2B 4320  18.066  10.176   8.915 -0.2442  0.1378  0.3056
  349YOPC   D3B 4321  17.869  10.556   8.672 -0.0174 -0.1914  0.1569
  349YOPC   C4B 4322  17.643  10.833   8.401  0.0455  0.1029  0.1254
  350YOPC   NC3 4323   1.923  14.035  11.209 -0.0429  0.1526  0.1594
  350YOPC   PO4 4324   1.790  14.327  10.942  0.0232  0.1175  0.0079
  350YOPC   GL1 4325   1.682  14.567  10.626  0.0507 -0.0407 -0.0236
  350YOPC   GL2 4326   1.319  14.488  10.484 -0.2724  0.0740 -0.2427
  350YOPC   C1A 4327   1.819  14.860  10.316 -0.2122 -0.2202  0.0866
  350YOPC   D2A 4328   1.794  15.252  10.133 -0.4652 -0.0074  0.0109
  350YOPC   C3A 4329   1.956  15.539  10.321  0.3261  0.2933 -0.2260
  350YOPC   C4A 4330   2.250  15.659  10.628 -0.0154  0.0483  0.1272
  350YOPC   C1B 4331   1.144  14.724  10.163 -0.3080 -0.0981  0.0829
  350YOPC   C2B 4332   0.831  15.027   9.981  0.1120  0.0472  0.0291
  350YOPC   D3B 4333   0.743  14.945   9.580  0.2450 -0.0928 -0.1337
  350YOPC   C4B 4334   0.590  15.074   9.199  0.1027  0.1218 -0.0953
  351YOPC   NC3 4335  14.710  10.263   9.821  0.2937 -0.0931 -0.0311
  351YOPC   PO4 4336  14.523  10.564  10.089  0.2060 -0.0406  0.2977
  351YOPC   GL1 4337  14.437  10.707   9.625 -0.0886 -0.0702 -0.0439
  351YOPC   GL2 4338  14.546  10.482   9.362 -0.3961  0.0317  0.0731
  351YOPC   C1A 4339  14.383  11.055   9.395  0.0068  0.2303  0.1265
  351YOPC   D2A 4340  14.515  11.155   8.961  0.2379 -0.1035 -0.1020
  351YOPC   C3A 4341  14.307  11.366   8.629  0.2812 -0.3054  0.0581
  351YOPC   C4A 4342  14.507  11.686   8.400 -0.2334  0.1335  0.1197
  351YOPC   C1B 4343  14.653  10.496   8.813  0.1281  0.3764  0.2281
  351YOPC   C2B 4344  14.867  10.621   8.423 -0.0108 -0.0388  0.0579
  351YOPC   D3B 4345  15.202  10.990   8.322  0.3681  0.1356  0.0105
  351YOPC   C4B 4346  15.496  11.016   8.301  0.1715 -0.1758 -0.1596
  352YOPC   NC3 4347  15.733   2.364  10.146 -0.0244  0.0705 -0.0251
  352YOPC   PO4 4348  15.374   2.352  10.327 -0.4354  0.1861  0.3215
  352YOPC   GL1 4349  15.047   2.237  10.036  0.0752 -0.1241  0.2969
  352YOPC   GL2 4350  15.103   2.335   9.699  0.1522  0.3593 -0.0111
  352YOPC   C1A 4351  14.968   1.821   9.805  0.3338  0.2036 -0.0613
  352YOPC   D2A 4352  14.791   1.589   9.393 -0.2722 -0.0926  0.0299
  352YOPC   C3A 4353  14.628   1.895   9.097  0.0339 -0.0596  0.2158
  352YOPC   C4A 4354  14.317   2.100   8.940 -0.0512 -0.1602 -0.2371
  352YOPC   C1B 4355  15.158   2.043   9.345  0.0303 -0.2234 -0.0306
  352YOPC   C2B 4356  15.052   1.984   9.002 -0.1114  0.2482  0.1068
  352YOPC   D3B 4357  14.716   2.376   8.896 -0.0561  0.1315  0.2261
  352YOPC   C4B 4358  14.950   2.839   8.784  0.0762  0.0629  0.2931
  353YOPC   NC3 4359  12.487   9.454  10.092  0.1924 -0.1397 -0.1357
  353YOPC   PO4 4360  12.470   9.865   9.769 -0.0897 -0.0835  0.1195
  353YOPC   GL1 4361  12.233  10.044   9.452  0.1771 -0.1459  0.0434
  353YOPC   GL2 4362  12.013   9.964   9.320 -0.2957  0.1698  0.0730
  353YOPC   C1A 4363  12.316  10.324   9.118 -0.2979 -0.1014 -0.0710
  353YOPC   D2A 4364  12.596  10.628   8.973 -0.0838  0.0793  0.4249
  353YOPC   C3A 4365  12.747  10.892   8.635  0.1226 -0.2249 -0.3483
  353YOPC   C4A 4366  12.983  10.901   8.257 -0.0166 -0.0021  0.1810
  353YOPC   C1B 4367  11.888  10.160   8.891 -0.2814 -0.4028  0.0326
  353YOPC   C2B 4368  11.970  10.365   8.503 -0.2383  0.0770 -0.0519
  353YOPC   D3B 4369  12.289  10.343   8.334 -0.0412 -0.2834  0.1810
  353YOPC   C4B 4370  12.307  10.102   7.950 -0.1259  0.3473  0.0574
  354YOPC   NC3 4371   8.937   7.173  10.737  0.2008  0.3784  0.3459
  354YOPC   PO4 4372   8.658   7.373  10.385  0.0178 -0.2305 -0.2365
  354YOPC   GL1 4373   8.607   7.557   9.992  0.1046  0.2675 -0.0834
  354YOPC   GL2 4374   8.539   7.759   9.997 -0.2936 -0.1224  0.0385
  354YOPC   C1A 4375   8.410   7.597   9.558  0.0675 -0.1105 -0.0291
  354YOPC   D2A 4376   8.099   7.482   9.263  0.0690 -0.1857  0.1051
  354YOPC   C3A 4377   8.173   7.337   8.776 -0.1262 -0.4888  0.2327
  354YOPC   C4A 4378   8.108   7.225   8.339 -0.0253 -0.3700  0.0106
  354YOPC   C1B 4379   8.267   8.048   9.901  0.2816  0.0555  0.3792
  354YOPC   C2B 4380   8.280   8.150   9.479  0.1519 -0.1117  0.0872
  354YOPC   D3B 4381   8.412   8.376   9.186 -0.1439  0.2299  0.1866
  354YOPC   C4B 4382   8.328   8.445   8.723  0.0722 -0.2614 -0.2625
  355YOPC   NC3 4383   3.482  10.363  10.417 -0.0579  0.2291 -0.3802
  355YOPC   PO4 4384   3.377   9.950  10.388  0.2452  0.2911 -0.3591
  355YOPC   GL1 4385   3.431   9.945  10.057 -0.1570 -0.0330 -0.3742
  355YOPC   GL2 4386   3.731   9.796  10.043 -0.0223 -0.0207  0.4442
  355YOPC   C1A 4387   3.426   9.606   9.742 -0.3052 -0.0683  0.1191
  355YOPC   D2A 4388   3.380   9.718   9.388  0.4016  0.0173  0.1620
  355YOPC   C3A 4389   3.617   9.634   9.067  0.0011  0.1786 -0.0213
  355YOPC   C4A 4390   3.563   9.834   8.660 -0.1122  0.4618 -0.0002
  355YOPC   C1B 4391   3.721  10.011   9.635 -0.3106  0.2973  0.2312
  355YOPC   C2B 4392   4.046   9.945   9.334 -0.1249  0.0177  0.1136
  355YOPC   D3B 4393   4.072  10.123   9.047  0.2409  0.2231  0.0777
  355YOPC   C4B 4394   3.846  10.244   8.716  0.0221  0.1670 -0.1182
  356YOPC   NC3 4395   2.245  10.644  10.424  0.2780  0.0548  0.1216
  356YOPC   PO4 4396   1.890  10.701  10.588 -0.0430  0.0189 -0.1602
  356YOPC   GL1 4397   1.891  10.596  10.111 -0.0783  0.0249 -0.3127
  356YOPC   GL2 4398   1.594  10.457   9.875 -0.1435 -0.3091 -0.4260
  356YOPC   C1A 4399   1.932  10.793   9.740 -0.0007  0.0431 -0.2780
  356YOPC   D2A 4400   1.981  10.986   9.344  0.0705 -0.0498  0.1718
  356YOPC   C3A 4401   2.260  10.920   9.137  0.0364  0.0326 -0.0606
  356YOPC   C4A 4402   2.462  10.910   8.827 -0.0790  0.0458  0.2541
  356YOPC   C1B 4403   1.527  10.665   9.498 -0.2111  0.0081 -0.1005
  356YOPC   C2B 4404   1.470  10.892   9.100  0.0286  0.2350 -0.0474
  356YOPC   D3B 4405   1.804  10.844   8.848  0.0697 -0.2902  0.0796
  356YOPC   C4B 4406   1.915  10.701   8.430 -0.1168 -0.2078 -0.0199
  357YOPC   NC3 4407  11.085   6.352  10.218  0.0576  0.0327 -0.1154
  357YOPC   PO4 4408  11.178   5.900  10.301  0.1166 -0.2085  0.0444
  357YOPC   GL1 4409  10.884   5.885   9.936 -0.0211 -0.4049 -0.0569
  357YOPC   GL2 4410  11.107   5.813   9.793 -0.0791  0.0604  0.1694
  357YOPC   C1A 4411  10.790   6.201   9.545  0.1405  0.1262 -0.1140
  357YOPC   D2A 4412  10.758   6.339   9.137  0.1705  0.0550  0.0348
  357YOPC   C3A 4413  10.852   6.075   8.739  0.2802  0.0443  0.0886
  357YOPC   C4A 4414  11.031   6.213   8.323 -0.0051 -0.1611 -0.1332
  357YOPC   C1B 4415  11.181   5.580   9.404 -0.0163  0.0832 -0.3595
  357YOPC   C2B 4416  11.367   5.523   9.053  0.0853  0.0182  0.1290
  357YOPC   D3B 4417  11.623   5.602   8.689 -0.1177 -0.0694  0.0785
  357YOPC   C4B 4418  11.852   5.598   8.284 -0.0090 -0.1725  0.0783
  358YOPC   NC3 4419   7.868   5.399  10.304 -0.0219  0.1482 -0.1265
  358YOPC   PO4 4420   8.068   5.332   9.954 -0.2581  0.0748  0.1529
  358YOPC   GL1 4421   8.138   5.156   9.552 -0.2617 -0.1153  0.0479
  358YOPC   GL2 4422   8.308   5.252   9.504 -0.2517 -0.3849 -0.1301
  358YOPC   C1A 4423   8.153   5.203   9.062  0.0536  0.2760 -0.0523
  358YOPC   D2A 4424   8.102   5.174   8.622  0.0786 -0.2860  0.3801
  358YOPC   C3A 4425   8.329   5.085   8.409  0.1411  0.1550  0.1579
  358YOPC   C4A 4426   8.748   5.138   8.537  0.3922 -0.1522 -0.0307
  358YOPC   C1B 4427   8.456   4.851   9.336  0.3674 -0.1390 -0.1344
  358YOPC   C2B 4428   8.513   4.848   8.875 -0.1943  0.1393  0.2069
  358YOPC   D3B 4429   8.905   4.720   8.692 -0.0277 -0.0441  0.3743
  358YOPC   C4B 4430   9.312   4.808   8.499 -0.1553 -0.0939 -0.2161
  359YOPC   NC3 4431   8.889  17.989  10.762  0.0096  0.2286  0.0639
  359YOPC   PO4 4432   9.139  17.584  10.607 -0.2234 -0.1185  0.0668
  359YOPC   GL1 4433   8.888  17.733  10.328  0.0386 -0.0444  0.0872
  359YOPC   GL2 4434   8.678  17.601  10.188  0.0281 -0.1697  0.0934
  359YOPC   C1A 4435   8.634  18.102  10.002 -0.1015  0.2002  0.0748
  359YOPC   D2A 4436   8.435  18.487  10.027 -0.1130 -0.2562  0.1091
  359YOPC   C3A 4437   8.700  18.764  10.153 -0.0226  0.0588  0.2054
  359YOPC   C4A 4438   9.098  18.818  10.415  0.1877  0.0840 -0.0024
  359YOPC   C1B 4439   8.416  17.644   9.906  0.2201  0.1050 -0.2554
  359YOPC   C2B 4440   8.540  17.769   9.476  0.0887 -0.1807  0.2133
  359YOPC   D3B 4441   8.320  17.928   9.180 -0.2366  0.1584 -0.1745
  359YOPC   C4B 4442   8.479  17.864   8.823 -0.2685 -0.0021  0.1925
  360YOPC   NC3 4443   5.735  16.159  10.460  0.3006 -0.1855  0.0223
  360YOPC   PO4 4444   6.170  16.162  10.389 -0.0564  0.0784 -0.0500
  360YOPC   GL1 4445   6.146  16.246   9.987 -0.0405 -0.0405 -0.4720
  360YOPC   GL2 4446   6.395  16.513   9.917  0.1720  0.2301  0.0518
  360YOPC   C1A 4447   6.193  16.206   9.547 -0.3546  0.2543  0.1541
  360YOPC   D2A 4448   6.230  16.313   9.123  0.2186 -0.2905 -0.2570
  360YOPC   C3A 4449   6.352  16.759   9.045 -0.1033  0.1640 -0.0872
  360YOPC   C4A 4450   6.721  16.929   8.925  0.0903  0.1491 -0.0146
  360YOPC   C1B 4451   6.508  16.562   9.487  0.2235  0.0427  0.1440
  360YOPC   C2B 4452   6.777  16.467   9.099 -0.1116 -0.1851 -0.1033
  360YOPC   D3B 4453   6.549  16.512   8.683 -0.0075 -0.2457  0.1083
  360YOPC   C4B 4454   6.324  16.896   8.504 -0.0303 -0.0952 -0.3667
  361YOPC   NC3 4455   3.996   8.031   9.945  0.2810 -0.0043  0.3444
  361YOPC   PO4 4456   3.849   8.509  10.049 -0.1184 -0.0033 -0.0359
  361YOPC   GL1 4457   4.035   8.788   9.738  0.2554  0.0400  0.1237
  361YOPC   GL2 4458   4.183   8.967   9.735  0.2149 -0.5732  0.1715
  361YOPC   C1A 4459   3.845   8.865   9.351 -0.2158 -0.1233  0.1798
  361YOPC   D2A 4460   3.799   9.030   8.993 -0.1823 -0.0849 -0.0289
  361YOPC   C3A 4461   3.757   9.326   8.704  0.4659 -0.0589  0.2136
  361YOPC   C4A 4462   3.820   9.527   8.365 -0.1770  0.0049 -0.1062
  361YOPC   C1B 4463   4.290   9.121   9.288 -0.0128  0.0295  0.0752
  361YOPC   C2B 4464   4.132   9.447   9.020 -0.2381  0.0848  0.0695
  361YOPC   D3B 4465   4.112   9.766   8.707  0.0177 -0.2013  0.0782
  361YOPC   C4B 4466   4.098   9.956   8.378 -0.1935 -0.1410 -0.0476
  362YOPC   NC3 4467   2.710  18.274  10.992 -0.2363  0.1537 -0.0411
  362YOPC   PO4 4468   2.831  18.659  10.771 -0.0633  0.1799 -0.3174
  362YOPC   GL1 4469   2.923  18.858  10.452  0.1217  0.1248  0.2180
  362YOPC   GL2 4470   3.179  19.112  10.392 -0.0992 -0.0099 -0.2153
  362YOPC   C1A 4471   2.946  18.716  10.042 -0.1532  0.1373  0.2150
  362YOPC   D2A 4472   2.770  18.831   9.729  0.4489  0.0549  0.0247
  362YOPC   C3A 4473   2.961  18.800   9.341  0.0004  0.1393 -0.0698
  362YOPC   C4A 4474   3.049  18.765   8.887  0.1524  0.0336  0.4218
  362YOPC   C1B 4475   3.148  19.136   9.925 -0.0234 -0.0065  0.2749
  362YOPC   C2B 4476   2.969  19.312   9.493  0.2397 -0.1207 -0.2416
  362YOPC   D3B 4477   3.166  19.231   9.099 -0.3275  0.0903 -0.0556
  362YOPC   C4B 4478   3.316  19.112   8.711  0.1539 -0.0088  0.0027
  363YOPC   NC3 4479   6.991   0.552  10.714 -0.2734  0.1960  0.1103
  363YOPC   PO4 4480   6.729   0.373  10.484  0.1259  0.1870 -0.0959
  363YOPC   GL1 4481   6.711   0.388  10.117  0.2114 -0.3457  0.1868
  363YOPC   GL2 4482   6.857   0.617   9.984 -0.0517  0.2051 -0.1327
  363YOPC   C1A 4483   6.720   0.085   9.810  0.2392  0.1274  0.0201
  363YOPC   D2A 4484   6.778  -0.004   9.409 -0.1113 -0.3524  0.1412
  363YOPC   C3A 4485   6.494  -0.013   9.055  0.2796  0.0474  0.1889
  363YOPC   C4A 4486   6.313   0.263   8.708 -0.0308 -0.0660  0.0323
  363YOPC   C1B 4487   6.857   0.541   9.583 -0.2151 -0.1580  0.1501
  363YOPC   C2B 4488   6.924   0.367   9.174 -0.2765  0.1770 -0.0806
  363YOPC   D3B 4489   6.818   0.346   8.771  0.0794  0.3204 -0.0678
  363YOPC   C4B 4490   6.897   0.343   8.371 -0.0749  0.1583  0.1261
  364YOPC   NC3 4491  13.189   5.045  10.380  0.2316 -0.0358  0.1637
  364YOPC   PO4 4492  13.567   4.930  10.281 -0.2354 -0.0716  0.0002
  364YOPC   GL1 4493  13.530   5.177   9.996 -0.0690 -0.2464  0.1889
  364YOPC   GL2 4494  13.474   5.035   9.630  0.1879  0.4381 -0.1740
  364YOPC   C1A 4495  13.804   5.451   9.722  0.2401  0.1701 -0.5534
  364YOPC   D2A 4496  13.912   5.716   9.358 -0.0821  0.2828 -0.1247
  364YOPC   C3A 4497  13.867   6.127   9.272  0.0577 -0.0618 -0.0867
  364YOPC   C4A 4498  13.805   6.203   8.816 -0.0836 -0.0337 -0.1450
  364YOPC   C1B 4499  13.197   4.944   9.319  0.2032  0.1011  0.0376
  364YOPC   C2B 4500  12.945   5.223   9.159 -0.2302 -0.0039  0.0307
  364YOPC   D3B 4501  12.678   5.124   8.840  0.1233  0.1629  0.1252
  364YOPC   C4B 4502  12.469   5.324   8.452  0.2031  0.2772  0.0247
  365YOPC   NC3 4503   4.332  14.773  10.465  0.0794 -0.0978 -0.0174
  365YOPC   PO4 4504   4.747  15.024  10.448 -0.3742  0.2301  0.1292
  365YOPC   GL1 4505   4.755  14.990  10.012 -0.1340 -0.2633  0.1603
  365YOPC   GL2 4506   4.872  14.586   9.913  0.1106  0.0558  0.1601
  365YOPC   C1A 4507   4.842  14.973   9.546 -0.0638 -0.0917 -0.3228
  365YOPC   D2A 4508   4.868  15.064   9.087 -0.4156 -0.1027 -0.0598
  365YOPC   C3A 4509   4.578  15.012   8.795 -0.2498  0.0716 -0.0871
  365YOPC   C4A 4510   4.321  14.576   8.720  0.1088 -0.0973  0.1464
  365YOPC   C1B 4511   4.937  14.523   9.454 -0.2124 -0.0682  0.2763
  365YOPC   C2B 4512   5.111  14.648   9.060  0.2753 -0.4452  0.2060
  365YOPC   D3B 4513   5.024  14.672   8.589 -0.0230  0.0304  0.4429
  365YOPC   C4B 4514   4.698  14.630   8.256 -0.3067  0.1521 -0.0404
  366YOPC   NC3 4515  16.165  16.899  10.424  0.4429  0.0262  0.0383
  366YOPC   PO4 4516  16.134  16.473  10.494 -0.0558 -0.0781 -0.6620
  366YOPC   GL1 4517  16.126  16.550  10.068  0.1025  0.1293  0.3629
  366YOPC   GL2 4518  16.427  16.743  10.071  0.0348  0.2303 -0.0487
  366YOPC   C1A 4519  16.060  16.294   9.683  0.5706 -0.0551 -0.0402
  366YOPC   D2A 4520  15.947  15.933   9.691  0.0877  0.2221 -0.2751
  366YOPC   C3A 4521  16.077  15.672   9.395 -0.0357 -0.1533  0.0120
  366YOPC   C4A 4522  16.042  15.377   9.134  0.1659  0.1913  0.0737
  366YOPC   C1B 4523  16.499  16.738   9.649 -0.3942  0.0157 -0.0290
  366YOPC   C2B 4524  16.205  16.592   9.266 -0.1296 -0.1902  0.0574
  366YOPC   D3B 4525  16.063  16.171   9.236  0.1755 -0.2884 -0.0476
  366YOPC   C4B 4526  16.141  15.937   8.984  0.2878  0.0378  0.4642
  367YOPC   NC3 4527  16.081   6.837   9.861 -0.2541  0.0830  0.2480
  367YOPC   PO4 4528  16.053   6.448   9.772 -0.0978  0.0138 -0.2192
  367YOPC   GL1 4529  16.059   6.575   9.306 -0.1321  0.1731  0.2236
  367YOPC   GL2 4530  16.353   6.739   9.361 -0.2929  0.0668  0.2167
  367YOPC   C1A 4531  15.892   6.626   8.951 -0.0491  0.0839  0.0568
  367YOPC   D2A 4532  15.875   6.719   8.489 -0.1276 -0.0494 -0.0789
  367YOPC   C3A 4533  15.966   6.530   8.163  0.0296  0.0655  0.1711
  367YOPC   C4A 4534  15.890   6.525   7.653 -0.0643  0.2941 -0.1518
  367YOPC   C1B 4535  16.420   6.747   8.837 -0.0866 -0.1297  0.5249
  367YOPC   C2B 4536  16.327   6.895   8.426  0.2349 -0.1146  0.1812
  367YOPC   D3B 4537  16.607   6.882   8.113 -0.0560  0.2206 -0.3339
  367YOPC   C4B 4538  16.413   6.784   7.714 -0.3198 -0.1792  0.0041
  368YOPC   NC3 4539   3.009   5.129   9.973  0.1624 -0.1162 -0.0448
  368YOPC   PO4 4540   2.645   5.447   9.908  0.0722 -0.0275 -0.0043
  368YOPC   GL1 4541   2.782   5.135   9.554  0.0903 -0.1684 -0.0506
  368YOPC   GL2 4542   2.970   5.282   9.318 -0.0442  0.0194 -0.1857
  368YOPC   C1A 4543   2.687   4.797   9.401  0.4734  0.3426  0.2135
  368YOPC   D2A 4544   2.559   4.318   9.418 -0.1120 -0.0562 -0.1362
  368YOPC   C3A 4545   2.539   4.189   9.121  0.2805 -0.0703  0.1213
  368YOPC   C4A 4546   2.517   3.909   8.829 -0.0220 -0.1280 -0.1351
  368YOPC   C1B 4547   3.111   5.146   8.925 -0.1668 -0.1938  0.4371
  368YOPC   C2B 4548   3.100   5.356   8.495  0.0321  0.2539 -0.1089
  368YOPC   D3B 4549   3.237   5.699   8.177  0.2098  0.0696  0.2511
  368YOPC   C4B 4550   3.397   5.833   7.776 -0.0726  0.2549 -0.0889
  369YOPC   NC3 4551  10.503  15.295  10.613 -0.0923 -0.1083  0.1255
  369YOPC   PO4 4552  10.360  15.582  10.346  0.1036 -0.0060  0.1059
  369YOPC   GL1 4553  10.642  15.903  10.077 -0.0312  0.3047 -0.0765
  369YOPC   GL2 4554  10.770  16.096  10.232 -0.1482 -0.0756 -0.2726
  369YOPC   C1A 4555  10.792  15.889   9.640 -0.1276  0.1340  0.0321
  369YOPC   D2A 4556  10.562  15.702   9.359  0.3471  0.0697 -0.4269
  369YOPC   C3A 4557  10.579  15.952   8.960 -0.2574 -0.0215 -0.0661
  369YOPC   C4A 4558  10.434  15.879   8.566  0.0133  0.1995  0.3041
  369YOPC   C1B 4559  10.509  16.409   9.943 -0.0063  0.3486  0.3754
  369YOPC   C2B 4560  10.364  16.602   9.689  0.1947 -0.1430 -0.1413
  369YOPC   D3B 4561  10.140  16.599   9.246  0.1107  0.0118 -0.1145
  369YOPC   C4B 4562  10.295  16.335   8.904 -0.0003  0.3088  0.2539
  370YOPC   NC3 4563   6.881   0.926  10.415  0.3149  0.0005  0.3709
  370YOPC   PO4 4564   7.299   0.840  10.469  0.1784 -0.1374 -0.2373
  370YOPC   GL1 4565   7.296   0.913   9.992  0.0153  0.1199  0.1905
  370YOPC   GL2 4566   7.517   1.098   9.944 -0.1472 -0.0084 -0.0703
  370YOPC   C1A 4567   7.099   1.052   9.669 -0.1664  0.1589 -0.1735
  370YOPC   D2A 4568   6.942   0.901   9.187  0.1600  0.0070 -0.0608
  370YOPC   C3A 4569   7.150   0.951   8.801  0.2906 -0.0718  0.2783
  370YOPC   C4A 4570   7.671   1.215   8.667 -0.3616  0.0791 -0.1712
  370YOPC   C1B 4571   7.571   1.079   9.516 -0.0501 -0.4878 -0.0480
  370YOPC   C2B 4572   7.796   1.180   9.197  0.1067 -0.0219 -0.1155
  370YOPC   D3B 4573   8.236   0.933   9.074  0.0043 -0.1335 -0.1420
  370YOPC   C4B 4574   8.609   0.762   8.918  0.1858  0.2781  0.0012
  371YOPC   NC3 4575   3.189   8.893  10.202  0.4017 -0.0666 -0.2214
  371YOPC   PO4 4576   3.617   8.899  10.433 -0.1919 -0.1845 -0.0972
  371YOPC   GL1 4577   3.628   8.982  10.014 -0.1841  0.1437  0.2793
  371YOPC   GL2 4578   3.557   8.746   9.735  0.0254  0.1386  0.1208
  371YOPC   C1A 4579   3.698   9.205   9.730  0.4294  0.0455  0.1351
  371YOPC   D2A 4580   3.862   9.350   9.404 -0.1160 -0.2451 -0.2033
  371YOPC   C3A 4581   4.137   9.514   9.663  0.2755  0.3003 -0.3149
  371YOPC   C4A 4582   4.152   9.964   9.859 -0.1843  0.1410  0.1930
  371YOPC   C1B 4583   3.283   8.655   9.409 -0.1826 -0.1211 -0.2923
  371YOPC   C2B 4584   3.538   8.510   9.074 -0.1176 -0.0679 -0.1633
  371YOPC   D3B 4585   3.314   8.373   8.659  0.1245 -0.0267 -0.0564
  371YOPC   C4B 4586   3.441   8.267   8.256  0.1929  0.0205 -0.0910
  372YOPC   NC3 4587  12.312  17.639  11.352 -0.0690 -0.0861  0.1083
  372YOPC   PO4 4588  12.189  17.658  10.927 -0.1879 -0.1113  0.0119
  372YOPC   GL1 4589  12.124  17.628  10.572 -0.1140 -0.2445 -0.1159
  372YOPC   GL2 4590  12.066  17.366  10.317  0.2416 -0.0326  0.0001
  372YOPC   C1A 4591  12.220  17.767  10.084 -0.0632  0.2237 -0.1059
  372YOPC   D2A 4592  12.175  17.443   9.817  0.0966  0.0077 -0.4841
  372YOPC   C3A 4593  11.901  17.479   9.489 -0.1218  0.0608 -0.0200
  372YOPC   C4A 4594  11.857  17.802   9.237 -0.0234  0.1990  0.1983
  372YOPC   C1B 4595  11.633  17.580  10.167  0.3131  0.0559 -0.0593
  372YOPC   C2B 4596  11.332  17.926  10.033  0.0144  0.0414 -0.2550
  372YOPC   D3B 4597  11.363  18.357  10.280 -0.0148  0.0997 -0.0411
  372YOPC   C4B 4598  11.064  18.555  10.504  0.0942 -0.1191  0.2526
  373YOPC   NC3 4599  12.433   8.850  10.021 -0.0428 -0.0647  0.2841
  373YOPC   PO4 4600  12.639   9.133   9.777  0.0292 -0.2010 -0.0985
  373YOPC   GL1 4601  12.401   9.204   9.449  0.1192  0.3155 -0.1769
  373YOPC   GL2 4602  12.288   9.507   9.356  0.3572 -0.0007  0.2436
  373YOPC   C1A 4603  12.391   9.121   8.928  0.2600 -0.1984  0.1979
  373YOPC   D2A 4604  12.297   9.078   8.587 -0.0205  0.2595  0.4123
  373YOPC   C3A 4605  12.310   9.438   8.338 -0.1843  0.3918 -0.1039
  373YOPC   C4A 4606  12.415   9.641   7.887 -0.3127  0.0725 -0.1404
  373YOPC   C1B 4607  12.274   9.772   8.940 -0.3723  0.2360  0.2041
  373YOPC   C2B 4608  12.347   9.926   8.573  0.2814 -0.1216 -0.0374
  373YOPC   D3B 4609  12.712   9.881   8.207 -0.2065  0.0722 -0.2325
  373YOPC   C4B 4610  12.798  10.073   7.845  0.1261  0.3362  0.0244
  374YOPC   NC3 4611   8.617  14.684  10.814  0.0137  0.0932  0.0163
  374YOPC   PO4 4612   8.875  14.275  10.737  0.1408  0.0372  0.1128
  374YOPC   GL1 4613   8.980  14.458  10.379  0.1105  0.1372 -0.0579
  374YOPC   GL2 4614   8.990  14.203  10.018 -0.0682  0.0235  0.1467
  374YOPC   C1A 4615   9.292  14.575  10.066  0.0607 -0.2837  0.1741
  374YOPC   D2A 4616   9.342  14.769   9.621 -0.0938 -0.2406  0.0223
  374YOPC   C3A 4617   9.414  14.757   9.251  0.1460 -0.2263  0.0558
  374YOPC   C4A 4618   9.723  14.812   8.940  0.1334  0.0567 -0.0254
  374YOPC   C1B 4619   8.963  14.443   9.501  0.0917  0.0980 -0.0388
  374YOPC   C2B 4620   8.851  14.651   9.154 -0.1065  0.1039  0.0719
  374YOPC   D3B 4621   9.187  14.626   8.772  0.3456 -0.1486 -0.3360
  374YOPC   C4B 4622   9.335  14.341   8.504 -0.0745  0.1623 -0.1249
  375YOPC   NC3 4623   7.928  11.461  10.627  0.4261 -0.0846 -0.0092
  375YOPC   PO4 4624   7.860  11.494  10.158  0.2364 -0.1039 -0.2856
  375YOPC   GL1 4625   7.754  11.609   9.811  0.1690  0.0783 -0.1233
  375YOPC   GL2 4626   7.644  11.957   9.728 -0.0596 -0.3434 -0.0092
  375YOPC   C1A 4627   7.629  11.424   9.496  0.2401 -0.1311  0.0134
  375YOPC   D2A 4628   7.669  11.423   9.047 -0.2058 -0.1066 -0.0223
  375YOPC   C3A 4629   8.023  11.121   8.896 -0.1127 -0.1308  0.2268
  375YOPC   C4A 4630   8.092  11.039   8.483 -0.2836 -0.4267 -0.0048
  375YOPC   C1B 4631   7.737  11.841   9.353  0.2131 -0.1721  0.1072
  375YOPC   C2B 4632   7.799  11.942   8.943 -0.2070 -0.0447 -0.3028
  375YOPC   D3B 4633   7.672  11.766   8.701  0.1576 -0.2210  0.0840
  375YOPC   C4B 4634   7.650  11.300   8.561 -0.1578 -0.1063 -0.2323
  376YOPC   NC3 4635   1.659   6.899   9.593 -0.0288  0.2433  0.1356
  376YOPC   PO4 4636   1.869   7.248   9.794 -0.1566  0.3334 -0.1427
  376YOPC   GL1 4637   1.885   7.480   9.378 -0.0716  0.1431 -0.0623
  376YOPC   GL2 4638   2.061   7.762   9.449  0.2161 -0.1764  0.0233
  376YOPC   C1A 4639   1.786   7.676   8.984 -0.1257 -0.2065  0.3004
  376YOPC   D2A 4640   1.685   7.796   8.482 -0.4204  0.0403 -0.0078
  376YOPC   C3A 4641   1.519   8.116   8.186  0.0199  0.2338 -0.0478
  376YOPC   C4A 4642   1.507   8.410   7.876  0.1407  0.0569  0.1479
  376YOPC   C1B 4643   2.311   7.511   9.098 -0.1432 -0.0024 -0.0541
  376YOPC   C2B 4644   2.368   7.232   8.673 -0.1194 -0.0084 -0.1252
  376YOPC   D3B 4645   2.534   7.399   8.304  0.0074  0.1586  0.3687
  376YOPC   C4B 4646   2.809   7.568   7.952  0.1209 -0.3456  0.0120
  377YOPC   NC3 4647  17.202   5.484   9.419  0.0678 -0.3114 -0.0379
  377YOPC   PO4 4648  17.132   5.016   9.515  0.0228 -0.0936 -0.1243
  377YOPC   GL1 4649  16.976   4.806   9.115  0.0444 -0.2979 -0.0309
  377YOPC   GL2 4650  16.696   4.671   9.223 -0.1838  0.0728 -0.0656
  377YOPC   C1A 4651  16.948   4.807   8.639 -0.2441 -0.1763 -0.0069
  377YOPC   D2A 4652  16.891   5.034   8.393  0.2626 -0.1071 -0.0768
  377YOPC   C3A 4653  16.939   5.052   7.984  0.1223 -0.0694  0.0654
  377YOPC   C4A 4654  17.221   5.238   7.702 -0.3406 -0.0629 -0.2415
  377YOPC   C1B 4655  16.489   4.890   8.934 -0.1343 -0.2668  0.0972
  377YOPC   C2B 4656  16.377   4.975   8.569  0.2087 -0.2354 -0.1043
  377YOPC   D3B 4657  16.519   4.747   8.165  0.1088 -0.0896 -0.1439
  377YOPC   C4B 4658  16.569   4.798   7.737 -0.1146  0.0911  0.0321
  378YOPC   NC3 4659   4.626   3.214  10.590  0.4979 -0.0478  0.0551
  378YOPC   PO4 4660   4.511   3.634  10.408  0.0103 -0.0349  0.2011
  378YOPC   GL1 4661   4.577   3.483  10.026  0.3574  0.2033 -0.0289
  378YOPC   GL2 4662   4.271   3.456   9.853 -0.2634  0.0105  0.0423
  378YOPC   C1A 4663   4.610   3.421   9.555  0.2109  0.0830 -0.1805
  378YOPC   D2A 4664   4.698   3.284   9.177 -0.0765 -0.1497  0.2087
  378YOPC   C3A 4665   4.459   3.119   8.880 -0.1484 -0.1478 -0.0691
  378YOPC   C4A 4666   4.499   2.825   8.561 -0.0851  0.0060 -0.0024
  378YOPC   C1B 4667   4.157   3.225   9.532  0.0330  0.2874 -0.0133
  378YOPC   C2B 4668   3.986   3.292   9.121 -0.2494  0.2332  0.0462
  378YOPC   D3B 4669   4.010   3.110   8.721  0.0156 -0.0609  0.0341
  378YOPC   C4B 4670   3.963   3.132   8.274  0.3013 -0.1857 -0.0447
  379YOPC   NC3 4671  17.138   4.512   9.518 -0.1647  0.0146  0.0778
  379YOPC   PO4 4672  17.061   4.041   9.330 -0.0673 -0.1524 -0.2167
  379YOPC   GL1 4673  16.950   4.116   8.889 -0.3030  0.3282 -0.0323
  379YOPC   GL2 4674  16.951   4.367   8.803  0.1134  0.0053  0.3506
  379YOPC   C1A 4675  16.835   3.847   8.503  0.1694 -0.0628 -0.0280
  379YOPC   D2A 4676  16.661   3.641   8.221  0.1807 -0.1500 -0.0599
  379YOPC   C3A 4677  16.821   3.809   7.914 -0.1063 -0.0777  0.2218
  379YOPC   C4A 4678  16.730   4.220   7.829  0.1895 -0.2047  0.1917
  379YOPC   C1B 4679  16.944   4.307   8.405  0.0737 -0.3206 -0.2037
  379YOPC   C2B 4680  17.103   4.321   8.066  0.0839  0.0444 -0.1629
  379YOPC   D3B 4681  17.066   4.630   7.763 -0.0248 -0.4350 -0.0071
  379YOPC   C4B 4682  17.003   4.980   7.315  0.1796  0.2859 -0.1648
  380YOPC   NC3 4683  11.284   8.963   9.737  0.1066 -0.5313  0.0802
  380YOPC   PO4 4684  10.922   8.894   9.773  0.3769 -0.1286  0.0749
  380YOPC   GL1 4685  10.751   8.740   9.457  0.3150 -0.0436 -0.0990
  380YOPC   GL2 4686  10.816   8.421   9.381  0.1417 -0.2068 -0.0149
  380YOPC   C1A 4687  10.634   8.694   8.994  0.0182  0.3536 -0.1728
  380YOPC   D2A 4688  10.594   8.404   8.589 -0.3193  0.2367  0.0781
  380YOPC   C3A 4689  10.513   8.653   8.289 -0.0802 -0.0891  0.1652
  380YOPC   C4A 4690  10.236   8.597   7.909  0.3356  0.0851 -0.0959
  380YOPC   C1B 4691  11.059   8.419   8.971 -0.1815 -0.0251  0.0312
  380YOPC   C2B 4692  11.088   8.426   8.587 -0.0754  0.1056  0.0700
  380YOPC   D3B 4693  10.890   8.194   8.215 -0.0055  0.2633  0.0893
  380YOPC   C4B 4694  10.526   8.124   8.232 -0.0210  0.0573  0.0440
  381YOPC   NC3 4695  14.885   4.744  10.157 -0.0234 -0.0378  0.3024
  381YOPC   PO4 4696  14.962   4.480   9.931  0.2931 -0.0638  0.2842
  381YOPC   GL1 4697  15.062   4.466   9.515 -0.1734 -0.1351  0.0552
  381YOPC   GL2 4698  14.752   4.409   9.349  0.0887  0.2536 -0.3046
  381YOPC   C1A 4699  15.123   4.591   9.138  0.4190 -0.0955 -0.2531
  381YOPC   D2A 4700  14.959   4.350   8.715  0.1269 -0.0650 -0.0133
  381YOPC   C3A 4701  14.656   3.965   8.607  0.2881 -0.2436  0.2084
  381YOPC   C4A 4702  14.356   3.833   8.298 -0.2224  0.0548  0.2847
  381YOPC   C1B 4703  14.308   4.573   9.275  0.0234  0.2513  0.0048
  381YOPC   C2B 4704  14.014   4.416   9.061 -0.0444  0.1896  0.0435
  381YOPC   D3B 4705  13.657   4.323   8.923 -0.2522 -0.2054  0.3365
  381YOPC   C4B 4706  13.566   4.230   8.446 -0.4330 -0.1972  0.2808
  382YOPC   NC3 4707  10.480   0.551  10.871  0.0873  0.0486 -0.0456
  382YOPC   PO4 4708  10.073   0.419  11.160  0.2918 -0.1849  0.0225
  382YOPC   GL1 4709   9.974   0.683  10.772  0.1033  0.1319 -0.0940
  382YOPC   GL2 4710   9.490   0.745  10.770 -0.1855  0.0602 -0.0664
  382YOPC   C1A 4711  10.005   0.809  10.302 -0.0120 -0.1634 -0.0867
  382YOPC   D2A 4712   9.862   1.114  10.163 -0.0080  0.1103 -0.1357
  382YOPC   C3A 4713   9.803   1.197   9.736  0.1623 -0.0932 -0.2248
  382YOPC   C4A 4714   9.520   1.275   9.496 -0.0230 -0.0166 -0.2385
  382YOPC   C1B 4715   9.565   0.402  10.405 -0.2240  0.2649  0.0874
  382YOPC   C2B 4716   9.911   0.305  10.081 -0.2725 -0.0608 -0.3263
  382YOPC   D3B 4717   9.837   0.287   9.725  0.0732 -0.2861  0.1432
  382YOPC   C4B 4718   9.863   0.295   9.302  0.1537 -0.0114 -0.0361
  383YOPC   NC3 4719   0.671   5.392  10.336  0.1284  0.0964  0.1302
  383YOPC   PO4 4720   0.918   5.225   9.909  0.1344  0.0737 -0.1738
  383YOPC   GL1 4721   1.074   5.138   9.485  0.0002 -0.3579  0.2487
  383YOPC   GL2 4722   1.387   4.919   9.534 -0.1774 -0.3342 -0.0878
  383YOPC   C1A 4723   1.024   4.854   9.145  0.1975 -0.1428  0.2291
  383YOPC   D2A 4724   1.102   4.586   8.851  0.0554 -0.1467  0.0328
  383YOPC   C3A 4725   1.132   5.010   8.633  0.0344  0.1481 -0.1233
  383YOPC   C4A 4726   1.228   5.187   8.220  0.0810 -0.3675  0.0929
  383YOPC   C1B 4727   1.516   4.577   9.224  0.1164 -0.0148  0.0088
  383YOPC   C2B 4728   1.671   4.463   8.733  0.3316 -0.0779 -0.0068
  383YOPC   D3B 4729   1.629   4.270   8.279  0.0082  0.0341 -0.0133
  383YOPC   C4B 4730   1.367   4.006   7.995 -0.0459  0.1449 -0.1055
  384YOPC   NC3 4731   9.121  11.370  10.541  0.0320  0.3051  0.1249
  384YOPC   PO4 4732   9.473  11.458  10.254 -0.2935 -0.2369  0.2972
  384YOPC   GL1 4733   9.769  11.600   9.862 -0.0718 -0.0181 -0.2193
  384YOPC   GL2 4734  10.071  11.789   9.938 -0.0708  0.0105  0.2380
  384YOPC   C1A 4735   9.636  11.621   9.390  0.4013 -0.0889  0.0671
  384YOPC   D2A 4736   9.639  11.627   8.916 -0.0778 -0.1118  0.1257
  384YOPC   C3A 4737   9.288  11.546   8.751 -0.3028  0.1808 -0.1286
  384YOPC   C4A 4738   9.128  11.452   8.332  0.1123 -0.0650  0.0365
  384YOPC   C1B 4739  10.357  11.730   9.574 -0.0558 -0.1807 -0.0738
  384YOPC   C2B 4740  10.088  11.737   9.177 -0.0496 -0.0928 -0.3173
  384YOPC   D3B 4741   9.996  11.968   8.760 -0.1771  0.2156  0.0708
  384YOPC   C4B 4742  10.231  12.295   8.507  0.1084 -0.0195 -0.1538
  385YOPC   NC3 4743  12.729   1.466  10.424  0.3907 -0.0185  0.1264
  385YOPC   PO4 4744  12.306   1.677  10.603  0.1635  0.0496  0.4158
  385YOPC   GL1 4745  12.354   1.781  10.109  0.0308 -0.0833 -0.0556
  385YOPC   GL2 4746  12.107   2.045   9.920 -0.0307  0.3250 -0.1773
  385YOPC   C1A 4747  12.504   1.821   9.681  0.0913  0.0503  0.0947
  385YOPC   D2A 4748  12.665   1.780   9.267 -0.0342 -0.0492 -0.2107
  385YOPC   C3A 4749  12.376   1.727   9.059  0.1561 -0.0088  0.0539
  385YOPC   C4A 4750  12.257   1.641   8.551  0.0279  0.1142  0.0037
  385YOPC   C1B 4751  11.964   1.991   9.515 -0.0752 -0.1006  0.1410
  385YOPC   C2B 4752  11.870   1.754   9.117  0.0753 -0.0578 -0.3093
  385YOPC   D3B 4753  11.644   1.747   8.730  0.0657  0.2374 -0.2929
  385YOPC   C4B 4754  11.772   1.755   8.318  0.0894 -0.1993 -0.0978
  386YOPC   NC3 4755  17.116  17.620  11.119  0.4652  0.1612  0.3305
  386YOPC   PO4 4756  17.350  17.513  10.702  0.0598  0.1381  0.3201
  386YOPC   GL1 4757  17.171  17.204  10.365 -0.4053 -0.2369  0.0106
  386YOPC   GL2 4758  16.916  16.995  10.380  0.0250 -0.0612 -0.2809
  386YOPC   C1A 4759  17.407  16.987  10.088 -0.1118  0.1088  0.0735
  386YOPC   D2A 4760  17.545  16.742   9.698  0.1444  0.0155  0.0774
  386YOPC   C3A 4761  17.994  16.601   9.622  0.1310  0.3658  0.1807
  386YOPC   C4A 4762  18.153  16.637   9.265  0.1425  0.3565  0.2712
  386YOPC   C1B 4763  16.945  16.802   9.918  0.0136 -0.0534  0.1653
  386YOPC   C2B 4764  17.047  16.644   9.526 -0.1068 -0.0438 -0.0480
  386YOPC   D3B 4765  16.994  16.165   9.387  0.0873  0.0805 -0.4077
  386YOPC   C4B 4766  16.999  15.917   9.002  0.1279 -0.2126  0.4426
  387YOPC   NC3 4767   7.638  10.309  10.263  0.1796  0.0310  0.0933
  387YOPC   PO4 4768   7.821   9.981  10.121  0.2256 -0.0281 -0.2237
  387YOPC   GL1 4769   7.835   9.835   9.710 -0.2827 -0.3066 -0.1167
  387YOPC   GL2 4770   7.570   9.729   9.727  0.2303 -0.0728  0.1980
  387YOPC   C1A 4771   7.953   9.407   9.627 -0.1011  0.1676 -0.5422
  387YOPC   D2A 4772   8.114   9.152   9.343 -0.0782 -0.0661  0.0786
  387YOPC   C3A 4773   8.362   9.317   9.080 -0.1288  0.0702 -0.1715
  387YOPC   C4A 4774   8.346   9.256   8.628  0.1147  0.2809  0.0264
  387YOPC   C1B 4775   7.653   9.578   9.327 -0.0727  0.1602  0.0949
  387YOPC   C2B 4776   7.517   9.510   8.979  0.1563  0.1370  0.3311
  387YOPC   D3B 4777   7.468   9.654   8.605  0.0944  0.0575  0.1517
  387YOPC   C4B 4778   7.474  10.037   8.393 -0.0393 -0.5219 -0.0532
  388YOPC   NC3 4779   0.515  16.527  10.706  0.0501 -0.2148  0.1436
  388YOPC   PO4 4780   0.919  16.633  10.517 -0.0724  0.0292  0.4750
  388YOPC   GL1 4781   1.031  16.388  10.122  0.0760 -0.1714 -0.0361
  388YOPC   GL2 4782   1.296  16.252  10.053 -0.0014  0.0573 -0.2792
  388YOPC   C1A 4783   1.027  16.319   9.665  0.2013  0.1186 -0.4471
  388YOPC   D2A 4784   1.187  16.215   9.264  0.0591 -0.2970 -0.1347
  388YOPC   C3A 4785   1.150  15.873   8.977  0.0168 -0.1405  0.2761
  388YOPC   C4A 4786   0.902  15.633   8.723 -0.0385  0.1606  0.1396
  388YOPC   C1B 4787   1.489  16.082   9.706  0.4369 -0.1468  0.0439
  388YOPC   C2B 4788   1.652  16.201   9.338 -0.1653 -0.1222 -0.2665
  388YOPC   D3B 4789   1.571  16.183   8.973  0.0623 -0.0185  0.0081
  388YOPC   C4B 4790   1.332  16.154   8.547 -0.0635  0.0656  0.2784
  389YOPC   NC3 4791   1.966   4.045  10.291  0.1579 -0.0103 -0.0975
  389YOPC   PO4 4792   1.517   3.947  10.214 -0.2814 -0.4562 -0.0083
  389YOPC   GL1 4793   1.694   3.961   9.831 -0.3150  0.0393 -0.0449
  389YOPC   GL2 4794   1.546   3.720   9.801 -0.1780  0.0952 -0.1796
  389YOPC   C1A 4795   1.919   3.755   9.447 -0.2866 -0.0045 -0.1585
  389YOPC   D2A 4796   2.089   3.591   9.168 -0.3550  0.2927 -0.0623
  389YOPC   C3A 4797   2.111   3.636   8.706  0.0114  0.0286 -0.0085
  389YOPC   C4A 4798   2.336   3.735   8.408  0.0143 -0.0211 -0.0339
  389YOPC   C1B 4799   1.458   3.932   9.365  0.0432  0.1955 -0.1364
  389YOPC   C2B 4800   1.622   3.710   9.016  0.4047 -0.0098 -0.2164
  389YOPC   D3B 4801   1.646   3.953   8.697  0.1692  0.1462  0.1774
  389YOPC   C4B 4802   1.652   3.785   8.326  0.0211  0.2259  0.0806
  390YOPC   NC3 4803   9.881   6.769  10.371 -0.1911 -0.1806  0.0395
  390YOPC   PO4 4804   9.471   6.650  10.396 -0.1950  0.2342  0.1831
  390YOPC   GL1 4805   9.561   7.055  10.154 -0.0532  0.1787 -0.1752
  390YOPC   GL2 4806   9.816   7.196  10.008 -0.0126 -0.1887  0.0384
  390YOPC   C1A 4807   9.350   7.049   9.737 -0.0098  0.2120 -0.1843
  390YOPC   D2A 4808   9.308   7.259   9.306  0.0645 -0.2211  0.1828
  390YOPC   C3A 4809   9.329   7.258   8.830  0.0643 -0.1276 -0.0522
  390YOPC   C4A 4810   9.149   7.235   8.412  0.1111 -0.3079  0.1952
  390YOPC   C1B 4811   9.710   7.339   9.583 -0.0223  0.1410 -0.0419
  390YOPC   C2B 4812   9.755   7.480   9.089  0.4276  0.0907 -0.2033
  390YOPC   D3B 4813   9.821   7.182   8.763 -0.1791 -0.1478 -0.1978
  390YOPC   C4B 4814  10.032   6.794   8.515  0.1429  0.1576 -0.0314
  391YOPC   NC3 4815  18.203   5.901   9.974  0.0159  0.2541  0.1280
  391YOPC   PO4 4816  17.996   6.120   9.731  0.0769 -0.0396  0.0640
  391YOPC   GL1 4817  17.957   6.054   9.310 -0.0691 -0.0160 -0.3125
  391YOPC   GL2 4818  18.274   6.081   9.082 -0.1004 -0.1610  0.1510
  391YOPC   C1A 4819  17.671   6.170   8.893  0.2021 -0.2359  0.0932
  391YOPC   D2A 4820  17.301   6.226   8.723 -0.0968 -0.0179  0.1392
  391YOPC   C3A 4821  17.315   6.123   8.296 -0.0248 -0.2414  0.1126
  391YOPC   C4A 4822  17.528   6.260   7.991 -0.0467  0.1235 -0.2484
  391YOPC   C1B 4823  18.088   6.196   8.686  0.0232  0.1481 -0.1550
  391YOPC   C2B 4824  17.889   6.062   8.416  0.1518  0.2231  0.0167
  391YOPC   D3B 4825  18.036   6.062   8.013 -0.0586  0.2399  0.1783
  391YOPC   C4B 4826  17.927   6.190   7.667 -0.0790 -0.1887 -0.1471
  392YOPC   NC3 4827  12.004  14.362  10.845 -0.3994  0.0369 -0.1157
  392YOPC   PO4 4828  11.574  14.472  10.555 -0.0442 -0.1641 -0.2017
  392YOPC   GL1 4829  11.722  14.391  10.149  0.0112  0.0431  0.0316
  392YOPC   GL2 4830  11.997  14.349  10.125  0.1170 -0.3344 -0.2645
  392YOPC   C1A 4831  11.537  14.276   9.776  0.0491 -0.1216 -0.0967
  392YOPC   D2A 4832  11.291  14.318   9.314  0.2401 -0.0729 -0.2174
  392YOPC   C3A 4833  11.401  14.404   8.917  0.0211  0.0293  0.2567
  392YOPC   C4A 4834  11.386  14.661   8.600  0.0138  0.1105 -0.0835
  392YOPC   C1B 4835  12.043  14.319   9.741 -0.0972 -0.0957  0.0296
  392YOPC   C2B 4836  11.781  14.174   9.350  0.1296 -0.1211 -0.2212
  392YOPC   D3B 4837  12.038  13.996   8.952 -0.1998 -0.1278 -0.0745
  392YOPC   C4B 4838  12.238  14.022   8.616  0.2564  0.1157 -0.0674
  393YOPC   NC3 4839   0.982   3.591   9.939  0.1210 -0.2089 -0.0288
  393YOPC   PO4 4840   0.720   3.947  10.058 -0.1393 -0.1225 -0.1357
  393YOPC   GL1 4841   0.668   3.772   9.610  0.2025 -0.2308 -0.0638
  393YOPC   GL2 4842   0.789   3.923   9.326  0.4552  0.2536  0.3340
  393YOPC   C1A 4843   0.640   3.485   9.301 -0.1256  0.1789 -0.0115
  393YOPC   D2A 4844   0.752   3.238   8.956  0.0220  0.0752  0.0419
  393YOPC   C3A 4845   0.997   3.124   8.581  0.1045 -0.1083  0.1626
  393YOPC   C4A 4846   0.956   3.081   8.212 -0.0148  0.0717 -0.3537
  393YOPC   C1B 4847   0.667   4.265   9.062  0.1598 -0.0805  0.3593
  393YOPC   C2B 4848   0.696   4.257   8.638  0.0819 -0.1554 -0.3212
  393YOPC   D3B 4849   0.415   3.921   8.422  0.1149 -0.0901  0.1219
  393YOPC   C4B 4850   0.522   3.689   8.029 -0.1049 -0.0339  0.0067
  394YOPC   NC3 4851   2.390   5.948  10.008  0.0083 -0.0212 -0.0429
  394YOPC   PO4 4852   1.971   6.068   9.815  0.1072  0.2076 -0.2010
  394YOPC   GL1 4853   1.853   6.178   9.398 -0.0642  0.3996  0.1586
  394YOPC   GL2 4854   1.557   6.099   9.304  0.2744 -0.0333  0.2670
  394YOPC   C1A 4855   1.861   6.344   8.906 -0.1066  0.0756 -0.0957
  394YOPC   D2A 4856   1.861   6.568   8.519  0.3125 -0.3888  0.1545
  394YOPC   C3A 4857   2.203   6.393   8.238 -0.1468  0.0055 -0.2589
  394YOPC   C4A 4858   2.202   5.995   8.001  0.2784 -0.4067  0.1754
  394YOPC   C1B 4859   1.838   5.810   8.943  0.3345 -0.1577 -0.4421
  394YOPC   C2B 4860   2.151   5.621   8.957  0.0699  0.1012  0.0918
  394YOPC   D3B 4861   1.934   5.332   8.665  0.2027 -0.0441  0.1471
  394YOPC   C4B 4862   2.079   5.114   8.291 -0.1905  0.0228 -0.2513
  395YOPC   NC3 4863  17.042  14.349  10.624 -0.1652 -0.2915 -0.0163
  395YOPC   PO4 4864  16.708  14.113  10.831  0.1125  0.0243 -0.0632
  395YOPC   GL1 4865  16.747  14.091  10.342 -0.0844 -0.0075 -0.3089
  395YOPC   GL2 4866  16.510  14.178  10.167 -0.0271  0.3245 -0.2253
  395YOPC   C1A 4867  16.829  13.715  10.132  0.0278 -0.0431 -0.1262
  395YOPC   D2A 4868  16.706  13.557   9.682 -0.3885  0.1456 -0.0408
  395YOPC   C3A 4869  16.885  13.841   9.336  0.0509  0.2327 -0.0532
  395YOPC   C4A 4870  17.024  13.688   8.918 -0.2782  0.0403  0.1493
  395YOPC   C1B 4871  16.629  14.130   9.720 -0.3058  0.0565 -0.1191
  395YOPC   C2B 4872  16.892  14.323   9.372  0.0572 -0.0401 -0.0755
  395YOPC   D3B 4873  17.048  14.196   9.052 -0.1619 -0.0950 -0.0460
  395YOPC   C4B 4874  17.404  14.310   8.815  0.2250 -0.2631 -0.1975
  396YOPC   NC3 4875   8.173  12.264  10.243 -0.0160 -0.2214 -0.2128
  396YOPC   PO4 4876   8.057  11.971  10.067  0.1231 -0.0494  0.1952
  396YOPC   GL1 4877   8.251  12.049   9.670  0.0036  0.0350  0.0311
  396YOPC   GL2 4878   8.598  11.873   9.820 -0.0586 -0.0489  0.2208
  396YOPC   C1A 4879   8.178  12.086   9.198  0.0471  0.2831  0.0358
  396YOPC   D2A 4880   8.205  12.158   8.720 -0.0605  0.0636  0.0104
  396YOPC   C3A 4881   8.008  11.923   8.423  0.0050  0.0128  0.0191
  396YOPC   C4A 4882   7.621  11.874   8.172  0.2049  0.0817  0.1710
  396YOPC   C1B 4883   8.672  11.989   9.405 -0.0847 -0.1765 -0.3501
  396YOPC   C2B 4884   8.606  12.065   8.979 -0.1115  0.1008 -0.1338
  396YOPC   D3B 4885   8.910  12.396   8.768 -0.1155 -0.4240  0.1785
  396YOPC   C4B 4886   8.986  12.694   8.452 -0.1519 -0.1020 -0.2637
  397YOPC   NC3 4887  15.917  11.057  10.440  0.2386  0.1447 -0.1109
  397YOPC   PO4 4888  16.023  10.871  10.097 -0.2662 -0.2084 -0.0701
  397YOPC   GL1 4889  16.370  10.710   9.854  0.1127 -0.1199 -0.1235
  397YOPC   GL2 4890  16.211  10.745   9.518 -0.0273 -0.0992 -0.1318
  397YOPC   C1A 4891  16.512  10.328   9.584  0.0208  0.0639 -0.0226
  397YOPC   D2A 4892  16.687  10.150   9.179 -0.1449 -0.2742  0.0350
  397YOPC   C3A 4893  16.697  10.104   8.818 -0.1942  0.0668 -0.1710
  397YOPC   C4A 4894  16.674  10.286   8.459  0.1107 -0.2717 -0.1015
  397YOPC   C1B 4895  16.374  10.572   9.160  0.1755 -0.1877 -0.1014
  397YOPC   C2B 4896  16.815  10.612   9.005  0.0179 -0.1744 -0.1543
  397YOPC   D3B 4897  16.817  10.837   8.611  0.3509 -0.0301  0.1822
  397YOPC   C4B 4898  16.722  10.788   8.163  0.0601  0.1067  0.3656
  398YOPC   NC3 4899  16.405  15.062  10.901  0.1377  0.2353 -0.2247
  398YOPC   PO4 4900  16.778  15.347  10.915 -0.1833  0.0098  0.2208
  398YOPC   GL1 4901  16.796  15.258  10.497  0.0650 -0.4062 -0.0022
  398YOPC   GL2 4902  16.458  15.295  10.465 -0.3893  0.0489  0.0350
  398YOPC   C1A 4903  16.742  15.209   9.997 -0.1852 -0.0676 -0.3901
  398YOPC   D2A 4904  16.915  14.994   9.626  0.1541 -0.1968  0.1335
  398YOPC   C3A 4905  16.731  14.802   9.391 -0.1602 -0.4293  0.0924
  398YOPC   C4A 4906  16.918  14.683   9.032  0.1819  0.0838 -0.0813
  398YOPC   C1B 4907  16.136  15.144  10.042 -0.0996  0.2464 -0.1393
  398YOPC   C2B 4908  16.213  15.068   9.633 -0.1872  0.0634  0.0595
  398YOPC   D3B 4909  16.232  14.930   9.305  0.1403 -0.2289 -0.1156
  398YOPC   C4B 4910  16.551  14.955   8.964  0.2251 -0.0129  0.3824
  399YOPC   NC3 4911   0.571   4.992   9.599 -0.1988 -0.2225  0.0491
  399YOPC   PO4 4912   0.237   4.742   9.708 -0.0465  0.0013 -0.0116
  399YOPC   GL1 4913   0.553   4.511   9.428  0.3292  0.0075 -0.2000
  399YOPC   GL2 4914   0.695   4.338   9.636  0.0606  0.0633  0.1223
  399YOPC   C1A 4915   0.572   4.763   8.976  0.4894 -0.2936  0.1693
  399YOPC   D2A 4916   0.727   4.736   8.590 -0.0939  0.2326  0.1760
  399YOPC   C3A 4917   0.585   4.495   8.247  0.2723 -0.1105 -0.3372
  399YOPC   C4A 4918   0.553   4.600   7.798 -0.2735  0.1843 -0.1867
  399YOPC   C1B 4919   1.068   4.314   9.349  0.1323 -0.2447  0.0019
  399YOPC   C2B 4920   1.152   4.074   9.014 -0.0444 -0.1081 -0.0189
  399YOPC   D3B 4921   1.139   4.053   8.501 -0.2703  0.3494  0.1642
  399YOPC   C4B 4922   1.174   4.434   8.300  0.2769 -0.3426  0.0511
  400YOPC   NC3 4923   8.813  16.833  10.753  0.1668  0.3071  0.0536
  400YOPC   PO4 4924   8.863  17.129  10.371 -0.0042 -0.0673 -0.0346
  400YOPC   GL1 4925   8.983  17.229  10.050 -0.4398 -0.2271 -0.0683
  400YOPC   GL2 4926   8.667  17.246   9.842 -0.0574 -0.0908 -0.1767
  400YOPC   C1A 4927   9.223  17.303   9.824  0.2303 -0.0328 -0.0529
  400YOPC   D2A 4928   9.276  17.660   9.390  0.3770  0.2454  0.1911
  400YOPC   C3A 4929   9.618  17.677   9.116 -0.0410  0.0242  0.2748
  400YOPC   C4A 4930   9.830  18.083   8.874  0.0773 -0.1903  0.2172
  400YOPC   C1B 4931   8.858  17.443   9.519 -0.1296 -0.0517 -0.0332
  400YOPC   C2B 4932   8.908  17.644   9.061 -0.0128  0.1161  0.2509
  400YOPC   D3B 4933   8.750  17.477   8.596  0.0062 -0.1200  0.2323
  400YOPC   C4B 4934   8.423  17.689   8.388 -0.1885  0.0361 -0.0711
  401YOPC   NC3 4935  15.348  12.550  10.967 -0.0238  0.2278 -0.2059
  401YOPC   PO4 4936  15.476  12.110  10.783 -0.2995 -0.0192 -0.2417
  401YOPC   GL1 4937  15.622  12.115  10.305 -0.3106 -0.2351  0.0135
  401YOPC   GL2 4938  15.448  12.135  10.092 -0.0774  0.2887  0.3182
  401YOPC   C1A 4939  15.908  11.901  10.014 -0.2744  0.1229 -0.1690
  401YOPC   D2A 4940  16.261  11.685   9.782  0.0518 -0.0034 -0.2531
  401YOPC   C3A 4941  16.049  11.343   9.555  0.1011  0.2251  0.0211
  401YOPC   C4A 4942  15.691  11.341   9.319  0.2075  0.1159  0.1982
  401YOPC   C1B 4943  15.623  12.162   9.658  0.1059 -0.0233  0.0638
  401YOPC   C2B 4944  15.908  11.888   9.466  0.1601 -0.0588 -0.1444
  401YOPC   D3B 4945  16.012  11.918   9.022 -0.2255  0.0750 -0.0724
  401YOPC   C4B 4946  16.126  12.089   8.555 -0.0643 -0.0639  0.0784
  402YOPC   NC3 4947   4.198  11.938  10.458 -0.2818  0.3611 -0.0020
  402YOPC   PO4 4948   4.584  11.782  10.545  0.0003 -0.1452 -0.4552
  402YOPC   GL1 4949   4.551  12.013  10.060  0.2314 -0.0342  0.1451
  402YOPC   GL2 4950   4.677  12.304   9.918 -0.1123 -0.1007 -0.4105
  402YOPC   C1A 4951   4.617  11.937   9.533 -0.0034 -0.2946 -0.0669
  402YOPC   D2A 4952   4.684  11.953   9.057 -0.1574 -0.4192  0.0423
  402YOPC   C3A 4953   5.070  11.974   8.615  0.0583  0.0082 -0.1772
  402YOPC   C4A 4954   5.277  12.278   8.362 -0.0016  0.1387  0.1307
  402YOPC   C1B 4955   4.343  12.314   9.725 -0.0395  0.2111 -0.0154
  402YOPC   C2B 4956   3.990  12.386   9.526 -0.1153  0.4828  0.2527
  402YOPC   D3B 4957   3.943  12.612   9.167  0.2573  0.1211 -0.0714
  402YOPC   C4B 4958   4.129  12.675   8.792 -0.2386 -0.0058 -0.2060
  403YOPC   NC3 4959   8.140  14.084  10.323 -0.3743  0.0660 -0.0713
  403YOPC   PO4 4960   7.862  13.567  10.234  0.1071 -0.1823  0.0515
  403YOPC   GL1 4961   7.609  13.577   9.904  0.0975 -0.1486  0.3161
  403YOPC   GL2 4962   7.722  13.328   9.712 -0.0391  0.0574 -0.1003
  403YOPC   C1A 4963   7.370  13.696   9.520 -0.2496 -0.3640  0.3345
  403YOPC   D2A 4964   7.121  13.865   9.249 -0.0737 -0.0321 -0.1551
  403YOPC   C3A 4965   7.315  13.993   8.826  0.1185 -0.0038  0.1184
  403YOPC   C4A 4966   7.281  14.143   8.400 -0.0127 -0.0911  0.1350
  403YOPC   C1B 4967   7.742  13.347   9.275 -0.1104 -0.4152  0.2010
  403YOPC   C2B 4968   7.839  13.311   8.875 -0.1706 -0.0980  0.1175
  403YOPC   D3B 4969   7.898  13.472   8.565 -0.1208 -0.1497 -0.0125
  403YOPC   C4B 4970   8.259  13.604   8.330 -0.2087 -0.0309 -0.1010
  404YOPC   NC3 4971  14.902   1.145  10.445  0.3929 -0.3428 -0.4868
  404YOPC   PO4 4972  15.087   0.936  10.020 -0.0007 -0.0724 -0.0121
  404YOPC   GL1 4973  15.085   0.648   9.613 -0.0586  0.2249 -0.0441
  404YOPC   GL2 4974  14.995   0.349   9.598 -0.0524  0.1681  0.1695
  404YOPC   C1A 4975  15.143   0.587   9.191  0.0515  0.1130  0.0093
  404YOPC   D2A 4976  15.049   0.530   8.844  0.2148 -0.0943  0.1681
  404YOPC   C3A 4977  14.978   0.649   8.385 -0.0713 -0.1967  0.4100
  404YOPC   C4A 4978  14.950   0.778   8.084 -0.1775  0.1313  0.1212
  404YOPC   C1B 4979  14.838   0.172   9.285  0.2026 -0.0912  0.3168
  404YOPC   C2B 4980  14.847   0.092   8.831  0.0247  0.0050 -0.3169
  404YOPC   D3B 4981  14.617   0.259   8.657 -0.1615 -0.0136  0.0500
  404YOPC   C4B 4982  14.338   0.069   8.478 -0.0654 -0.1831 -0.0053
  405YOPC   NC3 4983   9.007  15.741  10.416  0.2525  0.0188  0.1089
  405YOPC   PO4 4984   9.440  15.793  10.286  0.0516 -0.1356 -0.0894
  405YOPC   GL1 4985   9.751  15.750   9.908  0.0645 -0.0702 -0.0638
  405YOPC   GL2 4986  10.103  15.519   9.943  0.3581  0.0399 -0.1834
  405YOPC   C1A 4987   9.777  15.628   9.498 -0.1828  0.2101  0.0461
  405YOPC   D2A 4988  10.013  15.500   9.253 -0.0750  0.0594 -0.1373
  405YOPC   C3A 4989  10.151  15.458   8.865 -0.1062 -0.0416  0.0412
  405YOPC   C4A 4990  10.016  15.568   8.457 -0.0628 -0.0405 -0.2430
  405YOPC   C1B 4991  10.337  15.340   9.673 -0.0318 -0.2780 -0.2098
  405YOPC   C2B 4992  10.692  15.122   9.291  0.0008  0.0147  0.1504
  405YOPC   D3B 4993  10.598  14.745   9.074  0.1871 -0.0410  0.0734
  405YOPC   C4B 4994  10.830  14.600   8.751 -0.2088 -0.1156  0.1445
  406YOPC   NC3 4995  12.880   0.469  11.542  0.0702  0.2007  0.1301
  406YOPC   PO4 4996  12.655   0.174  11.269 -0.0402 -0.0248  0.0538
  406YOPC   GL1 4997  12.455   0.148  10.788 -0.1126  0.1911 -0.1912
  406YOPC   GL2 4998  12.428   0.452  10.493  0.2261  0.3026  0.0872
  406YOPC   C1A 4999  12.295  -0.107  10.433 -0.0414 -0.0703 -0.4359
  406YOPC   D2A 5000  11.841  -0.206  10.271  0.0997  0.0001  0.1573
  406YOPC   C3A 5001  11.855  -0.270   9.870  0.1782 -0.2258 -0.2960
  406YOPC   C4A 5002  11.514  -0.188   9.580  0.0211  0.1076 -0.1578
  406YOPC   C1B 5003  12.413   0.509  10.025  0.1174  0.0030 -0.2303
  406YOPC   C2B 5004  12.218   0.410   9.582  0.0338  0.2096 -0.1602
  406YOPC   D3B 5005  12.324   0.426   9.100  0.1970  0.0216 -0.1519
  406YOPC   C4B 5006  12.639   0.336   8.884 -0.0448 -0.1494  0.0141
  407YOPC   NC3 5007  14.338  11.621  10.404  0.1958 -0.0320  0.4408
  407YOPC   PO4 5008  14.005  11.351  10.324  0.2040 -0.1514  0.0997
  407YOPC   GL1 5009  13.748  11.394   9.951  0.0655  0.2516  0.2173
  407YOPC   GL2 5010  13.538  11.326   9.940  0.0956 -0.3182 -0.0105
  407YOPC   C1A 5011  13.787  11.763   9.707  0.0257 -0.2473  0.0692
  407YOPC   D2A 5012  13.962  12.139   9.492  0.1254 -0.1594  0.2463
  407YOPC   C3A 5013  13.932  12.053   9.089  0.1853 -0.0310 -0.0440
  407YOPC   C4A 5014  14.105  12.298   8.865  0.0671 -0.0041 -0.5014
  407YOPC   C1B 5015  13.590  11.326   9.483 -0.1887  0.1761 -0.1514
  407YOPC   C2B 5016  13.588  11.556   9.177 -0.1530 -0.3564  0.2457
  407YOPC   D3B 5017  13.376  11.566   8.844 -0.0237  0.0270  0.1646
  407YOPC   C4B 5018  13.059  11.835   8.592  0.0083 -0.0089  0.0045
  408YOPC   NC3 5019   9.948  15.798  10.547 -0.2721  0.0684 -0.3953
  408YOPC   PO4 5020   9.981  16.308  10.443 -0.1557  0.3377 -0.4023
  408YOPC   GL1 5021  10.011  16.551  10.064 -0.0838  0.2364 -0.3309
  408YOPC   GL2 5022  10.059  16.920   9.914 -0.0503  0.2430  0.1770
  408YOPC   C1A 5023   9.816  16.423   9.655 -0.4440 -0.3691 -0.3811
  408YOPC   D2A 5024   9.603  16.442   9.264 -0.0182  0.2897 -0.2234
  408YOPC   C3A 5025   9.791  16.475   8.847  0.1105  0.2308  0.4807
  408YOPC   C4A 5026   9.826  16.771   8.513  0.0225  0.0456  0.0135
  408YOPC   C1B 5027  10.239  17.149   9.619 -0.1783 -0.4270 -0.2847
  408YOPC   C2B 5028  10.415  17.089   9.221 -0.2222 -0.0587 -0.0826
  408YOPC   D3B 5029  10.581  17.469   8.956 -0.1374  0.1758  0.0156
  408YOPC   C4B 5030  10.443  17.849   8.980 -0.1029 -0.0552  0.0031
  409YOPC   NC3 5031  13.917  10.024  10.096 -0.0969  0.0968  0.0591
  409YOPC   PO4 5032  14.246  10.005   9.797 -0.3659  0.4397 -0.1613
  409YOPC   GL1 5033  14.136  10.095   9.347 -0.0113 -0.0005 -0.0639
  409YOPC   GL2 5034  14.424  10.071   9.117 -0.2686  0.1043  0.3297
  409YOPC   C1A 5035  13.963  10.140   8.933  0.0257  0.0629 -0.2233
  409YOPC   D2A 5036  13.899  10.299   8.546  0.0230  0.3755 -0.0896
  409YOPC   C3A 5037  14.078  10.041   8.191 -0.1651  0.3181 -0.1832
  409YOPC   C4A 5038  14.430   9.891   8.064 -0.1548 -0.2196 -0.3083
  409YOPC   C1B 5039  14.377  10.079   8.614  0.3177 -0.4267  0.1376
  409YOPC   C2B 5040  14.574  10.241   8.383  0.0496  0.2402  0.0024
  409YOPC   D3B 5041  14.399  10.452   8.058  0.4586  0.1774  0.1618
  409YOPC   C4B 5042  13.914  10.558   8.039  0.2039 -0.2979  0.0340
  410YOPC   NC3 5043  17.827   6.892   9.846  0.0933  0.1490  0.1070
  410YOPC   PO4 5044  17.748   6.570   9.603  0.1080 -0.0852 -0.1055
  410YOPC   GL1 5045  17.546   6.454   9.320  0.0023  0.0283  0.2346
  410YOPC   GL2 5046  17.234   6.457   9.280  0.2190 -0.2524  0.0851
  410YOPC   C1A 5047  17.445   6.676   8.943  0.4426 -0.1305  0.1615
  410YOPC   D2A 5048  17.333   7.099   8.777  0.0557 -0.1593  0.2434
  410YOPC   C3A 5049  17.405   7.348   8.467  0.1551  0.1227 -0.0091
  410YOPC   C4A 5050  17.328   7.416   8.092  0.0918 -0.1298  0.0066
  410YOPC   C1B 5051  16.980   6.765   9.016  0.0331  0.3317 -0.0694
  410YOPC   C2B 5052  16.872   6.727   8.552 -0.1137  0.1998  0.0671
  410YOPC   D3B 5053  17.019   7.073   8.316  0.0134 -0.1369  0.1839
  410YOPC   C4B 5054  16.864   7.281   7.874  0.0615  0.0025  0.2567
  411YOPC   NC3 5055   6.401   1.647  10.777  0.0242  0.2714 -0.0794
  411YOPC   PO4 5056   6.628   1.324  10.593 -0.2128 -0.0462  0.0997
  411YOPC   GL1 5057   6.439   1.253  10.147  0.0837 -0.1317  0.0285
  411YOPC   GL2 5058   6.469   0.962  10.045 -0.0952 -0.1150  0.2359
  411YOPC   C1A 5059   6.748   1.430   9.867  0.0272  0.0379  0.1348
  411YOPC   D2A 5060   6.850   1.472   9.429 -0.0305  0.1309 -0.0473
  411YOPC   C3A 5061   7.214   1.337   9.182  0.3486 -0.2101  0.0642
  411YOPC   C4A 5062   7.357   1.527   8.820  0.1545 -0.2482  0.1112
  411YOPC   C1B 5063   6.573   0.960   9.644  0.0914 -0.1196 -0.0714
  411YOPC   C2B 5064   6.413   1.155   9.257  0.5835  0.1260  0.1946
  411YOPC   D3B 5065   6.744   1.297   8.988  0.2067 -0.1078 -0.3389
  411YOPC   C4B 5066   6.937   1.458   8.581 -0.1180 -0.1120 -0.2509
  412YOPC   NC3 5067   8.368   1.467  10.891  0.1018  0.1350  0.0522
  412YOPC   PO4 5068   8.909   1.427  10.882  0.3017 -0.0093  0.0916
  412YOPC   GL1 5069   9.134   1.130  10.692 -0.4932  0.0463 -0.0902
  412YOPC   GL2 5070   9.394   1.289  10.615 -0.0075 -0.0450  0.1266
  412YOPC   C1A 5071   9.395   0.914  10.286 -0.2054 -0.0433 -0.0414
  412YOPC   D2A 5072   9.766   0.714   9.898  0.0253 -0.0891  0.0711
  412YOPC   C3A 5073   9.644   0.751   9.473  0.1861 -0.1190 -0.0758
  412YOPC   C4A 5074   9.669   0.667   9.014 -0.3365 -0.0423  0.1730
  412YOPC   C1B 5075   9.213   1.334  10.170  0.0480 -0.2654 -0.1208
  412YOPC   C2B 5076   9.235   0.946   9.849  0.0316  0.2909 -0.2414
  412YOPC   D3B 5077   8.917   0.711   9.769  0.0184 -0.2481 -0.0080
  412YOPC   C4B 5078   8.802   0.330   9.697 -0.1694  0.0631 -0.2090
  413YOPC   NC3 5079  17.613   4.898   9.819 -0.1605 -0.2679  0.0561
  413YOPC   PO4 5080  17.709   5.191   9.457  0.0032 -0.0272  0.1393
  413YOPC   GL1 5081  17.521   4.767   9.250  0.0658 -0.0212  0.3569
  413YOPC   GL2 5082  17.658   4.938   8.946 -0.0588  0.3231 -0.2032
  413YOPC   C1A 5083  17.522   4.472   8.894  0.0722 -0.2107  0.1191
  413YOPC   D2A 5084  17.399   4.520   8.447  0.0685 -0.1408 -0.0652
  413YOPC   C3A 5085  17.571   4.286   8.076  0.0805  0.3185 -0.0287
  413YOPC   C4A 5086  17.582   4.088   7.666  0.1091 -0.2301  0.1016
  413YOPC   C1B 5087  17.945   5.122   8.696  0.0979  0.0996  0.1479
  413YOPC   C2B 5088  18.162   5.079   8.208  0.0354  0.0469 -0.2024
  413YOPC   D3B 5089  17.981   5.042   7.871 -0.0542  0.0935 -0.0514
  413YOPC   C4B 5090  17.760   5.351   7.633 -0.1620  0.0742  0.0399
  414YOPC   NC3 5091  14.923  11.294  10.580 -0.0764  0.2754 -0.0496
  414YOPC   PO4 5092  14.656  11.239  10.284  0.0277 -0.1574  0.2554
  414YOPC   GL1 5093  14.726  11.454   9.956  0.1867 -0.0096 -0.1084
  414YOPC   GL2 5094  14.836  11.293   9.762 -0.1462  0.0069 -0.3817
  414YOPC   C1A 5095  14.951  11.800   9.827  0.1485  0.0555  0.0838
  414YOPC   D2A 5096  15.040  12.086   9.650 -0.0199  0.0447  0.0217
  414YOPC   C3A 5097  14.791  12.378   9.508  0.1089 -0.1647  0.2444
  414YOPC   C4A 5098  14.767  12.750   9.305 -0.1156 -0.1660 -0.1718
  414YOPC   C1B 5099  14.775  11.441   9.417 -0.0522 -0.2108  0.3060
  414YOPC   C2B 5100  14.807  11.795   9.262  0.3699 -0.1367  0.0947
  414YOPC   D3B 5101  15.147  12.175   9.134  0.2632  0.3139  0.0288
  414YOPC   C4B 5102  15.281  12.451   8.819  0.0181  0.0267  0.4676
  415YOPC   NC3 5103  17.659   8.664  10.649  0.4069  0.3437 -0.0190
  415YOPC   PO4 5104  17.576   9.015  10.227  0.0123 -0.1509 -0.1307
  415YOPC   GL1 5105  17.430   9.154   9.725 -0.3208  0.1319 -0.1373
  415YOPC   GL2 5106  17.445   9.466   9.737  0.0289  0.0046 -0.0105
  415YOPC   C1A 5107  17.303   9.205   9.310  0.0471 -0.1141  0.0380
  415YOPC   D2A 5108  17.387   9.002   8.828  0.0620  0.0242 -0.1525
  415YOPC   C3A 5109  17.558   9.231   8.496 -0.1771 -0.1157 -0.0951
  415YOPC   C4A 5110  17.761   9.544   8.442  0.1844  0.0909  0.2517
  415YOPC   C1B 5111  17.444   9.843   9.533 -0.0462 -0.1188  0.1298
  415YOPC   C2B 5112  17.526  10.241   9.446  0.0728 -0.0213  0.0302
  415YOPC   D3B 5113  17.604  10.469   9.065  0.2115  0.0294 -0.2125
  415YOPC   C4B 5114  17.389  10.691   8.784 -0.2207  0.3135  0.0487
  416YOPC   NC3 5115   3.386   7.877  10.070 -0.0344  0.0232 -0.0144
  416YOPC   PO4 5116   3.036   7.631  10.205  0.0432 -0.1733 -0.1141
  416YOPC   GL1 5117   2.916   7.518   9.789  0.0862 -0.2950  0.1501
  416YOPC   GL2 5118   3.234   7.547   9.609  0.1310 -0.1539  0.0211
  416YOPC   C1A 5119   2.697   7.270   9.427  0.0523  0.1053  0.1465
  416YOPC   D2A 5120   2.526   7.009   9.120 -0.1297 -0.1475  0.1577
  416YOPC   C3A 5121   2.838   6.869   8.785  0.3103 -0.3157  0.0943
  416YOPC   C4A 5122   3.134   6.629   8.572  0.0075 -0.1275  0.0164
  416YOPC   C1B 5123   3.205   7.666   9.185  0.1133 -0.1528 -0.2219
  416YOPC   C2B 5124   3.283   7.433   8.696  0.0641 -0.0159  0.0373
  416YOPC   D3B 5125   3.012   7.172   8.376  0.0519 -0.0716 -0.2921
  416YOPC   C4B 5126   2.648   6.849   8.329  0.1629  0.0254 -0.0006
  417YOPC   NC3 5127  18.170   3.776  10.037  0.1365 -0.0873  0.2049
  417YOPC   PO4 5128  18.461   3.698   9.702 -0.1861 -0.0345 -0.0390
  417YOPC   GL1 5129  18.464   3.766   9.285  0.2340 -0.1069  0.1220
  417YOPC   GL2 5130  18.245   3.788   9.167  0.1548  0.0450  0.1338
  417YOPC   C1A 5131  18.684   3.779   8.909  0.1547 -0.0193  0.0941
  417YOPC   D2A 5132  19.090   3.727   8.696  0.0731 -0.2761  0.1307
  417YOPC   C3A 5133  18.929   3.430   8.422 -0.3652  0.3351  0.0513
  417YOPC   C4A 5134  18.659   3.210   8.005  0.0042 -0.0461 -0.1345
  417YOPC   C1B 5135  18.276   3.772   8.644 -0.0092  0.1686 -0.4647
  417YOPC   C2B 5136  18.376   3.527   8.314  0.1002 -0.0442 -0.1100
  417YOPC   D3B 5137  18.322   3.703   7.912 -0.0106 -0.1890  0.1502
  417YOPC   C4B 5138  18.506   3.767   7.540 -0.0901 -0.0047  0.5419
  418YOPC   NC3 5139  12.954   2.685  10.895 -0.0980  0.2249 -0.2963
  418YOPC   PO4 5140  12.495   2.760  10.584 -0.1629 -0.0197 -0.0058
  418YOPC   GL1 5141  12.597   2.817  10.219  0.0304 -0.2096  0.0379
  418YOPC   GL2 5142  12.335   2.881   9.964  0.1835 -0.2589 -0.2541
  418YOPC   C1A 5143  12.777   2.619   9.760 -0.2145 -0.0181 -0.0148
  418YOPC   D2A 5144  12.777   2.777   9.293  0.0947 -0.0084  0.0717
  418YOPC   C3A 5145  12.684   2.685   9.062  0.1229 -0.3928  0.0312
  418YOPC   C4A 5146  12.231   2.657   9.027  0.0386 -0.0783  0.1933
  418YOPC   C1B 5147  12.317   2.516   9.619  0.1043  0.0701 -0.0131
  418YOPC   C2B 5148  12.376   2.192   9.338 -0.2103  0.0314 -0.1200
  418YOPC   D3B 5149  12.145   2.129   8.875 -0.1892 -0.1201  0.1985
  418YOPC   C4B 5150  12.142   2.110   8.374  0.1071  0.0194  0.2274
  419YOPC   NC3 5151   0.762   6.522   9.650 -0.3326 -0.1352 -0.2659
  419YOPC   PO4 5152   0.450   6.306   9.369  0.0280  0.3173 -0.2359
  419YOPC   GL1 5153   0.647   6.057   9.115 -0.0000 -0.1383 -0.0653
  419YOPC   GL2 5154   0.373   5.783   9.098 -0.1827 -0.1771 -0.0911
  419YOPC   C1A 5155   0.727   5.958   8.715  0.0318  0.0362 -0.2616
  419YOPC   D2A 5156   0.555   5.967   8.345 -0.1043  0.1030  0.2300
  419YOPC   C3A 5157   0.723   5.820   8.057 -0.1821  0.0271 -0.1898
  419YOPC   C4A 5158   0.885   5.406   7.947 -0.1269 -0.3951  0.1558
  419YOPC   C1B 5159   0.284   5.907   8.743  0.1772  0.1147  0.0274
  419YOPC   C2B 5160   0.066   5.926   8.362 -0.3874  0.0388  0.0382
  419YOPC   D3B 5161   0.258   5.920   7.955  0.0754  0.2151  0.0041
  419YOPC   C4B 5162   0.305   5.618   7.536 -0.0384  0.0911 -0.0633
  420YOPC   NC3 5163  13.767  15.940  10.492  0.2307  0.1103 -0.0037
  420YOPC   PO4 5164  14.046  15.860  10.809 -0.0957 -0.1123 -0.3402
  420YOPC   GL1 5165  14.134  15.587  10.440 -0.0800 -0.1168  0.3400
  420YOPC   GL2 5166  14.513  15.540  10.352 -0.0887 -0.0846 -0.2188
  420YOPC   C1A 5167  14.108  15.399  10.013 -0.2654  0.0259  0.0224
  420YOPC   D2A 5168  14.490  15.408   9.707  0.3318  0.0336  0.1282
  420YOPC   C3A 5169  14.510  15.403   9.333  0.2514  0.2251  0.0407
  420YOPC   C4A 5170  14.474  15.442   8.910 -0.1601 -0.1683  0.1559
  420YOPC   C1B 5171  14.588  15.798  10.006  0.1772  0.0541 -0.0796
  420YOPC   C2B 5172  14.881  16.045   9.752 -0.1049 -0.3408 -0.0941
  420YOPC   D3B 5173  14.785  15.945   9.350 -0.0490 -0.1729  0.1030
  420YOPC   C4B 5174  14.662  16.021   8.986  0.0920 -0.0343 -0.1216
  421YOPC   NC3 5175  10.455   3.088  11.083  0.0360 -0.0488 -0.3847
  421YOPC   PO4 5176  10.783   3.113  10.772  0.4077  0.3491  0.0269
  421YOPC   GL1 5177  10.701   2.926  10.310 -0.0859 -0.1113  0.4971
  421YOPC   GL2 5178  10.837   3.037  10.001 -0.1179 -0.1720  0.0463
  421YOPC   C1A 5179  10.338   2.843  10.038  0.0745 -0.0659  0.3735
  421YOPC   D2A 5180  10.283   2.625   9.683 -0.0549  0.1492 -0.0287
  421YOPC   C3A 5181  10.197   2.875   9.265  0.0224 -0.0743 -0.0262
  421YOPC   C4A 5182  10.456   2.727   8.944 -0.1469  0.1236 -0.1382
  421YOPC   C1B 5183  10.770   2.758   9.766 -0.0325  0.0318 -0.1060
  421YOPC   C2B 5184  10.701   2.692   9.455  0.0354  0.2067  0.0539
  421YOPC   D3B 5185  10.904   2.451   9.172  0.0136  0.0269 -0.0738
  421YOPC   C4B 5186  11.014   2.392   8.821  0.2776 -0.0939 -0.1158
  422YOPC   NC3 5187   2.309  14.229  10.907 -0.0584  0.3049 -0.1101
  422YOPC   PO4 5188   2.628  14.540  11.001  0.2577  0.1691  0.0854
  422YOPC   GL1 5189   2.712  14.457  10.546  0.1438 -0.1727  0.0022
  422YOPC   GL2 5190   2.654  14.715  10.423  0.0073  0.0261 -0.2874
  422YOPC   C1A 5191   2.595  14.119  10.277 -0.0196 -0.0652 -0.0790
  422YOPC   D2A 5192   2.574  13.720  10.080  0.0999  0.4043 -0.0661
  422YOPC   C3A 5193   2.361  13.632   9.709 -0.3063 -0.1761  0.2310
  422YOPC   C4A 5194   2.325  13.875   9.376 -0.0464  0.0166  0.0033
  422YOPC   C1B 5195   2.704  14.572   9.999  0.0330  0.0829  0.0951
  422YOPC   C2B 5196   2.748  14.488   9.497 -0.1359  0.0548 -0.0654
  422YOPC   D3B 5197   2.360  14.457   9.246 -0.3533  0.0427  0.3583
  422YOPC   C4B 5198   2.108  14.485   8.827  0.2883  0.2622 -0.0764
  423YOPC   NC3 5199   2.318  12.329  10.566 -0.0414 -0.2450  0.0939
  423YOPC   PO4 5200   1.975  12.108  10.463 -0.1527 -0.1115  0.2330
  423YOPC   GL1 5201   1.951  12.185  10.025  0.0733  0.0506 -0.2583
  423YOPC   GL2 5202   1.676  12.371   9.971  0.1111 -0.1944  0.0912
  423YOPC   C1A 5203   2.034  12.505   9.655 -0.1679 -0.1344 -0.4930
  423YOPC   D2A 5204   2.247  12.526   9.239  0.2581 -0.1095 -0.1096
  423YOPC   C3A 5205   2.196  12.861   8.938  0.0240  0.3060 -0.0304
  423YOPC   C4A 5206   2.450  13.155   8.760  0.2559 -0.1313 -0.4009
  423YOPC   C1B 5207   1.503  12.650   9.747 -0.0299 -0.0073 -0.2321
  423YOPC   C2B 5208   1.708  12.677   9.336 -0.1916 -0.0923 -0.0394
  423YOPC   D3B 5209   1.700  12.648   8.833 -0.0258 -0.0702  0.4139
  423YOPC   C4B 5210   1.708  12.792   8.481  0.1956 -0.1056  0.0343
  424YOPC   NC3 5211  15.129   9.936   9.793 -0.1450  0.2657 -0.3220
  424YOPC   PO4 5212  15.187  10.366  10.002 -0.0540 -0.2636 -0.0589
  424YOPC   GL1 5213  15.272  10.447   9.601 -0.0660 -0.1139 -0.0322
  424YOPC   GL2 5214  15.030  10.627   9.555  0.0651  0.1222 -0.0645
  424YOPC   C1A 5215  15.251  10.551   9.127 -0.0387 -0.1647  0.2395
  424YOPC   D2A 5216  15.383  10.825   8.823 -0.0753 -0.0390 -0.3292
  424YOPC   C3A 5217  15.463  11.298   8.850  0.1622  0.1858  0.1571
  424YOPC   C4A 5218  15.707  11.548   8.567 -0.0287  0.2509  0.1721
  424YOPC   C1B 5219  14.868  10.864   9.189 -0.1090  0.0344 -0.0276
  424YOPC   C2B 5220  14.924  10.969   8.823  0.2567  0.1669  0.2126
  424YOPC   D3B 5221  14.751  11.229   8.484  0.0376  0.1813  0.0414
  424YOPC   C4B 5222  14.903  11.404   8.068  0.0589  0.3545 -0.4995
  425YOPC   NC3 5223  14.003   4.662  10.328  0.2759 -0.0683  0.0128
  425YOPC   PO4 5224  14.031   4.428   9.993  0.4115  0.1047  0.0248
  425YOPC   GL1 5225  13.948   4.401   9.651  0.1152  0.0483 -0.2350
  425YOPC   GL2 5226  13.673   4.246   9.446 -0.0004  0.1933  0.0635
  425YOPC   C1A 5227  13.707   4.711   9.295 -0.1596 -0.1645 -0.1332
  425YOPC   D2A 5228  13.658   5.208   9.186 -0.0555  0.4057 -0.0287
  425YOPC   C3A 5229  13.328   5.456   8.981  0.2578  0.3249  0.0417
  425YOPC   C4A 5230  13.029   5.495   8.671 -0.2766  0.0102 -0.0430
  425YOPC   C1B 5231  13.258   4.462   9.248 -0.2296 -0.1854  0.1219
  425YOPC   C2B 5232  13.032   4.731   8.878 -0.0014  0.1175 -0.1289
  425YOPC   D3B 5233  13.394   4.993   8.833 -0.2464 -0.0260 -0.2135
  425YOPC   C4B 5234  13.705   5.175   8.575  0.2789 -0.1150  0.0292
  426YOPC   NC3 5235   8.056   0.684  10.859  0.0265  0.1633  0.2272
  426YOPC   PO4 5236   8.161   1.089  10.604 -0.1110  0.0864 -0.3346
  426YOPC   GL1 5237   8.108   1.163  10.189 -0.1444 -0.0330  0.0568
  426YOPC   GL2 5238   7.876   1.397   9.966 -0.1267  0.1996  0.0641
  426YOPC   C1A 5239   7.965   0.941   9.812 -0.2319  0.1281 -0.3019
  426YOPC   D2A 5240   7.974   0.703   9.389 -0.2840  0.2115 -0.1642
  426YOPC   C3A 5241   7.945   0.351   9.128  0.0816  0.1147 -0.1775
  426YOPC   C4A 5242   8.236   0.029   8.957  0.0123  0.1014  0.2837
  426YOPC   C1B 5243   7.955   1.424   9.581  0.0177 -0.1035 -0.1651
  426YOPC   C2B 5244   8.291   1.178   9.510 -0.2153  0.1158 -0.1151
  426YOPC   D3B 5245   8.596   1.140   9.917 -0.0049  0.1830 -0.1900
  426YOPC   C4B 5246   8.843   0.954  10.209 -0.1628  0.2538  0.0199
  427YOPC   NC3 5247   7.427  15.642  10.557 -0.0734 -0.1058  0.0798
  427YOPC   PO4 5248   7.709  15.847  10.221 -0.2820  0.2725 -0.0961
  427YOPC   GL1 5249   7.953  15.996   9.869 -0.1317 -0.2194 -0.0729
  427YOPC   GL2 5250   7.957  15.614   9.792 -0.1150 -0.0909  0.0614
  427YOPC   C1A 5251   8.213  16.392   9.816  0.3322  0.0880  0.3824
  427YOPC   D2A 5252   8.393  16.810   9.726  0.1727  0.0699 -0.1215
  427YOPC   C3A 5253   8.556  16.992   9.361 -0.2254  0.2007  0.2373
  427YOPC   C4A 5254   8.736  17.198   9.001  0.1369  0.2095  0.1282
  427YOPC   C1B 5255   8.150  15.570   9.350 -0.1287  0.1770  0.1334
  427YOPC   C2B 5256   8.210  15.497   8.944  0.1467 -0.1907  0.0375
  427YOPC   D3B 5257   8.002  15.430   8.516  0.1162 -0.2081 -0.0923
  427YOPC   C4B 5258   7.745  15.101   8.338 -0.2280 -0.0449  0.0608
  428YOPC   NC3 5259  12.750  13.816  10.737 -0.1695 -0.2151  0.1855
  428YOPC   PO4 5260  13.236  13.896  10.818  0.2867 -0.2090  0.0906
  428YOPC   GL1 5261  13.130  13.649  10.415  0.1753 -0.4732  0.0654
  428YOPC   GL2 5262  13.336  13.504  10.247 -0.1639  0.0557 -0.1753
  428YOPC   C1A 5263  13.088  13.923  10.133  0.0820  0.0626 -0.2340
  428YOPC   D2A 5264  13.143  14.051   9.733  0.1508  0.0444  0.0548
  428YOPC   C3A 5265  13.365  14.414   9.665 -0.1496  0.0519 -0.1474
  428YOPC   C4A 5266  13.827  14.490   9.611 -0.0739 -0.1712  0.0431
  428YOPC   C1B 5267  13.309  13.527   9.821  0.1978  0.0382  0.0499
  428YOPC   C2B 5268  13.231  13.647   9.412  0.0714  0.1890  0.1774
  428YOPC   D3B 5269  13.630  13.488   9.283 -0.2128  0.2545  0.1668
  428YOPC   C4B 5270  13.843  13.532   8.807 -0.0305 -0.0901 -0.0322
  429YOPC   NC3 5271  10.780   1.515  10.680  0.0919 -0.2538 -0.0361
  429YOPC   PO4 5272  10.947   1.897  10.664  0.2071 -0.0775 -0.4792
  429YOPC   GL1 5273  10.920   1.892  10.223  0.1137 -0.4280 -0.0551
  429YOPC   GL2 5274  10.801   1.572  10.199  0.2104  0.0321 -0.1593
  429YOPC   C1A 5275  11.013   1.813   9.789 -0.0374 -0.2866  0.2242
  429YOPC   D2A 5276  10.811   1.665   9.373 -0.0557  0.2063 -0.2907
  429YOPC   C3A 5277  10.660   1.947   9.056  0.0343  0.2440  0.3380
  429YOPC   C4A 5278  10.428   2.228   8.779  0.1141  0.3443 -0.0487
  429YOPC   C1B 5279  10.679   1.253   9.847 -0.1102 -0.2171  0.3642
  429YOPC   C2B 5280  10.697   1.169   9.395  0.1849 -0.2354  0.2727
  429YOPC   D3B 5281  10.557   0.927   9.041 -0.0418  0.0327  0.0846
  429YOPC   C4B 5282  10.201   0.605   9.087  0.0166  0.1735 -0.2262
  430YOPC   NC3 5283   2.953   4.458  10.150 -0.0725 -0.0389 -0.2081
  430YOPC   PO4 5284   3.158   4.179   9.976  0.2458 -0.1236 -0.0542
  430YOPC   GL1 5285   3.172   3.859   9.775 -0.2608  0.3792  0.1914
  430YOPC   GL2 5286   3.482   3.825   9.631  0.1946  0.0064 -0.0156
  430YOPC   C1A 5287   3.190   3.405   9.559 -0.0880 -0.2828  0.3732
  430YOPC   D2A 5288   3.162   3.051   9.355  0.1736 -0.0571 -0.0655
  430YOPC   C3A 5289   3.455   2.952   9.085 -0.2166  0.2486 -0.0121
  430YOPC   C4A 5290   3.538   2.863   8.732  0.0918 -0.0830 -0.2603
  430YOPC   C1B 5291   3.358   3.895   9.225  0.1899  0.1960 -0.0566
  430YOPC   C2B 5292   3.360   3.963   8.745 -0.0778 -0.2955 -0.2102
  430YOPC   D3B 5293   3.655   3.999   8.558 -0.0167  0.0178 -0.3305
  430YOPC   C4B 5294   3.893   3.655   8.284  0.1803 -0.1244  0.2382
  431YOPC   NC3 5295   0.001   7.769   9.939 -0.0960 -0.4210 -0.0805
  431YOPC   PO4 5296   0.532   7.689   9.932 -0.1903  0.2429  0.1662
  431YOPC   GL1 5297   0.461   7.702   9.461  0.0742  0.3959 -0.2644
  431YOPC   GL2 5298   0.399   7.535   9.248 -0.2986  0.0871 -0.3314
  431YOPC   C1A 5299   0.498   7.872   8.985 -0.0083 -0.1094  0.1284
  431YOPC   D2A 5300   0.671   7.830   8.541 -0.0263  0.1739  0.3881
  431YOPC   C3A 5301   0.410   7.729   8.199  0.0892 -0.3226  0.0323
  431YOPC   C4A 5302  -0.041   7.631   8.247 -0.0263 -0.1214  0.1562
  431YOPC   C1B 5303   0.889   7.506   9.262 -0.2106 -0.0334 -0.1101
  431YOPC   C2B 5304   1.277   7.438   9.077  0.2704 -0.2449 -0.0162
  431YOPC   D3B 5305   1.507   7.109   9.162 -0.3074 -0.0652  0.2082
  431YOPC   C4B 5306   1.898   6.878   9.019 -0.1751 -0.1013  0.2864
  432YOPC   NC3 5307   8.755   9.941  10.096  0.1350 -0.2359 -0.2581
  432YOPC   PO4 5308   8.609  10.307   9.915  0.1446  0.1062  0.0500
  432YOPC   GL1 5309   8.485   9.999   9.664  0.0594  0.2085  0.1567
  432YOPC   GL2 5310   8.320   9.671   9.824  0.1097 -0.0820  0.0219
  432YOPC   C1A 5311   8.446  10.118   9.177  0.4589 -0.0387 -0.0145
  432YOPC   D2A 5312   8.256  10.163   8.757 -0.0853 -0.0454 -0.1918
  432YOPC   C3A 5313   8.535  10.223   8.422 -0.1711 -0.2295  0.0088
  432YOPC   C4A 5314   8.770  10.202   8.023 -0.3742 -0.2194  0.2544
  432YOPC   C1B 5315   8.204   9.698   9.364 -0.0176 -0.0557 -0.1518
  432YOPC   C2B 5316   8.178   9.724   8.895  0.1632 -0.0135  0.3683
  432YOPC   D3B 5317   7.914   9.463   8.638  0.2310  0.0877  0.1007
  432YOPC   C4B 5318   7.931   9.025   8.428 -0.1906 -0.1087 -0.0194
  433YOPC   NC3 5319  11.302   3.217  10.848 -0.0629  0.2191 -0.3139
  433YOPC   PO4 5320  11.549   2.956  10.531  0.0513 -0.0419 -0.1031
  433YOPC   GL1 5321  11.825   3.126  10.082  0.1275  0.1280  0.0082
  433YOPC   GL2 5322  11.597   3.422  10.064 -0.0199 -0.1942 -0.0839
  433YOPC   C1A 5323  12.050   3.327   9.666  0.0548  0.0004  0.0804
  433YOPC   D2A 5324  11.943   3.484   9.314  0.0378 -0.1061 -0.0162
  433YOPC   C3A 5325  12.114   3.599   9.026  0.0945 -0.5474 -0.1287
  433YOPC   C4A 5326  12.016   3.890   8.676  0.1563 -0.0092  0.3295
  433YOPC   C1B 5327  11.532   3.181   9.637 -0.2196 -0.2015  0.3885
  433YOPC   C2B 5328  11.438   3.255   9.186  0.4593  0.2265  0.0373
  433YOPC   D3B 5329  11.543   3.604   9.053  0.1139  0.2301 -0.2749
  433YOPC   C4B 5330  11.578   3.664   8.674 -0.0358 -0.0625 -0.0790
  434YOPC   NC3 5331   9.280  17.700  11.039 -0.0264  0.0980  0.0643
  434YOPC   PO4 5332   9.335  18.070  10.949 -0.3225 -0.1264 -0.2086
  434YOPC   GL1 5333   9.318  18.261  10.526 -0.0623 -0.0269  0.0720
  434YOPC   GL2 5334   9.010  18.286  10.403  0.1300 -0.1572 -0.2898
  434YOPC   C1A 5335   9.488  18.198  10.031  0.1858  0.2787  0.1702
  434YOPC   D2A 5336   9.558  17.963   9.629  0.1338 -0.1656 -0.0813
  434YOPC   C3A 5337   9.497  18.180   9.329  0.0105  0.3135  0.0317
  434YOPC   C4A 5338   9.472  18.495   9.038  0.2041 -0.3212  0.0760
  434YOPC   C1B 5339   9.071  18.397  10.056 -0.0827  0.0520 -0.2135
  434YOPC   C2B 5340   9.366  18.728   9.939  0.1601  0.0230  0.2567
  434YOPC   D3B 5341   9.325  18.677   9.536  0.0272  0.1585 -0.4259
  434YOPC   C4B 5342   8.990  18.796   9.220  0.2119  0.0374  0.1063
  435YOPC   NC3 5343   4.448   7.952  10.170 -0.1454 -0.0654 -0.0527
  435YOPC   PO4 5344   4.198   7.633  10.129 -0.0681 -0.1257  0.0543
  435YOPC   GL1 5345   4.397   7.747   9.741  0.1374 -0.3540  0.1545
  435YOPC   GL2 5346   4.448   8.030   9.683  0.3440 -0.1503  0.0273
  435YOPC   C1A 5347   4.697   7.675   9.454 -0.0209  0.0886  0.0257
  435YOPC   D2A 5348   4.690   7.636   8.960 -0.1597  0.1530  0.0685
  435YOPC   C3A 5349   4.942   7.518   8.542 -0.3873  0.0939 -0.0412
  435YOPC   C4A 5350   4.912   7.350   8.103 -0.0371  0.0524 -0.1728
  435YOPC   C1B 5351   4.385   7.999   9.310  0.0029  0.2007  0.3581
  435YOPC   C2B 5352   4.324   7.963   8.842  0.0060 -0.1791 -0.0786
  435YOPC   D3B 5353   4.634   7.919   8.484 -0.2629  0.2262  0.2288
  435YOPC   C4B 5354   4.855   7.819   8.183  0.4498  0.1114  0.2053
  436YOPC   NC3 5355   6.745  14.384  10.662 -0.1271 -0.2607 -0.2321
  436YOPC   PO4 5356   7.112  14.428  10.474 -0.1728 -0.1734  0.3198
  436YOPC   GL1 5357   6.829  14.383  10.155  0.1306 -0.1811  0.1201
  436YOPC   GL2 5358   6.588  14.278  10.052 -0.0741 -0.1410  0.0090
  436YOPC   C1A 5359   6.720  14.711   9.837  0.2842 -0.0767  0.1523
  436YOPC   D2A 5360   6.345  14.657   9.493  0.0214  0.2122 -0.2993
  436YOPC   C3A 5361   5.966  14.612   9.782  0.1664 -0.1865 -0.0057
  436YOPC   C4A 5362   5.741  14.137   9.704  0.0090 -0.1962  0.1887
  436YOPC   C1B 5363   6.294  14.237   9.815  0.0814  0.0520  0.1447
  436YOPC   C2B 5364   6.127  14.159   9.425  0.0067  0.0671 -0.3529
  436YOPC   D3B 5365   6.340  14.300   9.124 -0.0095 -0.1181 -0.1813
  436YOPC   C4B 5366   6.469  14.508   8.753  0.1191  0.2088  0.0136
  437YOPC   NC3 5367   8.809  13.698  10.711 -0.0626 -0.0166  0.0163
  437YOPC   PO4 5368   8.656  13.958  10.324 -0.1509  0.0625 -0.0142
  437YOPC   GL1 5369   8.364  13.659  10.068  0.2332  0.3608  0.0040
  437YOPC   GL2 5370   8.108  13.807   9.927 -0.2197  0.0239  0.2306
  437YOPC   C1A 5371   8.477  13.536   9.657  0.0436 -0.0676  0.1047
  437YOPC   D2A 5372   8.636  13.456   9.340 -0.2063 -0.0783 -0.4143
  437YOPC   C3A 5373   8.705  13.577   8.904 -0.1236  0.1234 -0.0880
  437YOPC   C4A 5374   8.846  13.481   8.469 -0.1315 -0.5917 -0.3363
  437YOPC   C1B 5375   7.994  13.696   9.553 -0.0498 -0.2212 -0.0340
  437YOPC   C2B 5376   8.219  13.523   9.086 -0.0797 -0.0389 -0.4100
  437YOPC   D3B 5377   8.270  13.767   8.802  0.0802  0.2309  0.2215
  437YOPC   C4B 5378   8.221  14.260   8.739  0.1130 -0.0841 -0.0272
  438YOPC   NC3 5379  12.003   6.538  11.072  0.1842  0.0195 -0.3871
  438YOPC   PO4 5380  12.082   6.705  10.551 -0.0125 -0.0323  0.2700
  438YOPC   GL1 5381  12.063   6.311  10.252  0.1326 -0.0320  0.3451
  438YOPC   GL2 5382  11.725   6.094  10.199  0.3029 -0.0615  0.1381
  438YOPC   C1A 5383  12.177   6.126   9.836 -0.2331 -0.3344 -0.4091
  438YOPC   D2A 5384  12.563   5.989   9.791 -0.1006 -0.0966 -0.0793
  438YOPC   C3A 5385  12.908   5.814   9.578  0.1643 -0.4107 -0.0457
  438YOPC   C4A 5386  12.927   5.743   9.178 -0.0072  0.1278 -0.0357
  438YOPC   C1B 5387  11.658   5.937   9.820  0.3539  0.0170 -0.2840
  438YOPC   C2B 5388  11.636   5.763   9.412 -0.2760  0.1614 -0.3456
  438YOPC   D3B 5389  11.944   5.612   9.144 -0.0209 -0.2630 -0.2157
  438YOPC   C4B 5390  12.090   5.407   8.770 -0.4163  0.0280  0.0955
  439YOPC   NC3 5391   2.248   8.465  10.486 -0.0069 -0.0725 -0.3235
  439YOPC   PO4 5392   2.346   8.213  10.212 -0.0394  0.1893  0.0372
  439YOPC   GL1 5393   2.378   8.329   9.832  0.1102 -0.1750  0.0467
  439YOPC   GL2 5394   2.301   8.173   9.664 -0.2429  0.0683  0.2370
  439YOPC   C1A 5395   2.382   8.754   9.694  0.1427 -0.0465  0.1113
  439YOPC   D2A 5396   2.753   9.068   9.575 -0.1669 -0.2113 -0.2086
  439YOPC   C3A 5397   2.908   8.911   9.235  0.1298  0.0316  0.2979
  439YOPC   C4A 5398   3.114   8.762   8.910 -0.1648 -0.0229 -0.2577
  439YOPC   C1B 5399   2.229   8.159   9.197  0.0797 -0.1281 -0.0509
  439YOPC   C2B 5400   2.109   8.067   8.780  0.0318  0.0140  0.3183
  439YOPC   D3B 5401   2.232   7.746   8.518 -0.2005 -0.0056  0.0300
  439YOPC   C4B 5402   2.044   7.443   8.192 -0.0047  0.1000  0.3164
  440YOPC   NC3 5403  16.745   1.402   9.927 -0.0687  0.2663 -0.3596
  440YOPC   PO4 5404  17.034   1.024   9.991  0.0019  0.4956  0.1984
  440YOPC   GL1 5405  17.118   0.807   9.614  0.1365 -0.0366  0.0958
  440YOPC   GL2 5406  17.176   0.481   9.737 -0.0645  0.0082  0.1513
  440YOPC   C1A 5407  17.099   0.927   9.237  0.1435  0.0779  0.1367
  440YOPC   D2A 5408  17.162   0.853   8.862  0.2047 -0.1192  0.1310
  440YOPC   C3A 5409  17.314   1.092   8.516  0.1563  0.1384  0.2624
  440YOPC   C4A 5410  17.632   1.185   8.277  0.0573 -0.0962  0.1739
  440YOPC   C1B 5411  16.939   0.399   9.274 -0.1584  0.1245 -0.0451
  440YOPC   C2B 5412  16.975   0.359   8.828 -0.4641 -0.1081 -0.0331
  440YOPC   D3B 5413  17.078   0.045   8.474 -0.1442 -0.0509 -0.0928
  440YOPC   C4B 5414  17.330  -0.054   8.178  0.1280 -0.1543 -0.0273
  441YOPC   NC3 5415  10.470   5.333  10.055 -0.1524 -0.1478 -0.0583
  441YOPC   PO4 5416  10.915   5.340  10.014 -0.0823  0.1195 -0.0061
  441YOPC   GL1 5417  10.818   5.350   9.646  0.0230  0.1615  0.2292
  441YOPC   GL2 5418  10.633   5.624   9.540  0.0891  0.0286 -0.0050
  441YOPC   C1A 5419  10.795   5.177   9.216 -0.0889  0.2877 -0.0658
  441YOPC   D2A 5420  10.839   4.770   9.157  0.3865 -0.2851  0.1931
  441YOPC   C3A 5421  11.238   4.593   9.233 -0.4212 -0.0788 -0.1885
  441YOPC   C4A 5422  11.698   4.653   9.117 -0.0207  0.4154 -0.1649
  441YOPC   C1B 5423  10.817   5.805   9.148  0.2333 -0.3315  0.0595
  441YOPC   C2B 5424  10.944   5.480   8.776 -0.1800  0.2698  0.0070
  441YOPC   D3B 5425  11.154   5.707   8.575 -0.3633 -0.3393  0.1563
  441YOPC   C4B 5426  11.377   5.846   8.220  0.2713  0.0305  0.2616
  442YOPC   NC3 5427  12.746   3.591  10.999  0.2016 -0.2818  0.0152
  442YOPC   PO4 5428  12.886   3.304  10.808 -0.1453  0.0506 -0.1621
  442YOPC   GL1 5429  13.002   3.038  10.457 -0.0764  0.1431  0.1167
  442YOPC   GL2 5430  12.927   3.170  10.137  0.1077  0.1401  0.1439
  442YOPC   C1A 5431  13.245   2.737  10.151  0.0836 -0.1589  0.2917
  442YOPC   D2A 5432  13.077   2.266   9.992 -0.0545  0.1404 -0.5093
  442YOPC   C3A 5433  12.906   2.194   9.565  0.0244  0.1432 -0.0926
  442YOPC   C4A 5434  12.804   2.169   9.039  0.1395 -0.0785 -0.1648
  442YOPC   C1B 5435  13.041   2.994   9.739  0.0657 -0.1380 -0.3049
  442YOPC   C2B 5436  13.076   3.189   9.384  0.1537 -0.0242 -0.0957
  442YOPC   D3B 5437  13.084   2.988   8.962  0.1787 -0.1725  0.1517
  442YOPC   C4B 5438  12.889   2.890   8.625  0.0016  0.1624 -0.1315
  443YOPC   NC3 5439   0.359   0.963  10.330 -0.2685 -0.1487 -0.1532
  443YOPC   PO4 5440   0.071   0.760  10.186 -0.2140  0.1954  0.0703
  443YOPC   GL1 5441  -0.085   0.841   9.772  0.1700  0.2581  0.4880
  443YOPC   GL2 5442  -0.256   1.106   9.536 -0.0772  0.1877  0.2143
  443YOPC   C1A 5443  -0.105   0.641   9.363  0.2274  0.1426 -0.1722
  443YOPC   D2A 5444   0.096   0.338   9.095 -0.1776  0.1886  0.0932
  443YOPC   C3A 5445   0.098   0.202   8.670 -0.0662 -0.2393  0.0261
  443YOPC   C4A 5446  -0.077   0.495   8.357  0.1900  0.0176  0.0606
  443YOPC   C1B 5447  -0.052   1.207   9.124 -0.2687  0.0258  0.0241
  443YOPC   C2B 5448   0.175   1.155   8.720 -0.0637 -0.0776 -0.1195
  443YOPC   D3B 5449   0.312   0.769   8.485  0.0787 -0.1571 -0.0789
  443YOPC   C4B 5450   0.523   0.446   8.741  0.0111 -0.0606  0.1161
  444YOPC   NC3 5451   5.628   6.211  10.579  0.3354 -0.1246  0.0964
  444YOPC   PO4 5452   5.281   6.505  10.424  0.1526  0.2779 -0.1506
  444YOPC   GL1 5453   5.404   6.812  10.119  0.2352  0.0556 -0.0152
  444YOPC   GL2 5454   5.744   6.758  10.077 -0.0917 -0.0157 -0.0581
  444YOPC   C1A 5455   5.351   6.528   9.785 -0.1284 -0.0975  0.0804
  444YOPC   D2A 5456   5.607   6.216   9.584  0.2434  0.1959 -0.4168
  444YOPC   C3A 5457   5.572   5.814   9.771 -0.2846  0.3637  0.2850
  444YOPC   C4A 5458   6.024   5.545   9.749 -0.3795 -0.1522 -0.1426
  444YOPC   C1B 5459   5.929   6.625   9.720 -0.0227  0.2066 -0.4047
  444YOPC   C2B 5460   6.093   6.445   9.437  0.1645  0.1064 -0.2372
  444YOPC   D3B 5461   5.987   6.584   8.978  0.1087  0.1474 -0.0944
  444YOPC   C4B 5462   5.897   6.283   8.638 -0.2938 -0.0830 -0.2421
  445YOPC   NC3 5463   8.361   8.434  10.704  0.2144 -0.0109  0.1280
  445YOPC   PO4 5464   8.611   8.415  10.311 -0.0909 -0.3327  0.0972
  445YOPC   GL1 5465   8.647   8.446   9.826  0.1622 -0.5524 -0.1946
  445YOPC   GL2 5466   8.959   8.485   9.633  0.1589  0.2553  0.1110
  445YOPC   C1A 5467   8.534   8.785   9.437 -0.2977 -0.1629 -0.2572
  445YOPC   D2A 5468   8.481   8.874   9.003  0.0329  0.1362  0.2234
  445YOPC   C3A 5469   8.058   8.950   8.923  0.1223 -0.0875 -0.0913
  445YOPC   C4A 5470   7.713   9.033   9.048 -0.2970 -0.2879  0.4248
  445YOPC   C1B 5471   9.238   8.381   9.292 -0.1104  0.2105 -0.0755
  445YOPC   C2B 5472   9.308   8.318   8.897 -0.1673 -0.2338  0.2474
  445YOPC   D3B 5473   9.276   8.035   8.646  0.0661 -0.0593  0.0931
  445YOPC   C4B 5474   9.385   7.704   8.434  0.2341  0.1107  0.1331
  446YOPC   NC3 5475   0.981   1.921  10.205 -0.4129 -0.1870  0.0686
  446YOPC   PO4 5476   1.159   1.483  10.045  0.0021 -0.2085  0.2291
  446YOPC   GL1 5477   1.061   1.264   9.581  0.0283 -0.3743  0.2194
  446YOPC   GL2 5478   1.016   0.936   9.723 -0.2999  0.0183  0.0943
  446YOPC   C1A 5479   1.075   1.188   9.185 -0.3384  0.2310 -0.1057
  446YOPC   D2A 5480   1.290   0.948   8.876  0.5573  0.1605  0.0354
  446YOPC   C3A 5481   1.295   0.911   8.497  0.0604 -0.1790  0.0136
  446YOPC   C4A 5482   1.381   0.539   8.103 -0.0726  0.1888 -0.1975
  446YOPC   C1B 5483   0.728   0.820   9.434 -0.0370 -0.0675  0.3502
  446YOPC   C2B 5484   0.843   0.761   8.978 -0.2453 -0.1682  0.3043
  446YOPC   D3B 5485   1.055   0.511   8.766  0.1599 -0.0149 -0.0550
  446YOPC   C4B 5486   1.022   0.417   8.393 -0.0890 -0.1309 -0.0649
  447YOPC   NC3 5487  13.290   7.626  10.375  0.2214 -0.2884 -0.0045
  447YOPC   PO4 5488  13.051   7.468  10.076 -0.0300 -0.0737 -0.0152
  447YOPC   GL1 5489  13.028   7.503   9.680 -0.0494  0.2056  0.0961
  447YOPC   GL2 5490  13.102   7.277   9.556  0.2748  0.2994  0.2198
  447YOPC   C1A 5491  13.103   7.794   9.283 -0.0601  0.1111 -0.0975
  447YOPC   D2A 5492  12.903   8.138   9.111  0.0178  0.1367 -0.2183
  447YOPC   C3A 5493  13.039   8.532   8.918  0.0451 -0.0987 -0.5194
  447YOPC   C4A 5494  13.124   8.594   8.579 -0.1907  0.4175 -0.0300
  447YOPC   C1B 5495  13.248   7.328   9.158  0.3163 -0.0855  0.3169
  447YOPC   C2B 5496  13.186   7.538   8.665 -0.2348  0.2574  0.1090
  447YOPC   D3B 5497  13.009   7.274   8.336  0.1534  0.1636 -0.1856
  447YOPC   C4B 5498  12.668   7.224   7.989 -0.2517  0.2160  0.2090
  448YOPC   NC3 5499   9.011   0.852  11.037  0.2002  0.1484 -0.2346
  448YOPC   PO4 5500   8.701   0.532  11.011  0.1880  0.2221 -0.1643
  448YOPC   GL1 5501   8.495   0.467  10.616 -0.2015  0.0736  0.0047
  448YOPC   GL2 5502   8.140   0.251  10.644  0.3143  0.0131  0.0166
  448YOPC   C1A 5503   8.286   0.676  10.202  0.1323 -0.0506 -0.0415
  448YOPC   D2A 5504   8.440   0.676   9.734  0.0319  0.1298 -0.2007
  448YOPC   C3A 5505   8.663   0.899   9.375 -0.3488 -0.4061  0.2703
  448YOPC   C4A 5506   9.196   1.008   9.288  0.3453  0.1450 -0.0272
  448YOPC   C1B 5507   7.962   0.244  10.127  0.1839  0.0095  0.0799
  448YOPC   C2B 5508   7.983   0.278   9.705  0.0203  0.2372  0.3570
  448YOPC   D3B 5509   7.812   0.012   9.416 -0.2170  0.3157  0.0325
  448YOPC   C4B 5510   7.836  -0.240   9.107 -0.0747 -0.1477  0.3587
  449YOPC   NC3 5511  17.002   9.068  10.106 -0.3568 -0.1251  0.2215
  449YOPC   PO4 5512  16.811   8.628  10.284  0.2360  0.2966 -0.1963
  449YOPC   GL1 5513  16.645   8.849   9.895  0.1730  0.0432 -0.1753
  449YOPC   GL2 5514  16.507   8.672   9.724  0.1289 -0.2515  0.3742
  449YOPC   C1A 5515  16.928   8.849   9.507  0.0541 -0.0583 -0.1586
  449YOPC   D2A 5516  17.193   8.720   9.246 -0.1596 -0.2875 -0.4604
  449YOPC   C3A 5517  17.279   8.523   8.878  0.4317  0.1082  0.4074
  449YOPC   C4A 5518  17.225   8.707   8.505  0.1069  0.1066  0.1074
  449YOPC   C1B 5519  16.347   8.986   9.453  0.1421  0.0554 -0.1931
  449YOPC   C2B 5520  16.193   8.969   9.033  0.2616  0.3054  0.0623
  449YOPC   D3B 5521  16.427   9.172   8.704  0.2040 -0.0122  0.3685
  449YOPC   C4B 5522  16.545   9.268   8.290  0.0859  0.1421  0.0732
  450YOPC   NC3 5523   4.380   4.518  10.042 -0.0421  0.1358 -0.4079
  450YOPC   PO4 5524   4.316   4.900   9.793 -0.1921 -0.0636 -0.3089
  450YOPC   GL1 5525   4.107   4.710   9.445  0.0253 -0.1661  0.0712
  450YOPC   GL2 5526   3.800   4.789   9.518 -0.2265  0.0059  0.1244
  450YOPC   C1A 5527   4.187   4.633   8.972 -0.0615 -0.1791  0.0684
  450YOPC   D2A 5528   4.296   4.543   8.507  0.0509  0.0006 -0.0167
  450YOPC   C3A 5529   4.570   4.415   8.123 -0.0243  0.0897  0.2306
  450YOPC   C4A 5530   4.793   4.110   7.943 -0.1050 -0.1709  0.2109
  450YOPC   C1B 5531   3.588   4.944   9.205 -0.1446 -0.1039  0.1438
  450YOPC   C2B 5532   3.575   4.982   8.851 -0.0647 -0.0292  0.2112
  450YOPC   D3B 5533   3.300   4.701   8.621  0.1920  0.2580  0.0509
  450YOPC   C4B 5534   3.299   4.296   8.347  0.1365 -0.0363  0.0804
  451YOPC   NC3 5535   4.704  13.081  10.289  0.1308 -0.0793 -0.1103
  451YOPC   PO4 5536   4.824  12.649  10.262  0.1184  0.3294  0.2479
  451YOPC   GL1 5537   4.516  12.823   9.869 -0.1214  0.1683 -0.0982
  451YOPC   GL2 5538   4.771  12.929   9.778 -0.3540 -0.2821 -0.0456
  451YOPC   C1A 5539   4.219  12.885   9.540  0.1610  0.1607  0.0886
  451YOPC   D2A 5540   4.311  13.013   9.041 -0.0091 -0.0525 -0.1612
  451YOPC   C3A 5541   4.175  13.418   8.822 -0.1599 -0.3318  0.0293
  451YOPC   C4A 5542   4.256  13.471   8.363  0.0280 -0.3950  0.0547
  451YOPC   C1B 5543   4.734  13.083   9.407  0.0999  0.1535  0.1796
  451YOPC   C2B 5544   5.073  12.944   9.109  0.3206 -0.2555  0.0863
  451YOPC   D3B 5545   4.818  13.097   8.717  0.2144  0.0190 -0.0365
  451YOPC   C4B 5546   4.445  13.030   8.513  0.0892  0.0526 -0.0768
  452YOPC   NC3 5547   7.632  17.799  10.995  0.0318  0.0315 -0.0556
  452YOPC   PO4 5548   7.548  18.133  10.651 -0.1662  0.0922  0.0074
  452YOPC   GL1 5549   7.493  18.052  10.259 -0.2608  0.0886  0.0319
  452YOPC   GL2 5550   7.363  17.880  10.094  0.1923 -0.1548 -0.0927
  452YOPC   C1A 5551   7.682  18.195   9.891  0.0687 -0.1230 -0.2754
  452YOPC   D2A 5552   8.111  17.913   9.630  0.0866  0.0623  0.2571
  452YOPC   C3A 5553   8.348  18.323   9.486  0.0303 -0.0222 -0.1273
  452YOPC   C4A 5554   8.534  18.681   9.276  0.2104 -0.0548  0.2687
  452YOPC   C1B 5555   7.371  17.777   9.660  0.1524  0.4674 -0.0699
  452YOPC   C2B 5556   7.750  17.660   9.424  0.0527 -0.1715  0.1720
  452YOPC   D3B 5557   7.625  17.592   9.056  0.1460  0.3199  0.0678
  452YOPC   C4B 5558   7.696  17.332   8.646  0.2765 -0.1252  0.2818
  453YOPC   NC3 5559   1.419   0.268  10.795  0.0106  0.0637 -0.1290
  453YOPC   PO4 5560   1.565  -0.177  10.581  0.0364 -0.0931  0.1025
  453YOPC   GL1 5561   1.338   0.088  10.330  0.3178  0.0756 -0.1265
  453YOPC   GL2 5562   1.629   0.024  10.090  0.0085  0.1577 -0.2175
  453YOPC   C1A 5563   1.030   0.227  10.078  0.0119  0.2863 -0.0095
  453YOPC   D2A 5564   0.869   0.439   9.728 -0.4208  0.1308 -0.1825
  453YOPC   C3A 5565   1.129   0.563   9.379 -0.0906 -0.2194  0.2883
  453YOPC   C4A 5566   1.453   0.410   9.035 -0.0955  0.0559 -0.0415
  453YOPC   C1B 5567   1.365  -0.002   9.760 -0.2724  0.3403 -0.1808
  453YOPC   C2B 5568   1.085  -0.001   9.418 -0.0927  0.1785 -0.0718
  453YOPC   D3B 5569   1.099  -0.345   9.134 -0.0698  0.0879 -0.0677
  453YOPC   C4B 5570   1.005  -0.396   8.698 -0.3213  0.5093 -0.2088
  454YOPC   NC3 5571   8.835   2.408  11.019 -0.0833 -0.0708  0.1751
  454YOPC   PO4 5572   9.208   2.473  10.897  0.0572 -0.1271 -0.2743
  454YOPC   GL1 5573   9.448   2.539  10.465 -0.1651 -0.0388 -0.0979
  454YOPC   GL2 5574   9.114   2.661  10.244  0.0524 -0.0389  0.0448
  454YOPC   C1A 5575   9.768   2.580  10.128 -0.2392 -0.0974 -0.0733
  454YOPC   D2A 5576   9.793   2.564   9.662 -0.0615 -0.3221 -0.0269
  454YOPC   C3A 5577   9.665   2.806   9.345 -0.1834  0.3964  0.1271
  454YOPC   C4A 5578   9.432   2.632   8.943  0.2564  0.5136 -0.0018
  454YOPC   C1B 5579   8.854   2.946   9.959  0.0576  0.3326 -0.0035
  454YOPC   C2B 5580   8.845   3.104   9.597  0.0268  0.1745  0.1000
  454YOPC   D3B 5581   8.964   2.927   9.194  0.1872 -0.1517  0.1652
  454YOPC   C4B 5582   8.855   2.815   8.797  0.0159 -0.0829 -0.0301
  455YOPC   NC3 5583   7.442   7.048  10.441  0.0165  0.1030 -0.2443
  455YOPC   PO4 5584   7.198   7.319  10.539 -0.2454 -0.2457  0.1421
  455YOPC   GL1 5585   7.320   7.464  10.149 -0.1409  0.0558 -0.1666
  455YOPC   GL2 5586   7.347   7.748  10.171 -0.1280 -0.0135  0.3288
  455YOPC   C1A 5587   7.439   7.528   9.745  0.1536  0.1260  0.1856
  455YOPC   D2A 5588   7.658   7.743   9.362 -0.0836  0.1548 -0.2478
  455YOPC   C3A 5589   7.763   8.078   9.435 -0.1863  0.1881 -0.3627
  455YOPC   C4A 5590   7.805   8.302   9.790  0.3823 -0.4258 -0.2575
  455YOPC   C1B 5591   7.736   7.854  10.020 -0.1335 -0.0491 -0.1086
  455YOPC   C2B 5592   7.966   7.671   9.748 -0.1810 -0.0783  0.2317
  455YOPC   D3B 5593   7.931   7.263   9.673 -0.1076 -0.0279  0.0970
  455YOPC   C4B 5594   7.658   6.921   9.845  0.2415 -0.1588  0.0995
  456YOPC   NC3 5595   5.174   7.411  10.157  0.0513 -0.0324 -0.2017
  456YOPC   PO4 5596   4.952   7.046  10.269 -0.1182  0.2439  0.0076
  456YOPC   GL1 5597   5.081   7.030   9.857 -0.1364 -0.1934 -0.2107
  456YOPC   GL2 5598   5.153   7.312   9.664 -0.0520  0.2833  0.1568
  456YOPC   C1A 5599   5.056   6.832   9.481  0.0473 -0.2323  0.2832
  456YOPC   D2A 5600   5.171   6.571   9.092 -0.1347  0.1026 -0.3547
  456YOPC   C3A 5601   4.882   6.428   8.725 -0.1450 -0.0806 -0.0377
  456YOPC   C4A 5602   4.946   6.320   8.311 -0.2606  0.0303  0.2960
  456YOPC   C1B 5603   5.395   7.176   9.234  0.4517 -0.0600  0.0743
  456YOPC   C2B 5604   5.515   6.917   8.883 -0.1666  0.1541  0.0276
  456YOPC   D3B 5605   5.756   6.824   8.568  0.2471 -0.1030  0.2447
  456YOPC   C4B 5606   6.188   6.657   8.349 -0.3542 -0.0967  0.0802
  457YOPC   NC3 5607   1.215   8.730  10.554  0.0168 -0.1276  0.2518
  457YOPC   PO4 5608   1.456   8.942  10.170  0.0353 -0.1877 -0.0214
  457YOPC   GL1 5609   1.378   9.172   9.735  0.1516 -0.1136 -0.2023
  457YOPC   GL2 5610   1.087   9.343   9.636 -0.0517  0.5308  0.0128
  457YOPC   C1A 5611   1.560   9.201   9.393 -0.1853  0.0083 -0.1094
  457YOPC   D2A 5612   1.707   9.111   8.977  0.1546 -0.0782  0.1030
  457YOPC   C3A 5613   1.834   9.368   8.660  0.0726 -0.1024  0.2606
  457YOPC   C4A 5614   1.951   9.586   8.263  0.0768  0.1372  0.1175
  457YOPC   C1B 5615   1.186   9.443   9.240  0.1029  0.2923 -0.0701
  457YOPC   C2B 5616   1.409   9.623   8.925  0.1116  0.2891 -0.0596
  457YOPC   D3B 5617   1.394   9.482   8.392  0.3499  0.2217 -0.2514
  457YOPC   C4B 5618   1.123   9.159   8.223 -0.0506  0.0148 -0.1523
  458YOPC   NC3 5619   5.586  14.625  10.542 -0.2387 -0.1304  0.1454
  458YOPC   PO4 5620   5.425  14.163  10.307 -0.0212  0.0610 -0.1522
  458YOPC   GL1 5621   5.460  14.551   9.916  0.0954  0.1090 -0.3444
  458YOPC   GL2 5622   5.275  14.850   9.778  0.0028  0.2430  0.2261
  458YOPC   C1A 5623   5.504  14.553   9.434 -0.3009  0.3389  0.0865
  458YOPC   D2A 5624   5.907  14.534   9.251 -0.1478 -0.1465 -0.0830
  458YOPC   C3A 5625   6.066  14.776   8.956 -0.1736 -0.2329  0.0560
  458YOPC   C4A 5626   6.292  15.014   8.588  0.0482  0.2655  0.0652
  458YOPC   C1B 5627   5.290  14.983   9.381  0.0997  0.1323 -0.3797
  458YOPC   C2B 5628   5.562  14.909   9.036  0.1536  0.2045 -0.2239
  458YOPC   D3B 5629   5.559  14.643   8.696  0.4074 -0.3012 -0.3790
  458YOPC   C4B 5630   5.376  14.320   8.547 -0.0951 -0.0892  0.2281
  459YOPC   NC3 5631   7.940   9.092  10.402  0.2880  0.1230 -0.0026
  459YOPC   PO4 5632   7.928   8.647  10.546 -0.2011  0.1731 -0.2937
  459YOPC   GL1 5633   7.698   8.758  10.132 -0.0909 -0.0206  0.3326
  459YOPC   GL2 5634   7.593   9.016  10.006  0.0881  0.0924  0.2935
  459YOPC   C1A 5635   7.376   8.637   9.812  0.0107  0.0784 -0.1110
  459YOPC   D2A 5636   7.519   8.539   9.280  0.0398  0.1884 -0.1898
  459YOPC   C3A 5637   7.595   8.568   8.846  0.3638 -0.0109  0.0279
  459YOPC   C4A 5638   7.855   8.519   8.551  0.1873 -0.1260  0.0834
  459YOPC   C1B 5639   7.634   8.942   9.543 -0.1606  0.1755 -0.0381
  459YOPC   C2B 5640   7.999   8.637   9.323  0.1262  0.1311  0.0331
  459YOPC   D3B 5641   7.940   8.271   9.034 -0.2027  0.2035 -0.0083
  459YOPC   C4B 5642   8.084   7.930   9.005 -0.3394  0.1303 -0.0202
  460YOPC   NC3 5643  10.697  12.155  10.555 -0.2449 -0.1415  0.1319
  460YOPC   PO4 5644  11.073  12.108  10.665 -0.4046  0.1359 -0.1374
  460YOPC   GL1 5645  11.048  12.317  10.249  0.0816  0.1664 -0.1047
  460YOPC   GL2 5646  10.707  12.361  10.109  0.2356  0.2347  0.2002
  460YOPC   C1A 5647  11.231  12.318   9.888 -0.0970 -0.0387  0.0756
  460YOPC   D2A 5648  11.014  12.447   9.534 -0.3500 -0.0495  0.0504
  460YOPC   C3A 5649  11.044  12.822   9.203  0.1857 -0.2567 -0.2174
  460YOPC   C4A 5650  10.835  13.028   8.833  0.1941  0.0647  0.2302
  460YOPC   C1B 5651  10.548  12.503   9.749  0.1091  0.0281  0.0801
  460YOPC   C2B 5652  10.183  12.683   9.500  0.1986  0.0247 -0.2397
  460YOPC   D3B 5653  10.151  12.916   9.201 -0.0876 -0.0255 -0.3365
  460YOPC   C4B 5654  10.360  13.327   8.990 -0.1201 -0.1403 -0.0440
  461YOPC   NC3 5655  17.225  13.953  11.035 -0.0463  0.0295 -0.1646
  461YOPC   PO4 5656  17.399  14.039  10.540 -0.0638 -0.0071  0.1670
  461YOPC   GL1 5657  17.685  14.091  10.221 -0.0082  0.2473 -0.0428
  461YOPC   GL2 5658  18.012  13.966  10.266  0.1149 -0.0701 -0.4144
  461YOPC   C1A 5659  17.760  14.262   9.781  0.1341 -0.0935 -0.0320
  461YOPC   D2A 5660  17.839  14.319   9.311 -0.1024  0.0256  0.0148
  461YOPC   C3A 5661  17.827  14.213   8.904 -0.2065  0.6100 -0.1546
  461YOPC   C4A 5662  18.166  14.105   8.619  0.2718 -0.3163 -0.1913
  461YOPC   C1B 5663  17.889  13.773   9.881 -0.2529 -0.0225  0.0162
  461YOPC   C2B 5664  18.015  13.904   9.465  0.3095  0.0802 -0.0783
  461YOPC   D3B 5665  18.417  13.716   9.195 -0.0067  0.0320 -0.1286
  461YOPC   C4B 5666  18.388  13.671   8.698  0.1082 -0.0597 -0.0876
  462YOPC   NC3 5667  11.547   7.101   9.925  0.1628  0.0046 -0.3087
  462YOPC   PO4 5668  11.263   6.819   9.980 -0.0459  0.2371 -0.1590
  462YOPC   GL1 5669  11.433   6.762   9.551 -0.0487 -0.1993  0.0618
  462YOPC   GL2 5670  11.243   6.600   9.268  0.3104  0.1221  0.0853
  462YOPC   C1A 5671  11.634   7.001   9.279  0.0590  0.0041  0.0885
  462YOPC   D2A 5672  11.817   7.185   8.973 -0.0258 -0.0607 -0.0093
  462YOPC   C3A 5673  11.617   7.025   8.598  0.0055 -0.1351 -0.4100
  462YOPC   C4A 5674  11.705   7.032   8.152  0.0470  0.0055  0.1579
  462YOPC   C1B 5675  11.514   6.651   8.937  0.1179  0.4965 -0.0136
  462YOPC   C2B 5676  11.863   6.540   8.655 -0.0183 -0.2926  0.1020
  462YOPC   D3B 5677  12.216   6.803   8.613 -0.0296 -0.2446 -0.5130
  462YOPC   C4B 5678  12.573   7.075   8.450  0.2019 -0.4356  0.0667
  463YOPC   NC3 5679  18.043  11.586  10.444  0.0428  0.0605 -0.2718
  463YOPC   PO4 5680  18.502  11.361  10.345  0.0627  0.0091 -0.2217
  463YOPC   GL1 5681  18.729  11.421   9.925 -0.2241 -0.1858 -0.0070
  463YOPC   GL2 5682  18.892  11.626   9.835 -0.0858 -0.0696 -0.4336
  463YOPC   C1A 5683  18.818  11.219   9.558 -0.1122 -0.1952  0.2116
  463YOPC   D2A 5684  18.902  10.864   9.672 -0.2065  0.1592 -0.0096
  463YOPC   C3A 5685  18.716  10.682   9.334 -0.2202 -0.0175 -0.1592
  463YOPC   C4A 5686  18.286  10.477   9.462  0.0417 -0.1347  0.1725
  463YOPC   C1B 5687  18.851  11.761   9.482 -0.0988  0.0982  0.2163
  463YOPC   C2B 5688  18.767  11.555   9.189  0.1777  0.0509  0.1803
  463YOPC   D3B 5689  18.942  11.407   8.907  0.0340 -0.0097 -0.1252
  463YOPC   C4B 5690  18.802  10.920   8.859 -0.0735  0.3337  0.1092
  464YOPC   NC3 5691   3.198   7.198  10.067 -0.1587  0.0568 -0.0267
  464YOPC   PO4 5692   3.614   6.905   9.935  0.0070 -0.1962 -0.0210
  464YOPC   GL1 5693   3.899   6.731   9.627 -0.1798 -0.0134 -0.0247
  464YOPC   GL2 5694   4.084   6.734   9.625  0.1189  0.1856 -0.0725
  464YOPC   C1A 5695   3.801   6.668   9.227 -0.1025 -0.2268 -0.2011
  464YOPC   D2A 5696   3.507   6.831   9.039  0.0341  0.1892  0.1038
  464YOPC   C3A 5697   3.505   6.965   8.665 -0.5203  0.1030  0.3128
  464YOPC   C4A 5698   3.493   7.099   8.294  0.3448 -0.4446  0.0583
  464YOPC   C1B 5699   4.181   6.949   9.174 -0.0078  0.0806 -0.1196
  464YOPC   C2B 5700   3.958   6.815   8.803 -0.2183  0.0335  0.0928
  464YOPC   D3B 5701   4.057   6.958   8.463  0.3977  0.0422  0.1720
  464YOPC   C4B 5702   3.950   7.069   8.101 -0.3362 -0.0340 -0.2063
  465YOPC   NC3 5703  12.955   9.643   9.924  0.1254 -0.0378 -0.2530
  465YOPC   PO4 5704  13.288   9.389   9.952 -0.1473 -0.1805  0.1397
  465YOPC   GL1 5705  13.337   9.481   9.620 -0.0746  0.0277  0.1407
  465YOPC   GL2 5706  13.405   9.197   9.392 -0.1434  0.1010 -0.1351
  465YOPC   C1A 5707  13.208   9.685   9.203 -0.0851  0.1817  0.0409
  465YOPC   D2A 5708  13.303   9.574   8.766  0.2171 -0.3557 -0.0085
  465YOPC   C3A 5709  13.224   9.739   8.486 -0.0264 -0.0691  0.1560
  465YOPC   C4A 5710  13.215   9.881   8.026 -0.1745  0.0314 -0.0246
  465YOPC   C1B 5711  13.239   9.208   9.069  0.0402  0.0999 -0.2029
  465YOPC   C2B 5712  13.211   9.155   8.574  0.1379  0.0719 -0.2336
  465YOPC   D3B 5713  13.449   9.273   8.232  0.1328  0.1675 -0.1528
  465YOPC   C4B 5714  13.773   9.240   7.792  0.0321 -0.0238 -0.0363
  466YOPC   NC3 5715  15.616   4.795   9.980 -0.1699  0.2539 -0.1221
  466YOPC   PO4 5716  15.290   4.857   9.835  0.0155  0.3496 -0.2331
  466YOPC   GL1 5717  15.363   4.931   9.416 -0.0313  0.4260  0.3309
  466YOPC   GL2 5718  15.248   5.241   9.478 -0.0541  0.0456  0.5748
  466YOPC   C1A 5719  15.331   5.037   8.948  0.0410  0.0364 -0.0092
  466YOPC   D2A 5720  15.134   5.349   8.745  0.1551  0.1200  0.1760
  466YOPC   C3A 5721  15.294   5.286   8.288 -0.0750  0.3319 -0.1276
  466YOPC   C4A 5722  15.186   5.431   7.867  0.2168 -0.0474  0.1462
  466YOPC   C1B 5723  15.097   5.466   9.277  0.2422  0.0299 -0.0550
  466YOPC   C2B 5724  14.795   5.665   9.046 -0.1633 -0.1059  0.1319
  466YOPC   D3B 5725  14.518   5.562   8.610 -0.5143  0.2702  0.2435
  466YOPC   C4B 5726  14.194   5.137   8.476 -0.1785 -0.2358  0.0856
  467YOPC   NC3 5727   2.292   1.608  10.830 -0.3995 -0.3254 -0.1150
  467YOPC   PO4 5728   2.468   1.749  10.481  0.1187  0.0185 -0.0187
  467YOPC   GL1 5729   2.373   1.625  10.058  0.2962  0.1899 -0.0384
  467YOPC   GL2 5730   2.305   1.928   9.986  0.2047  0.3244 -0.3525
  467YOPC   C1A 5731   2.589   1.448   9.672  0.3638  0.1292  0.0275
  467YOPC   D2A 5732   2.700   1.409   9.277  0.1214  0.3416 -0.1309
  467YOPC   C3A 5733   2.775   1.144   8.860 -0.0345  0.0651  0.0327
  467YOPC   C4A 5734   2.959   1.237   8.464 -0.0247 -0.1028  0.1441
  467YOPC   C1B 5735   2.371   1.934   9.563 -0.0053 -0.1022  0.2578
  467YOPC   C2B 5736   2.284   1.979   9.161 -0.1175  0.1803 -0.1314
  467YOPC   D3B 5737   2.570   2.119   8.736  0.0624  0.0924 -0.0755
  467YOPC   C4B 5738   2.648   2.475   8.630 -0.0711  0.1703  0.4077
  468YOPC   NC3 5739   7.427   6.089  10.226 -0.0414 -0.1463  0.2062
  468YOPC   PO4 5740   7.058   5.920  10.232  0.1195  0.0844  0.0922
  468YOPC   GL1 5741   6.861   6.234  10.026 -0.0393 -0.0520  0.2460
  468YOPC   GL2 5742   7.181   6.160   9.800 -0.2208 -0.0060 -0.0611
  468YOPC   C1A 5743   6.625   6.146   9.641  0.3853 -0.1918 -0.3328
  468YOPC   D2A 5744   6.581   6.286   9.265 -0.2160 -0.0310 -0.1487
  468YOPC   C3A 5745   6.446   6.299   8.801  0.2626 -0.0216  0.0083
  468YOPC   C4A 5746   6.383   6.234   8.455 -0.0006 -0.1915  0.1170
  468YOPC   C1B 5747   7.520   5.951   9.515 -0.1571 -0.0004  0.0918
  468YOPC   C2B 5748   7.569   6.064   9.061 -0.1554  0.1360 -0.1980
  468YOPC   D3B 5749   7.801   6.151   8.783 -0.3858 -0.0679  0.3333
  468YOPC   C4B 5750   7.786   6.043   8.401  0.1425  0.0279 -0.2280
  469YOPC   NC3 5751   4.962  11.984  10.294 -0.0101  0.1648  0.2277
  469YOPC   PO4 5752   5.340  11.742  10.218 -0.2079  0.1328 -0.0300
  469YOPC   GL1 5753   5.347  11.907   9.877  0.0799 -0.1625 -0.0133
  469YOPC   GL2 5754   5.034  11.974   9.808 -0.0474 -0.0071  0.0699
  469YOPC   C1A 5755   5.334  12.085   9.441 -0.2714 -0.0638  0.1507
  469YOPC   D2A 5756   5.260  12.054   9.061  0.2254 -0.0572 -0.1180
  469YOPC   C3A 5757   4.966  12.378   8.941  0.1351  0.3295  0.1015
  469YOPC   C4A 5758   4.646  12.686   8.862 -0.0264  0.3058 -0.0215
  469YOPC   C1B 5759   5.041  11.690   9.410  0.1829  0.2014 -0.3505
  469YOPC   C2B 5760   5.007  11.584   8.999 -0.1335 -0.0291 -0.1063
  469YOPC   D3B 5761   4.663  11.626   8.685 -0.0212  0.0466  0.1012
  469YOPC   C4B 5762   4.624  11.454   8.215 -0.0662 -0.0394 -0.0246
  470ERGO   ROH 5763   7.356   0.431  10.235 -0.2659  0.0621 -0.0040
  470ERGO    R1 5764   7.451   0.372   9.975 -0.2741  0.0101  0.0065
  470ERGO    R2 5765   7.297   0.411   9.749 -0.2071  0.1539 -0.0057
  470ERGO    R3 5766   7.511   0.558   9.667 -0.0756 -0.0122  0.0280
  470ERGO    R4 5767   7.348   0.520   9.425 -0.2321  0.3544  0.0554
  470ERGO    R5 5768   7.560   0.473   9.448 -0.2636  0.0993 -0.0664
  470ERGO    C1 5769   7.578   0.722   9.159 -0.1232  0.3153  0.1225
  470ERGO    C2 5770   7.692   0.686   8.763  0.0894  0.1483  0.0422
  471ERGO   ROH 5771   8.857   8.928   6.669 -0.1153  0.1292 -0.0881
  471ERGO    R1 5772   8.711   8.900   6.910 -0.0184  0.2862 -0.0094
  471ERGO    R2 5773   8.763   8.699   7.093 -0.1595  0.2055 -0.0588
  471ERGO    R3 5774   8.785   8.908   7.266  0.1894  0.1666 -0.0471
  471ERGO    R4 5775   8.743   8.673   7.437 -0.0925  0.2015 -0.0550
  471ERGO    R5 5776   8.627   8.857   7.439  0.1655  0.3722 -0.0036
  471ERGO    C1 5777   8.752   8.853   7.800  0.2741  0.1625 -0.0418
  471ERGO    C2 5778   8.865   9.029   8.118 -0.2330  0.0001 -0.1712
  472ERGO   ROH 5779  14.840   9.999   9.422  0.0830  0.0374  0.0188
  472ERGO    R1 5780  14.957  10.162   9.222  0.1922  0.0075  0.0575
  472ERGO    R2 5781  15.188  10.090   9.088  0.1252 -0.1336  0.0138
  472ERGO    R3 5782  15.034  10.131   8.868  0.1341  0.0539  0.0411
  472ERGO    R4 5783  15.299  10.067   8.762  0.0509 -0.2137 -0.0062
  472ERGO    R5 5784  15.179  10.242   8.713  0.2276 -0.0810  0.0322
  472ERGO    C1 5785  15.220  10.091   8.365  0.0161 -0.0844  0.0079
  472ERGO    C2 5786  15.288  10.093   8.017  0.1480 -0.0987  0.2200
  473ERGO   ROH 5787   0.143   0.370   9.869 -0.1854  0.0047 -0.0088
  473ERGO    R1 5788   0.221   0.302   9.606 -0.1422  0.0605 -0.0089
  473ERGO    R2 5789   0.414   0.442   9.467 -0.0162 -0.0068  0.1136
  473ERGO    R3 5790   0.526   0.196   9.439 -0.1536 -0.0646  0.0429
  473ERGO    R4 5791   0.629   0.352   9.212 -0.0772 -0.0420  0.0726
  473ERGO    R5 5792   0.528   0.159   9.202 -0.1903  0.0073  0.0237
  473ERGO    C1 5793   0.861   0.069   9.037 -0.2417 -0.1168 -0.0176
  473ERGO    C2 5794   1.164   0.062   8.914 -0.0553  0.4100  0.3790
  474ERGO   ROH 5795  18.223  13.465   7.129 -0.2233 -0.0430  0.1134
  474ERGO    R1 5796  18.250  13.566   7.393 -0.0869  0.0442  0.0684
  474ERGO    R2 5797  18.100  13.469   7.604 -0.0199  0.1519  0.1703
  474ERGO    R3 5798  18.345  13.433   7.718  0.0219  0.1351  0.0738
  474ERGO    R4 5799  18.159  13.446   7.944  0.0816 -0.1006  0.1370
  474ERGO    R5 5800  18.338  13.567   7.917  0.0364 -0.0248  0.1820
  474ERGO    C1 5801  18.422  13.399   8.249  0.1799 -0.2633  0.0270
  474ERGO    C2 5802  18.561  13.180   8.464 -0.1684 -0.0500 -0.1789
  475ERGO   ROH 5803  15.838   1.856   9.487 -0.0851  0.3211  0.1887
  475ERGO    R1 5804  15.775   1.778   9.222  0.0746  0.0892  0.2161
  475ERGO    R2 5805  15.558   1.880   9.085  0.0174 -0.2117  0.0817
  475ERGO    R3 5806  15.746   1.941   8.898  0.0141 -0.1460  0.0993
  475ERGO    R4 5807  15.489   1.986   8.764 -0.0043 -0.3437  0.0422
  475ERGO    R5 5808  15.652   1.861   8.692  0.0922 -0.2652  0.1043
  475ERGO    C1 5809  15.624   2.106   8.401 -0.0201 -0.3588  0.0358
  475ERGO    C2 5810  15.455   2.235   8.090  0.1780  0.0921  0.1196
  476ERGO   ROH 5811   6.290  17.081   6.868 -0.0343 -0.3119  0.1180
  476ERGO    R1 5812   6.304  17.151   7.142  0.1284 -0.1348  0.0673
  476ERGO    R2 5813   6.394  17.397   7.229  0.1415 -0.0583 -0.1452
  476ERGO    R3 5814   6.156  17.403   7.359  0.2203 -0.0229 -0.0014
  476ERGO    R4 5815   6.326  17.592   7.506  0.3004  0.0037 -0.1489
  476ERGO    R5 5816   6.216  17.424   7.591  0.3515  0.0307 -0.0440
  476ERGO    C1 5817   6.063  17.711   7.790  0.4670  0.0732 -0.0161
  476ERGO    C2 5818   6.109  17.877   8.197 -0.2382  0.4865 -0.1115
  477ERGO   ROH 5819   9.565  16.946   9.980 -0.1228  0.0127  0.0080
  477ERGO    R1 5820   9.580  16.922   9.698 -0.0859  0.0215  0.0088
  477ERGO    R2 5821   9.616  17.141   9.532 -0.1576  0.0389  0.0135
  477ERGO    R3 5822   9.826  16.995   9.439 -0.0893  0.1238  0.0343
  477ERGO    R4 5823   9.730  17.145   9.206 -0.2367 -0.0470 -0.0155
  477ERGO    R5 5824   9.759  16.930   9.218 -0.1006 -0.0233  0.0810
  477ERGO    C1 5825   9.994  17.012   8.929 -0.2186 -0.0171 -0.0131
  477ERGO    C2 5826  10.229  16.838   8.759 -0.0500  0.0089  0.1090
  478ERGO   ROH 5827   2.083  17.346  10.062  0.2049  0.0156 -0.0480
  478ERGO    R1 5828   2.057  17.522   9.842  0.3269  0.0252 -0.0556
  478ERGO    R2 5829   2.071  17.436   9.580  0.1739 -0.0128 -0.0518
  478ERGO    R3 5830   1.830  17.560   9.560  0.2918  0.2303 -0.0019
  478ERGO    R4 5831   1.920  17.524   9.283 -0.0522 -0.3867 -0.0547
  478ERGO    R5 5832   1.857  17.711   9.376  0.2704 -0.1324 -0.3179
  478ERGO    C1 5833   1.606  17.693   9.090 -0.0731 -0.3761 -0.0096
  478ERGO    C2 5834   1.499  17.879   8.834  0.0454 -0.0883  0.0193
  479ERGO   ROH 5835  16.487  13.820   6.713  0.3219  0.0361 -0.2090
  479ERGO    R1 5836  16.673  13.908   6.908  0.0921 -0.1429  0.0988
  479ERGO    R2 5837  16.691  14.172   6.989  0.2736 -0.1429  0.0517
  479ERGO    R3 5838  16.658  14.065   7.236 -0.2969 -0.0373  0.0366
  479ERGO    R4 5839  16.795  14.319   7.283  0.1844 -0.3043  0.1669
  479ERGO    R5 5840  16.858  14.123   7.354 -0.3210 -0.4370  0.3006
  479ERGO    C1 5841  16.825  14.305   7.687 -0.4031 -0.2992  0.2198
  479ERGO    C2 5842  16.792  14.578   7.981 -0.1076  0.1297 -0.2205
  480ERGO   ROH 5843   5.488   1.996  10.141  0.0680 -0.2890 -0.1229
  480ERGO    R1 5844   5.352   2.071   9.905 -0.0095 -0.1375 -0.0327
  480ERGO    R2 5845   5.377   1.930   9.668  0.0134  0.0849 -0.1673
  480ERGO    R3 5846   5.105   1.922   9.683  0.0201 -0.0535 -0.1230
  480ERGO    R4 5847   5.165   1.916   9.395 -0.0247  0.1049 -0.1381
  480ERGO    R5 5848   5.032   2.055   9.498 -0.0757 -0.0051 -0.0513
  480ERGO    C1 5849   4.787   1.899   9.250 -0.0406 -0.0133 -0.0794
  480ERGO    C2 5850   4.665   1.828   8.883 -0.1921 -0.0036 -0.2805
  481ERGO   ROH 5851  18.091  12.626   7.105  0.0766  0.0491 -0.0100
  481ERGO    R1 5852  18.051  12.678   7.381  0.1583 -0.0415  0.0190
  481ERGO    R2 5853  17.849  12.558   7.527  0.0504  0.0929 -0.0198
  481ERGO    R3 5854  18.054  12.484   7.689 -0.0050 -0.1949 -0.0733
  481ERGO    R4 5855  17.813  12.401   7.833 -0.0722 -0.1073 -0.1340
  481ERGO    R5 5856  17.973  12.526   7.910  0.0314 -0.2930 -0.0407
  481ERGO    C1 5857  17.985  12.241   8.163 -0.1960 -0.4942 -0.2508
  481ERGO    C2 5858  18.113  12.013   8.510 -0.1152 -0.1457 -0.0812
  482ERGO   ROH 5859  10.255  11.745   6.803  0.0145  0.2562  0.0763
  482ERGO    R1 5860  10.310  11.646   7.063  0.0612  0.1417  0.0226
  482ERGO    R2 5861  10.378  11.811   7.274  0.0273  0.0540  0.0979
  482ERGO    R3 5862  10.170  11.686   7.396  0.0740 -0.0685  0.0558
  482ERGO    R4 5863  10.324  11.807   7.615 -0.1238  0.1654  0.0774
  482ERGO    R5 5864  10.265  11.598   7.598  0.0610  0.1020  0.1417
  482ERGO    C1 5865  10.098  11.687   7.929 -0.1680  0.1152  0.0259
  482ERGO    C2 5866  10.089  11.813   8.213  0.1543  0.2479  0.2074
  483ERGO   ROH 5867  10.833  14.780   6.918 -0.0675 -0.0344  0.0249
  483ERGO    R1 5868  10.656  14.689   7.118  0.0097 -0.2238  0.0105
  483ERGO    R2 5869  10.711  14.470   7.277  0.2663 -0.1200  0.0731
  483ERGO    R3 5870  10.664  14.646   7.479 -0.0038 -0.1317  0.0222
  483ERGO    R4 5871  10.661  14.381   7.608  0.1734 -0.1229  0.0570
  483ERGO    R5 5872  10.505  14.534   7.619  0.0237 -0.2624 -0.0478
  483ERGO    C1 5873  10.588  14.495   7.990 -0.1342 -0.1356 -0.0001
  483ERGO    C2 5874  10.812  14.438   8.231 -0.2087  0.3257 -0.1896
  484ERGO   ROH 5875  15.662   5.458   9.347 -0.0737 -0.1188 -0.0086
  484ERGO    R1 5876  15.608   5.440   9.070 -0.0871 -0.0709 -0.0095
  484ERGO    R2 5877  15.501   5.651   8.925 -0.1025 -0.0471  0.0323
  484ERGO    R3 5878  15.719   5.610   8.767 -0.1077 -0.0117  0.0167
  484ERGO    R4 5879  15.499   5.658   8.580 -0.1411 -0.1270  0.0309
  484ERGO    R5 5880  15.634   5.487   8.580 -0.0865 -0.0812  0.0543
  484ERGO    C1 5881  15.702   5.625   8.230 -0.1684 -0.1403  0.0153
  484ERGO    C2 5882  15.605   5.690   7.870  0.2713  0.1387  0.0280
  485ERGO   ROH 5883   6.603   9.901   7.250  0.2281  0.0915 -0.0901
  485ERGO    R1 5884   6.583   9.963   7.526 -0.0114 -0.0804 -0.0645
  485ERGO    R2 5885   6.683  10.197   7.634  0.1697 -0.2763  0.2185
  485ERGO    R3 5886   6.429  10.223   7.729  0.0858 -0.0243 -0.0637
  485ERGO    R4 5887   6.596  10.363   7.924  0.0344 -0.3557  0.2231
  485ERGO    R5 5888   6.452  10.205   7.966 -0.2148 -0.2062 -0.0449
  485ERGO    C1 5889   6.308  10.484   8.182 -0.1233 -0.1653 -0.0392
  485ERGO    C2 5890   6.324  10.564   8.523  0.0069  0.0684 -0.5252
  486ERGO   ROH 5891  14.460   1.750   9.785  0.0406 -0.0624  0.0888
  486ERGO    R1 5892  14.298   1.615   9.596  0.0561 -0.1132  0.1116
  486ERGO    R2 5893  14.265   1.706   9.337 -0.0936 -0.0644  0.1467
  486ERGO    R3 5894  14.347   1.455   9.273  0.0406  0.0028  0.0514
  486ERGO    R4 5895  14.245   1.565   9.022 -0.0753  0.0215  0.1069
  486ERGO    R5 5896  14.186   1.378   9.115  0.0535 -0.0426  0.0610
  486ERGO    C1 5897  14.311   1.247   8.779  0.0614  0.1345 -0.0058
  486ERGO    C2 5898  14.270   1.233   8.405  0.1644 -0.4011 -0.0018
  487ERGO   ROH 5899   5.515   0.115   9.514 -0.1283 -0.1236  0.0292
  487ERGO    R1 5900   5.547   0.132   9.233  0.1033 -0.2710  0.0435
  487ERGO    R2 5901   5.620  -0.085   9.079  0.0213 -0.4093  0.1888
  487ERGO    R3 5902   5.395  -0.022   8.940  0.1822 -0.2535 -0.0049
  487ERGO    R4 5903   5.502  -0.260   8.804 -0.0029 -0.4737  0.2409
  487ERGO    R5 5904   5.451  -0.069   8.712  0.2752 -0.4848  0.0663
  487ERGO    C1 5905   5.222  -0.301   8.515  0.1340 -0.3650  0.0893
  487ERGO    C2 5906   5.156  -0.498   8.319  0.0420 -0.0085 -0.1520
  488ERGO   ROH 5907   1.473  12.256   7.019 -0.3048 -0.0499  0.0684
  488ERGO    R1 5908   1.368  12.312   7.276 -0.0116  0.1353  0.1517
  488ERGO    R2 5909   1.327  12.115   7.466 -0.3029  0.1867  0.1434
  488ERGO    R3 5910   1.481  12.277   7.621  0.1573 -0.1623  0.0704
  488ERGO    R4 5911   1.276  12.172   7.803 -0.2021  0.5331  0.1039
  488ERGO    R5 5912   1.326  12.382   7.770  0.4241  0.3887 -0.0130
  488ERGO    C1 5913   1.391  12.357   8.144  0.2887  0.4071  0.0124
  488ERGO    C2 5914   1.443  12.399   8.465 -0.1669 -0.2180  0.0700
  489ERGO   ROH 5915   3.941   7.475   7.792  0.0973 -0.1800 -0.1000
  489ERGO    R1 5916   4.167   7.646   7.777  0.1186 -0.1976  0.0165
  489ERGO    R2 5917   4.145   7.921   7.778  0.1261 -0.1942 -0.1696
  489ERGO    R3 5918   4.318   7.902   7.987 -0.0765 -0.0780  0.0130
  489ERGO    R4 5919   4.357   8.174   7.883  0.1797 -0.2100 -0.2393
  489ERGO    R5 5920   4.512   8.023   7.915  0.0631 -0.2696  0.0626
  489ERGO    C1 5921   4.643   8.302   8.139  0.0207 -0.1102 -0.1084
  489ERGO    C2 5922   4.651   8.531   8.288  0.1123  0.1214  0.0379
  490ERGO   ROH 5923  12.681  11.790   6.518  0.0254  0.0509 -0.0218
  490ERGO    R1 5924  12.660  11.624   6.746 -0.0112  0.0895  0.0013
  490ERGO    R2 5925  12.862  11.601   6.934  0.0270 -0.0154 -0.0620
  490ERGO    R3 5926  12.664  11.669   7.107  0.1226  0.1223 -0.0020
  490ERGO    R4 5927  12.890  11.595   7.278  0.2247  0.2338 -0.0691
  490ERGO    R5 5928  12.688  11.515   7.288  0.2188  0.2468  0.1005
  490ERGO    C1 5929  12.721  11.654   7.642  0.4295  0.5082 -0.0170
  490ERGO    C2 5930  12.448  11.564   7.944 -0.0935  0.1120 -0.1646
  491ERGO   ROH 5931   8.921   7.201   9.918  0.1712  0.3418 -0.0363
  491ERGO    R1 5932   8.771   7.041   9.738  0.2100  0.1881  0.0660
  491ERGO    R2 5933   8.564   7.143   9.587  0.0352 -0.0098  0.1653
  491ERGO    R3 5934   8.705   7.036   9.380  0.0175  0.0882  0.1021
  491ERGO    R4 5935   8.433   7.071   9.275 -0.0955 -0.2623  0.2754
  491ERGO    R5 5936   8.551   6.887   9.274  0.1173 -0.1263  0.2551
  491ERGO    C1 5937   8.490   6.929   8.900 -0.1885 -0.3173  0.2802
  491ERGO    C2 5938   8.346   6.868   8.623 -0.1162  0.0009 -0.1721
  492ERGO   ROH 5939   0.340   1.249   6.640  0.0764  0.0508  0.0646
  492ERGO    R1 5940   0.322   1.335   6.909  0.0583 -0.2583  0.1652
  492ERGO    R2 5941   0.135   1.520   6.994  0.4332  0.0925  0.2326
  492ERGO    R3 5942   0.072   1.326   7.173 -0.2035 -0.0013 -0.0621
  492ERGO    R4 5943  -0.033   1.575   7.291  0.5802  0.2164  0.2944
  492ERGO    R5 5944   0.102   1.432   7.387  0.1388 -0.3877  0.1051
  492ERGO    C1 5945  -0.189   1.425   7.633  0.0680  0.2004  0.0537
  492ERGO    C2 5946  -0.301   1.360   7.931  0.1661  0.1978 -0.1255
  493ERGO   ROH 5947   3.372  11.535   7.117  0.1177  0.1516  0.0239
  493ERGO    R1 5948   3.198  11.396   7.291  0.0587  0.1588 -0.0273
  493ERGO    R2 5949   3.131  11.130   7.253  0.0780  0.1523 -0.0439
  493ERGO    R3 5950   3.220  11.105   7.509 -0.0030  0.1691 -0.0044
  493ERGO    R4 5951   3.040  10.877   7.470  0.0540  0.1347 -0.0751
  493ERGO    R5 5952   3.030  11.024   7.630 -0.0326  0.1339 -0.0709
  493ERGO    C1 5953   3.071  10.705   7.836 -0.0360  0.1403 -0.0562
  493ERGO    C2 5954   3.133  10.597   8.279 -0.1210 -0.4318  0.1902
  494ERGO   ROH 5955   8.061  17.191   9.851  0.0093  0.0881 -0.0779
  494ERGO    R1 5956   8.004  17.287   9.591 -0.0484 -0.2530 -0.1983
  494ERGO    R2 5957   8.182  17.443   9.448 -0.2720 -0.0198 -0.2397
  494ERGO    R3 5958   8.147  17.251   9.258  0.2067 -0.2724 -0.0871
  494ERGO    R4 5959   8.284  17.470   9.119 -0.3806 -0.0125 -0.2725
  494ERGO    R5 5960   8.098  17.374   9.058 -0.1432 -0.5548 -0.1808
  494ERGO    C1 5961   8.312  17.306   8.749  0.0055 -0.2451 -0.1485
  494ERGO    C2 5962   8.535  17.069   8.474  0.2297 -0.4949  0.2719
  495ERGO   ROH 5963  12.625   9.988   9.208  0.0288 -0.1845 -0.1833
  495ERGO    R1 5964  12.764  10.147   9.019 -0.0663  0.0280 -0.0784
  495ERGO    R2 5965  12.886  10.039   8.795  0.1251  0.2312 -0.0766
  495ERGO    R3 5966  12.733  10.222   8.664 -0.0205  0.1228 -0.0626
  495ERGO    R4 5967  12.961  10.175   8.486 -0.0416  0.2326 -0.1175
  495ERGO    R5 5968  12.891  10.368   8.559 -0.1361  0.2025 -0.1275
  495ERGO    C1 5969  12.861  10.425   8.183 -0.2754  0.1315 -0.1281
  495ERGO    C2 5970  12.974  10.553   7.885 -0.2528 -0.2850  0.1166
  496ERGO   ROH 5971   6.172  10.799   6.399  0.0853 -0.1621  0.1188
  496ERGO    R1 5972   6.312  10.875   6.633  0.0949 -0.1921  0.1223
  496ERGO    R2 5973   6.247  11.101   6.778  0.2154 -0.1131  0.0518
  496ERGO    R3 5974   6.232  10.925   6.984  0.0674 -0.0503  0.0968
  496ERGO    R4 5975   6.247  11.189   7.112  0.3298 -0.0307  0.0312
  496ERGO    R5 5976   6.376  11.017   7.151  0.1725 -0.1454  0.0605
  496ERGO    C1 5977   6.234  11.074   7.500  0.2573  0.0763  0.0615
  496ERGO    C2 5978   6.031  11.162   7.763 -0.3756 -0.1139  0.1258
  497ERGO   ROH 5979  12.250  12.685  10.153  0.0194  0.0727 -0.1607
  497ERGO    R1 5980  12.255  12.589   9.887  0.1268  0.1626 -0.1917
  497ERGO    R2 5981  12.036  12.473   9.765  0.2653 -0.0878 -0.2122
  497ERGO    R3 5982  12.082  12.662   9.576  0.0075  0.0360 -0.1554
  497ERGO    R4 5983  11.863  12.500   9.468 -0.0283  0.0081 -0.0370
  497ERGO    R5 5984  12.051  12.547   9.368 -0.1410  0.1390 -0.1908
  497ERGO    C1 5985  11.805  12.694   9.116 -0.4413  0.1801  0.1183
  497ERGO    C2 5986  11.776  12.774   8.779  0.1457 -0.0803  0.2542
  498ERGO   ROH 5987  17.805   8.478   9.362 -0.0593 -0.0434 -0.0840
  498ERGO    R1 5988  17.704   8.491   9.098 -0.0328  0.1419 -0.0875
  498ERGO    R2 5989  17.771   8.694   8.923  0.1783  0.1379 -0.0208
  498ERGO    R3 5990  17.843   8.487   8.762 -0.0137  0.1151 -0.0781
  498ERGO    R4 5991  17.756   8.698   8.578  0.1531  0.2295 -0.0180
  498ERGO    R5 5992  17.684   8.493   8.583 -0.0219  0.2929 -0.0628
  498ERGO    C1 5993  17.815   8.506   8.225 -0.0421  0.2615 -0.0704
  498ERGO    C2 5994  17.655   8.486   7.844 -0.0733  0.2198  0.0992
  499ERGO   ROH 5995   3.664   5.621   6.133  0.1085 -0.0042 -0.0611
  499ERGO    R1 5996   3.617   5.700   6.400  0.0313 -0.2128 -0.0108
  499ERGO    R2 5997   3.485   5.934   6.465  0.3443 -0.0687  0.1291
  499ERGO    R3 5998   3.327   5.766   6.610 -0.0304  0.0170 -0.1650
  499ERGO    R4 5999   3.202   6.030   6.639  0.4734  0.2338  0.1785
  499ERGO    R5 6000   3.261   5.896   6.800  0.1681 -0.1274  0.0065
  499ERGO    C1 6001   2.889   5.929   6.875  0.1969  0.4904 -0.0690
  499ERGO    C2 6002   2.693   6.123   6.835 -0.1129  0.1424 -0.0839
  500ERGO   ROH 6003  14.829  18.097   9.646  0.1199  0.3209 -0.0207
  500ERGO    R1 6004  14.997  18.047   9.423  0.0902  0.3242 -0.0450
  500ERGO    R2 6005  15.024  17.796   9.311  0.2432  0.2771  0.0827
  500ERGO    R3 6006  14.955  17.927   9.083  0.0721  0.1054  0.0344
  500ERGO    R4 6007  15.142  17.721   8.995  0.1343  0.1557  0.0710
  500ERGO    R5 6008  15.156  17.933   8.954  0.0054  0.1354 -0.0628
  500ERGO    C1 6009  15.145  17.800   8.597 -0.0899 -0.0762  0.0187
  500ERGO    C2 6010  15.192  17.631   8.419 -0.0204  0.1090  0.0878
  501ERGO   ROH 6011   7.137   6.594   7.053  0.1296  0.0830 -0.0955
  501ERGO    R1 6012   7.125   6.508   7.323 -0.0341 -0.0048 -0.1282
  501ERGO    R2 6013   7.342   6.523   7.493 -0.0618 -0.2844 -0.0555
  501ERGO    R3 6014   7.168   6.660   7.651  0.0265 -0.1631 -0.0635
  501ERGO    R4 6015   7.381   6.571   7.833  0.1142 -0.0254 -0.1094
  501ERGO    R5 6016   7.166   6.537   7.857  0.1305 -0.0035  0.0304
  501ERGO    C1 6017   7.240   6.727   8.180  0.2995  0.2393 -0.1484
  501ERGO    C2 6018   7.339   6.762   8.431 -0.1460 -0.0778 -0.4307
  502ERGO   ROH 6019  16.366  16.942   6.503  0.2197 -0.0512 -0.1931
  502ERGO    R1 6020  16.482  17.004   6.754  0.1010 -0.0101 -0.1474
  502ERGO    R2 6021  16.422  17.237   6.892  0.0350  0.0147 -0.2117
  502ERGO    R3 6022  16.362  17.063   7.093 -0.0614  0.0457 -0.2142
  502ERGO    R4 6023  16.369  17.326   7.221  0.2396  0.0207 -0.1796
  502ERGO    R5 6024  16.479  17.149   7.283  0.0893 -0.0950 -0.2442
  502ERGO    C1 6025  16.281  17.216   7.602  0.2681  0.0529 -0.1633
  502ERGO    C2 6026  16.277  17.084   7.934 -0.2190 -0.0034 -0.1776
  503ERGO   ROH 6027   7.041   5.690   9.612 -0.0748  0.0291  0.0065
  503ERGO    R1 6028   6.980   5.882   9.412  0.0193  0.0173 -0.0317
  503ERGO    R2 6029   7.136   5.916   9.186 -0.0143 -0.1651 -0.0738
  503ERGO    R3 6030   6.900   5.878   9.057 -0.0741 -0.0181 -0.0128
  503ERGO    R4 6031   7.068   6.018   8.863  0.0520 -0.2984 -0.1318
  503ERGO    R5 6032   6.869   6.078   8.929  0.1096 -0.0587 -0.1350
  503ERGO    C1 6033   6.807   6.042   8.554  0.0344 -0.2379 -0.1084
  503ERGO    C2 6034   6.977   6.014   8.288  0.1584  0.0118 -0.0623
  504ERGO   ROH 6035   1.597   1.475   9.786  0.2629  0.0294  0.0276
  504ERGO    R1 6036   1.592   1.329   9.544  0.1291  0.0035  0.0456
  504ERGO    R2 6037   1.480   1.429   9.312  0.2003  0.0694  0.0405
  504ERGO    R3 6038   1.724   1.371   9.207  0.1477 -0.1469  0.0329
  504ERGO    R4 6039   1.540   1.359   8.979  0.1614  0.2694 -0.0098
  504ERGO    R5 6040   1.679   1.203   9.042 -0.0379  0.0410 -0.1138
  504ERGO    C1 6041   1.804   1.264   8.687  0.0894  0.1828 -0.0462
  504ERGO    C2 6042   1.773   1.086   8.427 -0.0333  0.3327 -0.1569
  505ERGO   ROH 6043   1.523   6.589   9.136 -0.1364  0.0289 -0.0170
  505ERGO    R1 6044   1.380   6.687   8.913 -0.0225  0.0944 -0.0621
  505ERGO    R2 6045   1.502   6.824   8.706  0.1226 -0.0577 -0.0775
  505ERGO    R3 6046   1.383   6.634   8.553 -0.0141  0.0040 -0.0496
  505ERGO    R4 6047   1.480   6.833   8.361  0.0371 -0.0359 -0.0719
  505ERGO    R5 6048   1.277   6.756   8.377  0.0001  0.0645 -0.0188
  505ERGO    C1 6049   1.355   6.659   8.017 -0.1411  0.0347 -0.0422
  505ERGO    C2 6050   1.567   6.573   7.669  0.2105  0.0965  0.2400
  506ERGO   ROH 6051  17.348  10.470   6.585  0.0810  0.0127  0.0092
  506ERGO    R1 6052  17.467  10.428   6.839 -0.0162 -0.0258  0.0482
  506ERGO    R2 6053  17.366  10.539   7.071 -0.1228 -0.0879  0.0294
  506ERGO    R3 6054  17.367  10.281   7.156 -0.1248 -0.1054 -0.0214
  506ERGO    R4 6055  17.331  10.441   7.400  0.0370 -0.1414  0.0314
  506ERGO    R5 6056  17.484  10.289   7.365 -0.0083 -0.1655 -0.0815
  506ERGO    C1 6057  17.312  10.141   7.673  0.1281 -0.1891 -0.0151
  506ERGO    C2 6058  17.245  10.020   7.928  0.2202 -0.3636  0.0717
  507ERGO   ROH 6059   3.972  15.351   9.879  0.1433 -0.1250 -0.1300
  507ERGO    R1 6060   3.839  15.488   9.670  0.1798 -0.0835 -0.1264
  507ERGO    R2 6061   3.974  15.629   9.475  0.2168 -0.0964 -0.1107
  507ERGO    R3 6062   3.830  15.472   9.306  0.1928 -0.0561 -0.1279
  507ERGO    R4 6063   3.849  15.730   9.169  0.2275 -0.0431 -0.0976
  507ERGO    R5 6064   3.667  15.619   9.212  0.2126 -0.0223 -0.1088
  507ERGO    C1 6065   3.641  15.641   8.832  0.2112  0.0257 -0.1059
  507ERGO    C2 6066   3.518  15.545   8.519 -0.0820  0.0807  0.0163
  508ERGO   ROH 6067  10.876   3.431   6.993 -0.2425 -0.1244  0.1200
  508ERGO    R1 6068  10.951   3.665   7.134 -0.0791 -0.1439  0.0667
  508ERGO    R2 6069  10.791   3.779   7.328  0.0011  0.0116  0.0367
  508ERGO    R3 6070  11.014   3.756   7.480 -0.0165 -0.1054  0.0468
  508ERGO    R4 6071  10.855   3.963   7.613  0.2594  0.2877 -0.1926
  508ERGO    R5 6072  11.063   3.980   7.549  0.2884 -0.0720 -0.2355
  508ERGO    C1 6073  11.103   4.049   7.922  0.3934  0.3385 -0.3165
  508ERGO    C2 6074  11.040   4.231   8.201  0.2924 -0.1201  0.1727
  509ERGO   ROH 6075   3.680  13.083   6.908  0.0851 -0.0985 -0.0757
  509ERGO    R1 6076   3.662  13.074   7.191 -0.0224  0.0765 -0.0753
  509ERGO    R2 6077   3.426  13.019   7.323 -0.0171 -0.0956 -0.1400
  509ERGO    R3 6078   3.575  12.826   7.442  0.1498  0.1502  0.0608
  509ERGO    R4 6079   3.351  12.873   7.627 -0.1619 -0.1630 -0.2074
  509ERGO    R5 6080   3.564  12.879   7.676 -0.2152  0.1765  0.0472
  509ERGO    C1 6081   3.447  12.607   7.916 -0.0896  0.0283 -0.0582
  509ERGO    C2 6082   3.242  12.411   8.143 -0.2873 -0.0388 -0.3058
  510ERGO   ROH 6083  11.771  12.251   6.829 -0.0182  0.2829 -0.0124
  510ERGO    R1 6084  11.954  12.244   7.045  0.0740  0.2634 -0.0904
  510ERGO    R2 6085  12.077  12.471   7.143 -0.0808  0.2902  0.0409
  510ERGO    R3 6086  11.973  12.386   7.380  0.0855  0.0117  0.0188
  510ERGO    R4 6087  12.161  12.599   7.453 -0.2147  0.2674  0.0872
  510ERGO    R5 6088  12.157  12.396   7.533  0.1055  0.2139 -0.0119
  510ERGO    C1 6089  12.112  12.593   7.856 -0.1364 -0.0072  0.0934
  510ERGO    C2 6090  12.050  12.659   8.310  0.4365  0.1011  0.0446
  511ERGO   ROH 6091  11.390  13.080  10.572  0.0842  0.2036  0.0171
  511ERGO    R1 6092  11.380  12.976  10.309  0.0440  0.1302  0.0465
  511ERGO    R2 6093  11.182  12.802  10.224  0.0503  0.0758  0.1338
  511ERGO    R3 6094  11.149  12.987  10.028 -0.0181  0.0194  0.0937
  511ERGO    R4 6095  10.966  12.769   9.957  0.1307 -0.1033  0.0903
  511ERGO    R5 6096  11.118  12.857   9.829  0.1052 -0.0340  0.1103
  511ERGO    C1 6097  10.808  12.923   9.617  0.1132 -0.2605  0.0271
  511ERGO    C2 6098  10.582  12.989   9.419  0.0707 -0.1338  0.2972
  512ERGO   ROH 6099   6.546   2.880   9.711 -0.1492  0.1457 -0.0154
  512ERGO    R1 6100   6.616   2.917   9.440  0.0307 -0.0231  0.0048
  512ERGO    R2 6101   6.766   2.733   9.298 -0.1958 -0.2991  0.1084
  512ERGO    R3 6102   6.556   2.744   9.125 -0.1107 -0.0003  0.0194
  512ERGO    R4 6103   6.789   2.692   8.955 -0.0869 -0.1099  0.0924
  512ERGO    R5 6104   6.645   2.853   8.931  0.0730  0.0377  0.1246
  512ERGO    C1 6105   6.606   2.679   8.594  0.0563  0.2807 -0.0006
  512ERGO    C2 6106   6.778   2.469   8.249 -0.1912 -0.2162 -0.4090
  513ERGO   ROH 6107  14.804   4.931   9.642 -0.0040 -0.1581  0.1110
  513ERGO    R1 6108  14.724   4.872   9.377 -0.1950  0.0296  0.1245
  513ERGO    R2 6109  14.578   5.049   9.223  0.0140  0.2948  0.2229
  513ERGO    R3 6110  14.781   5.011   9.046 -0.1041  0.0277  0.1394
  513ERGO    R4 6111  14.567   5.135   8.888 -0.0318  0.2493  0.2127
  513ERGO    R5 6112  14.672   4.950   8.842 -0.2662  0.1179  0.1976
  513ERGO    C1 6113  14.751   5.150   8.527 -0.1695 -0.0280  0.1283
  513ERGO    C2 6114  14.821   5.219   8.236 -0.0008  0.0721  0.1134
  514ERGO   ROH 6115  15.392  15.904   9.940  0.2015  0.0684 -0.0212
  514ERGO    R1 6116  15.498  15.820   9.691  0.0392  0.0411 -0.0823
  514ERGO    R2 6117  15.350  15.825   9.457 -0.0320  0.2647 -0.0367
  514ERGO    R3 6118  15.560  15.970   9.366  0.0878  0.0847 -0.0523
  514ERGO    R4 6119  15.432  15.866   9.124  0.0964  0.0413 -0.0345
  514ERGO    R5 6120  15.642  15.846   9.178  0.0668 -0.0632  0.0369
  514ERGO    C1 6121  15.677  16.027   8.844  0.2835 -0.2578 -0.0480
  514ERGO    C2 6122  15.555  16.189   8.574  0.2865  0.2351 -0.1542
  515ERGO   ROH 6123   0.485   5.295   9.181  0.0804  0.2844  0.0623
  515ERGO    R1 6124   0.707   5.267   9.007 -0.0003  0.1387 -0.0199
  515ERGO    R2 6125   0.690   5.310   8.735 -0.0529  0.2438 -0.0003
  515ERGO    R3 6126   0.894   5.482   8.781  0.1212  0.0440 -0.0106
  515ERGO    R4 6127   0.814   5.535   8.504  0.0812  0.1998  0.0284
  515ERGO    R5 6128   1.015   5.488   8.574  0.0628 -0.0057 -0.0468
  515ERGO    C1 6129   1.079   5.828   8.413  0.3228 -0.0133  0.0352
  515ERGO    C2 6130   1.251   6.079   8.296 -0.1314  0.0385  0.0771
  516ERGO   ROH 6131  11.307  14.665  10.122  0.1741  0.0789  0.2896
  516ERGO    R1 6132  11.423  14.798   9.901 -0.0921  0.0279  0.1162
  516ERGO    R2 6133  11.678  14.743   9.810 -0.0815  0.2382  0.0315
  516ERGO    R3 6134  11.551  14.705   9.573 -0.1622 -0.0971  0.1213
  516ERGO    R4 6135  11.836  14.694   9.506 -0.1521  0.4679 -0.0453
  516ERGO    R5 6136  11.686  14.821   9.413 -0.4858  0.1432  0.0015
  516ERGO    C1 6137  11.808  14.629   9.107 -0.2688  0.2869 -0.0058
  516ERGO    C2 6138  11.923  14.507   8.842  0.0439  0.2761 -0.0746
  517ERGO   ROH 6139   0.461   9.527   9.661  0.3160  0.0959  0.1035
  517ERGO    R1 6140   0.470   9.485   9.382  0.0276  0.0361  0.0998
  517ERGO    R2 6141   0.653   9.611   9.217 -0.2384  0.1227 -0.1436
  517ERGO    R3 6142   0.711   9.357   9.142 -0.1537  0.1424 -0.1428
  517ERGO    R4 6143   0.793   9.521   8.914 -0.1023  0.1746 -0.0965
  517ERGO    R5 6144   0.659   9.350   8.909 -0.0612  0.1477 -0.1621
  517ERGO    C1 6145   0.929   9.229   8.667  0.0565  0.2232 -0.0683
  517ERGO    C2 6146   0.851   8.813   8.475 -0.2672  0.2161  0.2561
  518ERGO   ROH 6147  10.524  16.064   6.830 -0.1572  0.0179 -0.0207
  518ERGO    R1 6148  10.621  15.873   7.015 -0.0872  0.0466 -0.0280
  518ERGO    R2 6149  10.887  15.860   7.091 -0.0777  0.1199 -0.0548
  518ERGO    R3 6150  10.782  15.879   7.341 -0.0565  0.0931 -0.0434
  518ERGO    R4 6151  11.002  15.688   7.368  0.0066  0.1596 -0.0645
  518ERGO    R5 6152  10.796  15.656   7.428  0.0213  0.0975 -0.0410
  518ERGO    C1 6153  10.971  15.605   7.763  0.0757  0.1576 -0.0594
  518ERGO    C2 6154  10.909  15.330   8.063 -0.0235  0.0924 -0.2463
  519ERGO   ROH 6155   4.610  12.739   6.874  0.2480 -0.4454  0.0838
  519ERGO    R1 6156   4.471  12.772   7.119  0.0018 -0.1308 -0.0901
  519ERGO    R2 6157   4.536  12.630   7.347 -0.4441 -0.0882  0.0697
  519ERGO    R3 6158   4.555  12.878   7.457 -0.2562 -0.0483 -0.0489
  519ERGO    R4 6159   4.599  12.696   7.681 -0.5445  0.0110  0.0693
  519ERGO    R5 6160   4.453  12.857   7.672 -0.3875  0.1543 -0.0852
  519ERGO    C1 6161   4.652  12.968   7.977 -0.4266  0.1063 -0.0422
  519ERGO    C2 6162   4.668  13.291   8.158  0.2154  0.0720  0.2599
  520ERGO   ROH 6163  12.696  11.981   9.689  0.2266 -0.0483 -0.0470
  520ERGO    R1 6164  12.923  12.086   9.558  0.2446  0.0419  0.0537
  520ERGO    R2 6165  12.931  12.131   9.285  0.4471 -0.2288  0.0087
  520ERGO    R3 6166  13.001  12.382   9.360  0.1279 -0.0786 -0.1752
  520ERGO    R4 6167  13.093  12.360   9.083  0.3433 -0.2423 -0.0904
  520ERGO    R5 6168  13.212  12.419   9.255  0.1626  0.0473 -0.0602
  520ERGO    C1 6169  13.253  12.729   9.037 -0.0168 -0.1092 -0.3208
  520ERGO    C2 6170  13.417  12.902   8.844  0.0877  0.1566 -0.1546
  521ERGO   ROH 6171  14.167   2.867   9.812 -0.1851 -0.2004 -0.0458
  521ERGO    R1 6172  14.172   2.876   9.529 -0.3234 -0.0851 -0.0463
  521ERGO    R2 6173  14.360   2.740   9.379 -0.1727  0.2550 -0.1836
  521ERGO    R3 6174  14.140   2.637   9.256 -0.0767 -0.0381 -0.1182
  521ERGO    R4 6175  14.339   2.665   9.042 -0.0913 -0.0396 -0.1262
  521ERGO    R5 6176  14.136   2.746   9.042 -0.1603 -0.2166 -0.2067
  521ERGO    C1 6177  14.120   2.526   8.731  0.0462 -0.4862 -0.0312
  521ERGO    C2 6178  14.128   2.188   8.493  0.0307 -0.1669 -0.1815
  522ERGO   ROH 6179   5.612  11.233   9.834 -0.1978  0.0586 -0.0893
  522ERGO    R1 6180   5.667  11.042   9.632 -0.0651  0.0066 -0.0057
  522ERGO    R2 6181   5.513  10.816   9.595  0.0758 -0.1101  0.0777
  522ERGO    R3 6182   5.497  10.909   9.340  0.0346 -0.2226  0.0397
  522ERGO    R4 6183   5.406  10.631   9.323  0.3228 -0.3184  0.1194
  522ERGO    R5 6184   5.564  10.723   9.204  0.2523 -0.2031  0.1215
  522ERGO    C1 6185   5.329  10.610   8.926  0.4280 -0.5450  0.1079
  522ERGO    C2 6186   5.102  10.679   8.682 -0.3230  0.2925 -0.0740
  523ERGO   ROH 6187   2.218   9.284   6.725 -0.1932  0.0437  0.0540
  523ERGO    R1 6188   2.210   9.208   6.998 -0.2404  0.0185  0.0453
  523ERGO    R2 6189   2.434   9.206   7.159 -0.2114 -0.2834  0.0052
  523ERGO    R3 6190   2.282   9.365   7.318  0.0132 -0.1103  0.0541
  523ERGO    R4 6191   2.532   9.329   7.467  0.0501 -0.3314 -0.0555
  523ERGO    R5 6192   2.330   9.290   7.540  0.0432 -0.1261  0.0428
  523ERGO    C1 6193   2.445   9.549   7.796  0.4132 -0.1968 -0.0451
  523ERGO    C2 6194   2.521   9.520   8.156  0.0139  0.0735  0.0325
  524ERGO   ROH 6195   7.239   5.367   6.763 -0.0877  0.0816 -0.1192
  524ERGO    R1 6196   7.172   5.530   6.984 -0.0777 -0.0630 -0.0082
  524ERGO    R2 6197   7.109   5.425   7.232  0.0514 -0.2221 -0.0381
  524ERGO    R3 6198   7.307   5.591   7.317  0.0144 -0.1866 -0.0227
  524ERGO    R4 6199   7.235   5.434   7.554 -0.0444 -0.1217 -0.0031
  524ERGO    R5 6200   7.242   5.652   7.540 -0.0542 -0.1281 -0.0604
  524ERGO    C1 6201   7.493   5.595   7.821 -0.1348 -0.0299  0.0316
  524ERGO    C2 6202   7.837   5.680   7.993  0.1844  0.1954 -0.0727
  525ERGO   ROH 6203  15.663  10.845   6.217  0.1259  0.1581  0.2095
  525ERGO    R1 6204  15.710  10.586   6.320  0.0906  0.1006  0.0876
  525ERGO    R2 6205  15.943  10.518   6.451  0.1013 -0.0066  0.0265
  525ERGO    R3 6206  15.773  10.440   6.647  0.1110 -0.0541  0.0137
  525ERGO    R4 6207  16.034  10.334   6.729  0.0799 -0.2022 -0.0956
  525ERGO    R5 6208  15.849  10.221   6.708  0.0355 -0.1165 -0.1251
  525ERGO    C1 6209  15.926  10.153   7.076  0.0764 -0.3608 -0.1787
  525ERGO    C2 6210  15.930  10.269   7.465  0.1827  0.0579  0.2367
  526ERGO   ROH 6211  10.530   7.509   9.695  0.3291 -0.1659 -0.0947
  526ERGO    R1 6212  10.687   7.505   9.460  0.1553 -0.0810 -0.2145
  526ERGO    R2 6213  10.678   7.296   9.279  0.0328 -0.0218 -0.2764
  526ERGO    R3 6214  10.626   7.496   9.101 -0.1102  0.0327 -0.1746
  526ERGO    R4 6215  10.716   7.271   8.936 -0.2189  0.0901 -0.3153
  526ERGO    R5 6216  10.797   7.473   8.935 -0.2308  0.0949 -0.3095
  526ERGO    C1 6217  10.690   7.443   8.570 -0.4994  0.2065 -0.2423
  526ERGO    C2 6218  10.597   7.647   8.308 -0.0003 -0.0586  0.1171
  527ERGO   ROH 6219   9.305   6.204   9.834  0.1274 -0.1661  0.0341
  527ERGO    R1 6220   9.427   6.280   9.591  0.0977 -0.1796  0.0146
  527ERGO    R2 6221   9.443   6.111   9.373 -0.1006 -0.1278 -0.0448
  527ERGO    R3 6222   9.324   6.319   9.244  0.0008 -0.0002  0.0624
  527ERGO    R4 6223   9.427   6.147   9.030 -0.0961  0.0569 -0.0267
  527ERGO    R5 6224   9.465   6.360   9.055  0.0138  0.0242  0.0791
  527ERGO    C1 6225   9.306   6.363   8.709  0.0015  0.2841  0.0846
  527ERGO    C2 6226   9.205   6.481   8.511  0.0025  0.1406 -0.0161
  528ERGO   ROH 6227  16.080  11.600   6.766 -0.0095 -0.0105 -0.1229
  528ERGO    R1 6228  16.070  11.381   6.944 -0.0698  0.0359 -0.0693
  528ERGO    R2 6229  16.202  11.381   7.187  0.0252  0.0148 -0.1205
  528ERGO    R3 6230  15.955  11.322   7.284  0.0266  0.1822 -0.0100
  528ERGO    R4 6231  16.131  11.314   7.519  0.1234  0.0806 -0.0855
  528ERGO    R5 6232  15.995  11.157   7.453 -0.0092  0.1648 -0.0184
  528ERGO    C1 6233  15.858  11.220   7.803  0.1820  0.2760  0.0385
  528ERGO    C2 6234  15.899  11.273   8.194  0.2490  0.0144 -0.0200
  529ERGO   ROH 6235   9.200   8.955   9.557 -0.0706 -0.2444  0.1854
  529ERGO    R1 6236   9.003   8.994   9.358 -0.1045 -0.1596  0.2349
  529ERGO    R2 6237   8.942   9.244   9.256 -0.0227 -0.1325  0.2490
  529ERGO    R3 6238   8.993   9.124   9.018 -0.1343 -0.1560  0.2372
  529ERGO    R4 6239   8.859   9.374   8.947 -0.3141 -0.2376  0.2810
  529ERGO    R5 6240   8.801   9.174   8.883 -0.2590 -0.2808  0.3650
  529ERGO    C1 6241   8.858   9.337   8.543 -0.5888 -0.3210  0.2884
  529ERGO    C2 6242   8.902   9.688   8.355  0.1656  0.1003  0.1234
  530ERGO   ROH 6243   1.741  16.129  10.318 -0.1513 -0.1559  0.0523
  530ERGO    R1 6244   1.944  16.162  10.122 -0.0506 -0.1217  0.1624
  530ERGO    R2 6245   2.060  15.947   9.992 -0.1509 -0.0863  0.0219
  530ERGO    R3 6246   1.984  16.083   9.769  0.0379  0.1650  0.1050
  530ERGO    R4 6247   2.197  15.903   9.678 -0.3075 -0.1977 -0.0327
  530ERGO    R5 6248   2.188  16.119   9.649  0.0843 -0.1564  0.0721
  530ERGO    C1 6249   2.205  16.006   9.286 -0.2214 -0.0269  0.0133
  530ERGO    C2 6250   2.010  15.968   9.069  0.1541 -0.0743  0.0825
  531ERGO   ROH 6251   0.833  12.564  10.199  0.0887  0.1860  0.0291
  531ERGO    R1 6252   0.988  12.634   9.972  0.1472 -0.0306  0.0016
  531ERGO    R2 6253   0.989  12.484   9.741 -0.1254 -0.0194 -0.0035
  531ERGO    R3 6254   0.925  12.722   9.625  0.2054  0.0869  0.0188
  531ERGO    R4 6255   1.030  12.556   9.405 -0.3856 -0.1980 -0.0778
  531ERGO    R5 6256   1.098  12.756   9.462  0.0901 -0.3063 -0.2052
  531ERGO    C1 6257   0.995  12.821   9.101 -0.2265 -0.2023 -0.1003
  531ERGO    C2 6258   1.242  12.789   8.895  0.0201  0.1048 -0.0436
  532ERGO   ROH 6259   3.457  15.244   9.793  0.0907  0.1182 -0.0728
  532ERGO    R1 6260   3.463  15.324   9.522 -0.1344  0.2014 -0.0547
  532ERGO    R2 6261   3.524  15.150   9.316  0.1828  0.3725 -0.1078
  532ERGO    R3 6262   3.286  15.236   9.216 -0.0263 -0.0893 -0.0378
  532ERGO    R4 6263   3.445  15.166   8.980  0.1400  0.4152 -0.0963
  532ERGO    R5 6264   3.346  15.356   9.017 -0.2922  0.1812  0.0349
  532ERGO    C1 6265   3.176  15.256   8.690 -0.0814  0.0065 -0.0239
  532ERGO    C2 6266   3.077  14.987   8.479 -0.0635  0.0349  0.1256
  533ERGO   ROH 6267   0.196   3.716   6.222  0.0003 -0.0738 -0.0341
  533ERGO    R1 6268   0.233   3.680   6.500 -0.2480 -0.0530  0.0036
  533ERGO    R2 6269   0.431   3.810   6.643 -0.0465 -0.4218  0.0736
  533ERGO    R3 6270   0.222   3.890   6.798  0.0177  0.0877 -0.0832
  533ERGO    R4 6271   0.460   3.979   6.943  0.1338 -0.4255  0.0592
  533ERGO    R5 6272   0.298   3.856   7.022 -0.2080 -0.0470 -0.0241
  533ERGO    C1 6273   0.281   4.151   7.263  0.2991  0.0506 -0.0963
  533ERGO    C2 6274   0.150   4.393   7.592 -0.3777 -0.2621 -0.0648
  534ERGO   ROH 6275   2.570   0.146   9.956 -0.0698 -0.0316  0.0951
  534ERGO    R1 6276   2.668   0.084   9.698 -0.2063 -0.3407  0.1135
  534ERGO    R2 6277   2.507  -0.016   9.498 -0.4840  0.1066  0.0995
  534ERGO    R3 6278   2.605   0.194   9.357  0.1586 -0.1708  0.0953
  534ERGO    R4 6279   2.488   0.016   9.154 -0.6065  0.2531  0.1192
  534ERGO    R5 6280   2.691   0.095   9.156 -0.3039 -0.4366  0.0095
  534ERGO    C1 6281   2.569   0.233   8.822 -0.0747  0.0777  0.1265
  534ERGO    C2 6282   2.486   0.273   8.482 -0.2788 -0.1056  0.1229
  535ERGO   ROH 6283   5.399   8.785   6.583 -0.0978  0.2545  0.0055
  535ERGO    R1 6284   5.292   8.815   6.844 -0.1865  0.0657 -0.0072
  535ERGO    R2 6285   5.165   8.609   6.977  0.0409 -0.1259 -0.0750
  535ERGO    R3 6286   5.347   8.665   7.171 -0.0614  0.0597 -0.0310
  535ERGO    R4 6287   5.158   8.481   7.298  0.0019  0.0037 -0.0241
  535ERGO    R5 6288   5.218   8.677   7.372 -0.1390  0.0682 -0.0825
  535ERGO    C1 6289   5.325   8.459   7.667 -0.1169  0.2532  0.0468
  535ERGO    C2 6290   5.252   8.435   7.935  0.1258 -0.2743  0.1228
  536ERGO   ROH 6291   2.904   1.676   6.578 -0.2176 -0.0706 -0.0281
  536ERGO    R1 6292   2.877   1.609   6.851 -0.2469  0.0705  0.0040
  536ERGO    R2 6293   3.082   1.644   7.034 -0.1681 -0.1017 -0.0511
  536ERGO    R3 6294   2.893   1.785   7.169  0.0251  0.1812 -0.0677
  536ERGO    R4 6295   3.055   1.658   7.378 -0.3042 -0.2448 -0.0545
  536ERGO    R5 6296   2.838   1.647   7.357 -0.3251  0.1718 -0.1685
  536ERGO    C1 6297   2.862   1.799   7.706 -0.2020 -0.0626 -0.0721
  536ERGO    C2 6298   2.876   1.872   7.994  0.2172 -0.2367 -0.0857
  537ERGO   ROH 6299   8.188  11.455   9.752 -0.0197 -0.0828 -0.0316
  537ERGO    R1 6300   8.130  11.581   9.505 -0.0881 -0.0517  0.0008
  537ERGO    R2 6301   8.326  11.642   9.320 -0.1413 -0.0311 -0.0441
  537ERGO    R3 6302   8.168  11.499   9.152 -0.1892 -0.0064 -0.0215
  537ERGO    R4 6303   8.364  11.628   8.977  0.0034 -0.2824 -0.0210
  537ERGO    R5 6304   8.147  11.637   8.957  0.0153 -0.1100 -0.1220
  537ERGO    C1 6305   8.237  11.486   8.619  0.0429 -0.4056  0.0136
  537ERGO    C2 6306   8.294  11.520   8.298 -0.1068  0.1508 -0.3383
  538ERGO   ROH 6307   9.241  11.574   9.727  0.0917 -0.1110 -0.2927
  538ERGO    R1 6308   9.098  11.684   9.508 -0.0097  0.0885 -0.1310
  538ERGO    R2 6309   9.159  11.931   9.400  0.1658  0.0416 -0.1518
  538ERGO    R3 6310   9.176  11.789   9.168 -0.2319  0.0523 -0.1934
  538ERGO    R4 6311   9.179  12.071   9.084  0.4300  0.0779 -0.1209
  538ERGO    R5 6312   9.044  11.915   9.012  0.0291  0.4161 -0.1307
  538ERGO    C1 6313   9.206  12.019   8.683  0.2105  0.1091 -0.1420
  538ERGO    C2 6314   9.284  12.313   8.431  0.2876  0.0520  0.2461
  539ERGO   ROH 6315   9.750   6.657   9.899  0.0196 -0.0375  0.0295
  539ERGO    R1 6316   9.741   6.791   9.650  0.0312 -0.0109  0.0427
  539ERGO    R2 6317   9.895   6.714   9.434  0.1412  0.0917  0.0781
  539ERGO    R3 6318   9.654   6.706   9.307  0.1826 -0.0156  0.0059
  539ERGO    R4 6319   9.850   6.753   9.093  0.2260 -0.0091  0.0554
  539ERGO    R5 6320   9.672   6.872   9.135  0.1782 -0.0561 -0.0298
  539ERGO    C1 6321   9.598   6.769   8.776  0.3141 -0.1684 -0.0257
  539ERGO    C2 6322   9.548   6.835   8.484  0.0628 -0.2045 -0.2583
  540ERGO   ROH 6323   5.245   8.571   9.621 -0.1491  0.2370 -0.1688
  540ERGO    R1 6324   5.253   8.454   9.363 -0.1314  0.2222 -0.1625
  540ERGO    R2 6325   5.148   8.580   9.140 -0.0723  0.2339 -0.1894
  540ERGO    R3 6326   5.397   8.538   9.040 -0.0627  0.1798 -0.1415
  540ERGO    R4 6327   5.223   8.546   8.804 -0.0380 -0.0139 -0.1578
  540ERGO    R5 6328   5.363   8.388   8.857 -0.0308  0.0408 -0.0299
  540ERGO    C1 6329   5.500   8.486   8.515 -0.0091 -0.2089 -0.0944
  540ERGO    C2 6330   5.683   8.549   8.241  0.0994 -0.0629  0.2657
  541ERGO   ROH 6331  12.837  13.013   7.178  0.0878 -0.2874 -0.1309
  541ERGO    R1 6332  13.007  12.960   7.399  0.1246 -0.1630 -0.1294
  541ERGO    R2 6333  12.982  13.091   7.641  0.1175 -0.0815 -0.1785
  541ERGO    R3 6334  12.967  12.838   7.740  0.1949 -0.0480 -0.0784
  541ERGO    R4 6335  13.077  12.999   7.960 -0.2392  0.1616  0.0063
  541ERGO    R5 6336  13.164  12.817   7.875  0.0354  0.1870  0.2072
  541ERGO    C1 6337  13.120  12.708   8.238 -0.3743  0.3344  0.2078
  541ERGO    C2 6338  13.108  12.755   8.533 -0.1069  0.2651 -0.0945
  542ERGO   ROH 6339   7.671   0.281   7.195  0.0771 -0.1221 -0.0142
  542ERGO    R1 6340   7.716   0.406   7.445  0.3387  0.0098 -0.1246
  542ERGO    R2 6341   7.608   0.312   7.681  0.0630  0.4841 -0.0480
  542ERGO    R3 6342   7.867   0.315   7.763  0.0726 -0.0634 -0.0162
  542ERGO    R4 6343   7.715   0.239   8.002 -0.1360  0.3418 -0.0120
  542ERGO    R5 6344   7.858   0.403   7.986  0.2348  0.0291 -0.0440
  542ERGO    C1 6345   8.020   0.200   8.266 -0.2428 -0.2550  0.0389
  542ERGO    C2 6346   8.293   0.020   8.457  0.1985 -0.1650  0.1561
  543ERGO   ROH 6347   4.384  16.664  10.337 -0.0464  0.1024 -0.0995
  543ERGO    R1 6348   4.416  16.645  10.056 -0.0241  0.1200 -0.0977
  543ERGO    R2 6349   4.205  16.594   9.885 -0.0020  0.0912 -0.1124
  543ERGO    R3 6350   4.292  16.821   9.763 -0.0335  0.1105 -0.1002
  543ERGO    R4 6351   4.211  16.645   9.543 -0.2192  0.1916 -0.1036
  543ERGO    R5 6352   4.404  16.744   9.566 -0.1797  0.1434 -0.2003
  543ERGO    C1 6353   4.297  16.888   9.230 -0.3753  0.2681 -0.0871
  543ERGO    C2 6354   4.136  16.847   8.911 -0.0979 -0.0656 -0.0684
  544ERGO   ROH 6355   3.248   9.111   9.509  0.1642  0.0644  0.0267
  544ERGO    R1 6356   3.302   9.271   9.281  0.1214  0.1224  0.0553
  544ERGO    R2 6357   3.331   9.164   9.028  0.3227  0.1550  0.0561
  544ERGO    R3 6358   3.138   9.345   8.965  0.1868 -0.0127 -0.0086
  544ERGO    R4 6359   3.266   9.279   8.709  0.4014  0.1916  0.0538
  544ERGO    R5 6360   3.237   9.478   8.792  0.1579  0.1349  0.0940
  544ERGO    C1 6361   3.046   9.515   8.463  0.3196  0.0556 -0.0083
  544ERGO    C2 6362   2.974   9.446   8.021 -0.3026 -0.0679 -0.1375
  545ERGO   ROH 6363  11.001   9.191   9.361  0.2497  0.0356 -0.0523
  545ERGO    R1 6364  10.864   9.109   9.127  0.2450 -0.1329  0.0092
  545ERGO    R2 6365  10.902   9.230   8.882  0.0436 -0.1370 -0.0208
  545ERGO    R3 6366  10.955   8.976   8.801  0.2544 -0.1018 -0.0026
  545ERGO    R4 6367  10.918   9.126   8.553 -0.2349 -0.2067 -0.0149
  545ERGO    R5 6368  10.814   8.944   8.610  0.0505 -0.3240  0.1731
  545ERGO    C1 6369  10.976   8.827   8.285 -0.1994 -0.2142  0.0056
  545ERGO    C2 6370  11.092   8.676   7.984 -0.0689 -0.0226  0.0399
  546ERGO   ROH 6371  10.261  10.656   6.682 -0.1255  0.0918 -0.0412
  546ERGO    R1 6372  10.219  10.786   6.930  0.1709  0.0498  0.0340
  546ERGO    R2 6373   9.996  10.739   7.086  0.0709  0.4478  0.0117
  546ERGO    R3 6374  10.182  10.686   7.278 -0.0309 -0.0669 -0.0175
  546ERGO    R4 6375   9.938  10.755   7.427  0.1545  0.6356  0.0189
  546ERGO    R5 6376  10.135  10.845   7.451  0.4344  0.0928 -0.0189
  546ERGO    C1 6377  10.079  10.714   7.805  0.1076  0.2618 -0.0044
  546ERGO    C2 6378  10.045  10.688   8.020 -0.1126  0.1032  0.1626
  547ERGO   ROH 6379   3.047  14.230  10.296  0.0744  0.1046 -0.0124
  547ERGO    R1 6380   3.055  14.193  10.016  0.0366  0.0721 -0.0093
  547ERGO    R2 6381   3.155  14.385   9.844  0.1336  0.0001 -0.0344
  547ERGO    R3 6382   3.312  14.181   9.758  0.0144 -0.0971 -0.0241
  547ERGO    R4 6383   3.266  14.343   9.519  0.1986 -0.0237 -0.0093
  547ERGO    R5 6384   3.230  14.129   9.539  0.0415 -0.0019 -0.0564
  547ERGO    C1 6385   3.479  14.127   9.250  0.1244 -0.1288  0.0149
  547ERGO    C2 6386   3.393  14.074   8.887 -0.3401  0.1881 -0.2764
  548ERGO   ROH 6387  15.719   3.398   6.438 -0.0199 -0.1731 -0.0683
  548ERGO    R1 6388  15.691   3.266   6.687 -0.2293 -0.1616 -0.0858
  548ERGO    R2 6389  15.710   3.399   6.928 -0.0657 -0.2142 -0.0768
  548ERGO    R3 6390  15.466   3.287   6.973 -0.2316  0.1193 -0.1026
  548ERGO    R4 6391  15.597   3.286   7.235 -0.0586 -0.4671 -0.1643
  548ERGO    R5 6392  15.508   3.115   7.133 -0.4054 -0.1901 -0.3685
  548ERGO    C1 6393  15.302   3.114   7.454 -0.2100 -0.3013 -0.2395
  548ERGO    C2 6394  15.110   2.990   7.743 -0.3640 -0.1710  0.0610
  549ERGO   ROH 6395   5.279   3.741   6.854 -0.1191 -0.0686  0.2046
  549ERGO    R1 6396   5.171   3.915   7.050  0.2559  0.2724  0.1194
  549ERGO    R2 6397   5.080   3.826   7.295 -0.2061  0.5350  0.0499
  549ERGO    R3 6398   5.252   4.014   7.390  0.3078  0.0294  0.1816
  549ERGO    R4 6399   5.116   3.909   7.628 -0.5367  0.6860  0.0528
  549ERGO    R5 6400   5.132   4.119   7.569  0.3144  0.6169 -0.1248
  549ERGO    C1 6401   5.299   4.134   7.912 -0.2468  0.2994  0.1781
  549ERGO    C2 6402   5.532   4.080   8.141  0.4683  0.3686 -0.0687
  550ERGO   ROH 6403  14.484   0.201   9.679  0.2030  0.2386  0.0391
  550ERGO    R1 6404  14.366   0.143   9.429  0.1279  0.1330  0.0985
  550ERGO    R2 6405  14.171   0.302   9.316  0.1625  0.1349  0.0501
  550ERGO    R3 6406  14.340   0.307   9.104  0.1141 -0.0497  0.0051
  550ERGO    R4 6407  14.097   0.441   9.009  0.2771  0.3565  0.1199
  550ERGO    R5 6408  14.198   0.272   8.914 -0.0006  0.2285  0.0317
  550ERGO    C1 6409  14.213   0.526   8.630  0.2985  0.3123  0.1185
  550ERGO    C2 6410  14.351   0.700   8.369 -0.1919 -0.2501 -0.3973
  551ERGO   ROH 6411  13.583   2.164  10.003 -0.0026  0.3274 -0.0847
  551ERGO    R1 6412  13.444   2.049   9.785 -0.1733  0.3700  0.0006
  551ERGO    R2 6413  13.351   2.198   9.572  0.1421  0.3431 -0.1582
  551ERGO    R3 6414  13.493   2.019   9.426 -0.1535 -0.0662  0.0329
  551ERGO    R4 6415  13.301   2.134   9.237  0.2474  0.3176 -0.1696
  551ERGO    R5 6416  13.332   1.922   9.278 -0.2798  0.2455 -0.0464
  551ERGO    C1 6417  13.406   1.929   8.903  0.0311 -0.0815  0.0030
  551ERGO    C2 6418  13.237   2.045   8.721  0.1592 -0.0541 -0.2519
  552ERGO   ROH 6419   5.903   0.394   6.983  0.0622  0.0707  0.0571
  552ERGO    R1 6420   5.904   0.501   7.245 -0.0208  0.0526  0.0658
  552ERGO    R2 6421   5.898   0.773   7.294  0.1042  0.0568  0.0812
  552ERGO    R3 6422   5.682   0.708   7.447 -0.0175  0.1631 -0.0444
  552ERGO    R4 6423   5.786   0.956   7.565  0.1338  0.0186  0.1185
  552ERGO    R5 6424   5.747   0.768   7.669 -0.0682  0.0026  0.0124
  552ERGO    C1 6425   5.519   1.002   7.866  0.0366  0.0963  0.0223
  552ERGO    C2 6426   5.620   1.161   8.235 -0.1412  0.0611 -0.0699
  553ERGO   ROH 6427   4.522   1.876   7.005  0.3419 -0.4614 -0.2690
  553ERGO    R1 6428   4.715   1.775   7.186  0.2965 -0.2547 -0.1033
  553ERGO    R2 6429   4.869   1.939   7.345  0.0653 -0.0834 -0.0551
  553ERGO    R3 6430   4.770   1.785   7.546  0.0478 -0.0887 -0.0666
  553ERGO    R4 6431   4.966   1.960   7.677 -0.1357  0.0782 -0.0035
  553ERGO    R5 6432   4.959   1.742   7.687 -0.0021  0.0735  0.0554
  553ERGO    C1 6433   4.929   1.827   8.058 -0.2692  0.1673  0.0157
  553ERGO    C2 6434   4.873   1.906   8.403 -0.5995 -0.0775  0.0138
  554ERGO   ROH 6435  10.147   9.483   6.485  0.1684  0.1169  0.0832
  554ERGO    R1 6436  10.285   9.299   6.649  0.2945  0.1640  0.0314
  554ERGO    R2 6437  10.497   9.372   6.809  0.0320  0.3392  0.3097
  554ERGO    R3 6438  10.348   9.258   7.005  0.0120 -0.0880  0.0566
  554ERGO    R4 6439  10.626   9.231   7.097 -0.0264  0.3077  0.3205
  554ERGO    R5 6440  10.479   9.070   7.077  0.2593  0.0675  0.0251
  554ERGO    C1 6441  10.561   9.041   7.449 -0.0792 -0.1116  0.0891
  554ERGO    C2 6442  10.743   9.040   7.806 -0.1404  0.2521  0.1535
  555ERGO   ROH 6443   9.981   3.901   7.110  0.0308  0.4396 -0.0565
  555ERGO    R1 6444   9.833   3.998   7.331 -0.0035  0.0123  0.1185
  555ERGO    R2 6445   9.844   3.881   7.581  0.4710 -0.0885  0.0630
  555ERGO    R3 6446   9.907   4.133   7.660 -0.0134  0.0256  0.1140
  555ERGO    R4 6447   9.939   3.969   7.901  0.6898 -0.0413 -0.0137
  555ERGO    R5 6448   9.818   4.149   7.882  0.2351 -0.3063  0.2418
  555ERGO    C1 6449  10.054   4.256   8.163  0.3625  0.0932 -0.0105
  555ERGO    C2 6450  10.215   4.523   8.207  0.0331 -0.0945  0.2066
  556ERGO   ROH 6451   4.529   0.303  10.099  0.1161 -0.0024 -0.0852
  556ERGO    R1 6452   4.467   0.427   9.852 -0.0087  0.0080 -0.0490
  556ERGO    R2 6453   4.659   0.543   9.691 -0.1068  0.1121 -0.0864
  556ERGO    R3 6454   4.556   0.377   9.502 -0.0913  0.0990 -0.0845
  556ERGO    R4 6455   4.673   0.598   9.350 -0.1181  0.1206 -0.0860
  556ERGO    R5 6456   4.469   0.525   9.335 -0.1134  0.0942 -0.0815
  556ERGO    C1 6457   4.584   0.475   8.974 -0.1102  0.1133 -0.0839
  556ERGO    C2 6458   4.726   0.535   8.680  0.3050  0.3918 -0.2086
  557ERGO   ROH 6459   4.612   4.880   9.419 -0.1647 -0.0695 -0.1298
  557ERGO    R1 6460   4.520   5.008   9.184 -0.0903  0.0482 -0.0957
  557ERGO    R2 6461   4.534   5.281   9.148 -0.0382  0.0619  0.0268
  557ERGO    R3 6462   4.666   5.212   8.920  0.0029  0.1411  0.0263
  557ERGO    R4 6463   4.553   5.477   8.864 -0.2524  0.0284 -0.0117
  557ERGO    R5 6464   4.527   5.296   8.744 -0.0970 -0.0203  0.0249
  557ERGO    C1 6465   4.687   5.526   8.484 -0.3385  0.0832 -0.0347
  557ERGO    C2 6466   4.678   5.725   8.263 -0.1020 -0.1504 -0.0390
  558ERGO   ROH 6467   3.083   4.879   6.605 -0.1827 -0.1001 -0.0258
  558ERGO    R1 6468   3.156   4.700   6.812 -0.1206 -0.0350  0.0084
  558ERGO    R2 6469   3.283   4.784   7.043 -0.2091  0.0628  0.0204
  558ERGO    R3 6470   3.076   4.656   7.164 -0.1594 -0.0391 -0.0003
  558ERGO    R4 6471   3.267   4.707   7.379 -0.1748  0.0022  0.0085
  558ERGO    R5 6472   3.180   4.515   7.327 -0.1005 -0.0258 -0.0238
  558ERGO    C1 6473   3.064   4.543   7.689 -0.1082 -0.1288 -0.0179
  558ERGO    C2 6474   3.005   4.669   8.006 -0.0548  0.0038 -0.1452
  559ERGO   ROH 6475  16.436   3.236   6.135 -0.0455  0.1111  0.0914
  559ERGO    R1 6476  16.536   3.481   6.236  0.1698  0.0283  0.0859
  559ERGO    R2 6477  16.372   3.673   6.349  0.3039  0.2707 -0.1198
  559ERGO    R3 6478  16.545   3.650   6.558  0.1039  0.1314  0.0346
  559ERGO    R4 6479  16.441   3.923   6.578  0.4566  0.2941 -0.1904
  559ERGO    R5 6480  16.650   3.865   6.572  0.3885 -0.0010  0.0100
  559ERGO    C1 6481  16.643   4.046   6.907  0.3575  0.1768 -0.0865
  559ERGO    C2 6482  16.711   3.994   7.289  0.2977  0.0538  0.1756
  560ERGO   ROH 6483  12.652   1.210   6.592 -0.0680  0.0936 -0.0112
  560ERGO    R1 6484  12.754   1.187   6.855  0.0185  0.0566 -0.0474
  560ERGO    R2 6485  12.641   1.320   7.070  0.1204  0.0647 -0.0013
  560ERGO    R3 6486  12.631   1.070   7.177  0.1076  0.0617 -0.0100
  560ERGO    R4 6487  12.653   1.250   7.408 -0.0607  0.0759  0.0078
  560ERGO    R5 6488  12.782   1.079   7.363  0.0024  0.0973  0.0791
  560ERGO    C1 6489  12.650   0.974   7.705 -0.1782  0.0795  0.0050
  560ERGO    C2 6490  12.345   0.966   7.955 -0.1640 -0.3348 -0.1314
  561ERGO   ROH 6491  14.853  17.794   6.316  0.0261 -0.1133  0.0932
  561ERGO    R1 6492  14.987  17.794   6.565  0.1202  0.0023  0.0432
  561ERGO    R2 6493  15.180  17.979   6.631  0.0028  0.1525 -0.0406
  561ERGO    R3 6494  15.022  18.021   6.848  0.0540  0.0446  0.0185
  561ERGO    R4 6495  15.297  18.041   6.950  0.0875  0.4178 -0.1192
  561ERGO    R5 6496  15.138  17.912   7.027  0.2763  0.2514  0.0076
  561ERGO    C1 6497  15.216  18.115   7.340  0.1848  0.4711 -0.1094
  561ERGO    C2 6498  15.215  18.322   7.550 -0.1419  0.1039 -0.2112
  562ERGO   ROH 6499   2.795   6.084   9.599  0.4586  0.4807  0.0490
  562ERGO    R1 6500   2.856   6.131   9.326  0.1816  0.3170 -0.0460
  562ERGO    R2 6501   2.735   5.992   9.121  0.0701  0.0897  0.1624
  562ERGO    R3 6502   2.676   6.242   9.030 -0.1599 -0.0083  0.0341
  562ERGO    R4 6503   2.747   6.090   8.789  0.0974 -0.0263  0.1292
  562ERGO    R5 6504   2.834   6.279   8.854 -0.1320  0.0908  0.0849
  562ERGO    C1 6505   2.700   6.381   8.511 -0.1027 -0.1858 -0.0106
  562ERGO    C2 6506   2.704   6.255   8.178  0.4181 -0.3529  0.0152
  563ERGO   ROH 6507   5.214  14.159   9.736 -0.1783 -0.1091 -0.1805
  563ERGO    R1 6508   5.327  14.045   9.503 -0.1696 -0.0700 -0.1965
  563ERGO    R2 6509   5.294  14.157   9.252 -0.0261  0.0647 -0.1621
  563ERGO    R3 6510   5.566  14.148   9.248 -0.0294 -0.0893 -0.0721
  563ERGO    R4 6511   5.492  14.255   8.986  0.1359  0.2641  0.0289
  563ERGO    R5 6512   5.621  14.084   9.024  0.0182  0.1451 -0.1262
  563ERGO    C1 6513   5.862  14.304   8.828  0.2269  0.2357  0.2246
  563ERGO    C2 6514   6.040  14.466   8.555  0.0368  0.2165 -0.2512
  564ERGO   ROH 6515   3.535   0.369  10.308 -0.0282 -0.1179 -0.0296
  564ERGO    R1 6516   3.445   0.504  10.076  0.0426  0.1046  0.0693
  564ERGO    R2 6517   3.617   0.600   9.883  0.0864 -0.0790  0.0113
  564ERGO    R3 6518   3.462   0.451   9.716 -0.2300  0.2060  0.0401
  564ERGO    R4 6519   3.605   0.636   9.539  0.1733 -0.1418  0.0005
  564ERGO    R5 6520   3.389   0.606   9.549  0.1034  0.3211 -0.0016
  564ERGO    C1 6521   3.452   0.518   9.183 -0.0731  0.0892  0.0211
  564ERGO    C2 6522   3.587   0.509   8.868  0.1154  0.1121 -0.0904
  565ERGO   ROH 6523  16.679  11.717  10.097 -0.0814 -0.1064 -0.0411
  565ERGO    R1 6524  16.848  11.752   9.873 -0.0484 -0.1112 -0.0152
  565ERGO    R2 6525  16.751  11.780   9.616 -0.0079 -0.1162 -0.0229
  565ERGO    R3 6526  16.900  12.007   9.618 -0.0043 -0.1167 -0.0148
  565ERGO    R4 6527  16.801  11.986   9.343  0.1303 -0.2094 -0.0705
  565ERGO    R5 6528  17.009  12.009   9.405  0.1068 -0.1934  0.0333
  565ERGO    C1 6529  16.971  12.319   9.186  0.2143 -0.2641 -0.0907
  565ERGO    C2 6530  17.096  12.519   9.076 -0.3584  0.1127 -0.1514
  566ERGO   ROH 6531   7.597  16.383   9.978 -0.1448 -0.2901 -0.1976
  566ERGO    R1 6532   7.575  16.317   9.704 -0.0505 -0.1103 -0.2502
  566ERGO    R2 6533   7.576  16.507   9.505  0.1175  0.0148 -0.1330
  566ERGO    R3 6534   7.779  16.356   9.405  0.0996 -0.0072 -0.1355
  566ERGO    R4 6535   7.655  16.479   9.169  0.0835 -0.0260 -0.1375
  566ERGO    R5 6536   7.692  16.266   9.201  0.0748 -0.0248 -0.1173
  566ERGO    C1 6537   7.892  16.321   8.881  0.0469 -0.0706 -0.1425
  566ERGO    C2 6538   7.945  16.444   8.398  0.1800 -0.1826  0.3670
  567ERGO   ROH 6539  13.617   8.267   9.258 -0.0616 -0.0460  0.1177
  567ERGO    R1 6540  13.431   8.276   9.045 -0.0236  0.0955  0.0885
  567ERGO    R2 6541  13.502   8.223   8.783 -0.0083  0.1125  0.0859
  567ERGO    R3 6542  13.300   8.042   8.799 -0.1042  0.2136  0.0197
  567ERGO    R4 6543  13.312   8.116   8.515  0.0570  0.1664  0.0182
  567ERGO    R5 6544  13.136   8.123   8.644  0.0041  0.2697 -0.0634
  567ERGO    C1 6545  13.012   7.884   8.373  0.0052  0.2928 -0.0834
  567ERGO    C2 6546  13.021   7.671   8.075  0.1979 -0.0245  0.1967
  568ERGO   ROH 6547  16.623   1.135   9.400 -0.2853  0.0166  0.0040
  568ERGO    R1 6548  16.677   1.275   9.160 -0.2942  0.0636  0.0288
  568ERGO    R2 6549  16.782   1.152   8.936  0.0074  0.1692  0.1038
  568ERGO    R3 6550  16.564   1.259   8.814 -0.0486 -0.1042 -0.0449
  568ERGO    R4 6551  16.785   1.305   8.627  0.0550  0.3251  0.1807
  568ERGO    R5 6552  16.648   1.456   8.706 -0.2491  0.0790  0.1285
  568ERGO    C1 6553  16.583   1.496   8.332  0.0303  0.1592  0.0859
  568ERGO    C2 6554  16.621   1.732   8.034 -0.3334  0.0656 -0.1387
  569ERGO   ROH 6555   1.768  17.347   6.983 -0.1056 -0.0129 -0.0244
  569ERGO    R1 6556   1.737  17.487   7.227  0.0272  0.1053 -0.0724
  569ERGO    R2 6557   1.664  17.362   7.462 -0.2120  0.2720 -0.0462
  569ERGO    R3 6558   1.889  17.479   7.558 -0.0639 -0.0165 -0.0351
  569ERGO    R4 6559   1.721  17.433   7.795 -0.1471  0.2549 -0.0548
  569ERGO    R5 6560   1.811  17.623   7.733  0.1165  0.1198 -0.0716
  569ERGO    C1 6561   1.967  17.585   8.079  0.0297 -0.0258 -0.0493
  569ERGO    C2 6562   2.143  17.575   8.396  0.1392  0.1631  0.1116
  570ERGO   ROH 6563   6.083   3.853   6.589 -0.0944 -0.1890  0.0931
  570ERGO    R1 6564   6.228   4.026   6.759 -0.1605 -0.0072 -0.0307
  570ERGO    R2 6565   6.104   4.206   6.928 -0.2366 -0.0323 -0.0505
  570ERGO    R3 6566   6.255   4.083   7.118 -0.0668  0.1524 -0.0636
  570ERGO    R4 6567   6.131   4.308   7.257 -0.3055  0.0075 -0.0579
  570ERGO    R5 6568   6.344   4.262   7.250 -0.2560  0.2559 -0.0826
  570ERGO    C1 6569   6.288   4.252   7.627 -0.1861  0.2041 -0.0744
  570ERGO    C2 6570   6.083   4.306   7.986  0.1917 -0.0242  0.0861
  571ERGO   ROH 6571   7.878   6.029   6.565 -0.0185 -0.0890 -0.1088
  571ERGO    R1 6572   8.136   5.965   6.664  0.0115 -0.0783 -0.1792
  571ERGO    R2 6573   8.178   5.877   6.922  0.1101  0.1248 -0.1235
  571ERGO    R3 6574   8.303   5.670   6.796 -0.0086 -0.0161 -0.0128
  571ERGO    R4 6575   8.383   5.646   7.078  0.1301  0.2050 -0.0301
  571ERGO    R5 6576   8.516   5.655   6.905  0.0439  0.0230 -0.1087
  571ERGO    C1 6577   8.619   5.317   7.050  0.0303  0.1196  0.1283
  571ERGO    C2 6578   8.897   5.165   7.106  0.3756 -0.1233  0.4380
  572ERGO   ROH 6579  11.611   7.442   9.409 -0.0959  0.1466 -0.0066
  572ERGO    R1 6580  11.639   7.632   9.201  0.1397  0.1618  0.0332
  572ERGO    R2 6581  11.883   7.693   9.087  0.2162 -0.1705 -0.0108
  572ERGO    R3 6582  11.754   7.631   8.856  0.0625  0.0696  0.0092
  572ERGO    R4 6583  11.976   7.803   8.773  0.0564  0.0687  0.0243
  572ERGO    R5 6584  11.765   7.832   8.725  0.0424  0.1734  0.1732
  572ERGO    C1 6585  11.910   7.809   8.373 -0.1808  0.4334  0.0635
  572ERGO    C2 6586  12.077   7.960   8.072 -0.0431  0.0559  0.4579
  573ERGO   ROH 6587  13.253  12.350   9.872  0.1689  0.1643  0.2006
  573ERGO    R1 6588  13.101  12.535   9.721  0.1503  0.0592  0.0902
  573ERGO    R2 6589  13.134  12.808   9.743  0.0632  0.0765 -0.0102
  573ERGO    R3 6590  13.168  12.794   9.474  0.1314 -0.0180  0.0026
  573ERGO    R4 6591  13.134  13.080   9.530 -0.1233 -0.0161 -0.1315
  573ERGO    R5 6592  13.020  12.961   9.387  0.0052 -0.1797 -0.1035
  573ERGO    C1 6593  13.166  13.225   9.153 -0.1677 -0.1585 -0.1900
  573ERGO    C2 6594  13.392  13.404   8.880 -0.0896 -0.1593  0.0161
  574ERGO   ROH 6595  17.412  13.487   7.067 -0.1234 -0.0115 -0.0632
  574ERGO    R1 6596  17.295  13.389   7.305 -0.1297  0.0112 -0.0565
  574ERGO    R2 6597  17.437  13.362   7.541 -0.1010 -0.0896 -0.0825
  574ERGO    R3 6598  17.235  13.515   7.642 -0.0114 -0.0059 -0.0292
  574ERGO    R4 6599  17.290  13.316   7.850 -0.1428 -0.1223 -0.1075
  574ERGO    R5 6600  17.096  13.359   7.760 -0.1122  0.0334 -0.0974
  574ERGO    C1 6601  17.015  13.432   8.125 -0.0830 -0.0628 -0.0720
  574ERGO    C2 6602  17.045  13.430   8.499 -0.2857  0.0180 -0.4568
  575ERGO   ROH 6603  12.454  15.369  10.266 -0.0410 -0.0033 -0.1506
  575ERGO    R1 6604  12.437  15.398   9.985 -0.1084 -0.0733 -0.1546
  575ERGO    R2 6605  12.659  15.384   9.821 -0.1135  0.1151 -0.1827
  575ERGO    R3 6606  12.513  15.194   9.694  0.0558 -0.0571 -0.1242
  575ERGO    R4 6607  12.735  15.251   9.511 -0.0694  0.1879 -0.2029
  575ERGO    R5 6608  12.522  15.256   9.463 -0.0941 -0.0539 -0.1298
  575ERGO    C1 6609  12.641  14.995   9.211  0.1152  0.0684 -0.1596
  575ERGO    C2 6610  12.656  14.937   8.894  0.0597  0.1274  0.3924
  576ERGO   ROH 6611  17.408   3.923   8.973 -0.0165  0.0008 -0.2186
  576ERGO    R1 6612  17.308   3.848   8.719  0.0304  0.1225 -0.2741
  576ERGO    R2 6613  17.327   4.013   8.497  0.4536  0.0617 -0.2952
  576ERGO    R3 6614  17.446   3.795   8.386  0.1751 -0.1593 -0.1719
  576ERGO    R4 6615  17.270   3.899   8.176  0.3037 -0.0602 -0.2266
  576ERGO    R5 6616  17.274   3.695   8.252  0.0450 -0.0219 -0.1076
  576ERGO    C1 6617  17.349   3.628   7.884 -0.0447 -0.3385 -0.0709
  576ERGO    C2 6618  17.565   3.465   7.631  0.3678  0.2540 -0.2552
  577ERGO   ROH 6619  12.696   5.463  10.019 -0.0030 -0.0452  0.0660
  577ERGO    R1 6620  12.502   5.466   9.812 -0.0186 -0.0719  0.0800
  577ERGO    R2 6621  12.569   5.453   9.545 -0.0346 -0.0300  0.0732
  577ERGO    R3 6622  12.397   5.242   9.545  0.0162 -0.0715  0.0661
  577ERGO    R4 6623  12.425   5.316   9.262 -0.2419  0.1445  0.0917
  577ERGO    R5 6624  12.239   5.295   9.373 -0.1440  0.0187  0.2380
  577ERGO    C1 6625  12.180   5.038   9.098 -0.3148  0.2071  0.0959
  577ERGO    C2 6626  12.163   4.915   8.856  0.0883 -0.3085  0.1739
  578ERGO   ROH 6627  11.395   5.687   6.516  0.1336 -0.0444 -0.0450
  578ERGO    R1 6628  11.374   5.869   6.732  0.0800 -0.0609 -0.0361
  578ERGO    R2 6629  11.146   5.890   6.887  0.0404 -0.0731 -0.0901
  578ERGO    R3 6630  11.320   5.847   7.091 -0.0086 -0.0895 -0.0516
  578ERGO    R4 6631  11.078   5.951   7.220 -0.0560 -0.1597 -0.0932
  578ERGO    R5 6632  11.281   6.029   7.242 -0.0770 -0.1319 -0.0206
  578ERGO    C1 6633  11.202   5.946   7.606 -0.1581 -0.2256 -0.0588
  578ERGO    C2 6634  10.960   5.941   7.855 -0.2877 -0.0243  0.0503
  579ERGO   ROH 6635   5.363  14.431   6.709 -0.0351 -0.0320 -0.0620
  579ERGO    R1 6636   5.173  14.444   6.918  0.1047  0.2022  0.0541
  579ERGO    R2 6637   5.134  14.238   7.097 -0.0912  0.2173  0.0281
  579ERGO    R3 6638   5.178  14.432   7.281  0.3031  0.1158  0.0505
  579ERGO    R4 6639   5.125  14.191   7.439 -0.4523  0.2336  0.0258
  579ERGO    R5 6640   5.024  14.383   7.458  0.0360  0.5199 -0.0520
  579ERGO    C1 6641   5.162  14.346   7.812 -0.2924  0.1477  0.0455
  579ERGO    C2 6642   5.046  14.238   8.188 -0.3099  0.0566 -0.0767
  580ERGO   ROH 6643   3.623   1.440  10.138  0.3484 -0.2396  0.2182
  580ERGO    R1 6644   3.629   1.498   9.861  0.0489 -0.2313  0.2092
  580ERGO    R2 6645   3.785   1.701   9.755 -0.2164 -0.0940  0.0656
  580ERGO    R3 6646   3.880   1.501   9.598 -0.1864 -0.0146 -0.0171
  580ERGO    R4 6647   3.810   1.716   9.411 -0.1725  0.0636  0.0750
  580ERGO    R5 6648   3.743   1.509   9.402 -0.1592  0.0669 -0.0304
  580ERGO    C1 6649   3.915   1.536   9.062 -0.1189  0.2299  0.0030
  580ERGO    C2 6650   4.210   1.560   8.896  0.0003 -0.1698  0.0084
  581ERGO   ROH 6651  13.839   7.671   6.326  0.2135 -0.0601 -0.1218
  581ERGO    R1 6652  14.077   7.761   6.451  0.2035 -0.1256 -0.0568
  581ERGO    R2 6653  14.099   8.013   6.564  0.2690 -0.1019 -0.1334
  581ERGO    R3 6654  14.175   7.871   6.783  0.1226 -0.0595 -0.0527
  581ERGO    R4 6655  14.270   8.144   6.835  0.2685 -0.0832 -0.1412
  581ERGO    R5 6656  14.389   7.961   6.841  0.1632 -0.1565 -0.0326
  581ERGO    C1 6657  14.441   8.087   7.198  0.1308 -0.0326 -0.0699
  581ERGO    C2 6658  14.330   8.425   7.512 -0.1871  0.1720 -0.0790
  582ERGO   ROH 6659  14.947   9.650   6.168 -0.0783  0.0668 -0.0815
  582ERGO    R1 6660  15.043   9.659   6.434 -0.0453 -0.0031 -0.0923
  582ERGO    R2 6661  14.943   9.835   6.623 -0.0788 -0.1115 -0.0144
  582ERGO    R3 6662  14.905   9.608   6.767  0.0198 -0.1796 -0.0906
  582ERGO    R4 6663  14.982   9.812   6.965 -0.1467 -0.1906 -0.0103
  582ERGO    R5 6664  15.075   9.617   6.936 -0.0231 -0.1288 -0.0469
  582ERGO    C1 6665  14.969   9.585   7.301 -0.0938 -0.3005 -0.0794
  582ERGO    C2 6666  14.876   9.335   7.543  0.0586 -0.0136 -0.0280
  583ERGO   ROH 6667   0.095   1.973   9.289 -0.0386 -0.0276  0.0498
  583ERGO    R1 6668   0.315   1.818   9.201 -0.0238  0.0117  0.0185
  583ERGO    R2 6669   0.343   1.551   9.264  0.0646  0.0340  0.0676
  583ERGO    R3 6670   0.365   1.523   8.995 -0.0058 -0.0199  0.0668
  583ERGO    R4 6671   0.518   1.298   9.105 -0.0947 -0.0814  0.0731
  583ERGO    R5 6672   0.589   1.445   8.961 -0.0499 -0.1386  0.0336
  583ERGO    C1 6673   0.639   1.125   8.759 -0.2535 -0.1991  0.0755
  583ERGO    C2 6674   0.816   0.929   8.524 -0.3085  0.0932 -0.0026
  584ERGO   ROH 6675  13.946   2.463   6.532  0.0420  0.1057  0.2115
  584ERGO    R1 6676  14.097   2.585   6.738  0.1047 -0.0629  0.2661
  584ERGO    R2 6677  13.984   2.664   6.978  0.0958  0.1013  0.2066
  584ERGO    R3 6678  14.181   2.509   7.084 -0.1426 -0.1361  0.3127
  584ERGO    R4 6679  14.063   2.648   7.314  0.1665  0.3420  0.2034
  584ERGO    R5 6680  14.274   2.643   7.260  0.1513 -0.0953  0.1351
  584ERGO    C1 6681  14.293   2.493   7.610 -0.0161  0.2592  0.3012
  584ERGO    C2 6682  14.199   2.376   7.954 -0.0140 -0.1037 -0.0556
  585ERGO   ROH 6683   8.252  14.022   6.534 -0.0415  0.2402 -0.1617
  585ERGO    R1 6684   8.149  14.116   6.780  0.0655  0.1732 -0.0903
  585ERGO    R2 6685   8.009  13.953   6.955 -0.0878  0.1875 -0.1958
  585ERGO    R3 6686   8.196  14.040   7.133  0.0114 -0.1205 -0.1444
  585ERGO    R4 6687   8.010  13.881   7.293 -0.1079 -0.0836 -0.2512
  585ERGO    R5 6688   8.072  14.086   7.332  0.0782 -0.1697 -0.0926
  585ERGO    C1 6689   8.185  13.920   7.656 -0.0266 -0.5304 -0.2351
  585ERGO    C2 6690   8.329  13.760   7.899 -0.2817 -0.3190  0.0284
  586ERGO   ROH 6691   1.271  15.606   7.095 -0.1565  0.1905 -0.0088
  586ERGO    R1 6692   1.439  15.460   7.271 -0.2175 -0.0027 -0.1070
  586ERGO    R2 6693   1.578  15.581   7.478  0.1325 -0.1376 -0.2545
  586ERGO    R3 6694   1.452  15.392   7.628 -0.0214  0.0862 -0.0963
  586ERGO    R4 6695   1.641  15.520   7.812  0.2917 -0.1069 -0.2784
  586ERGO    R5 6696   1.623  15.306   7.772 -0.0330 -0.1001 -0.1924
  586ERGO    C1 6697   1.560  15.307   8.148  0.2399  0.1211 -0.1438
  586ERGO    C2 6698   1.729  15.278   8.459  0.0754 -0.1090  0.0276
  587ERGO   ROH 6699   6.286  15.709  10.005  0.3470 -0.2621  0.0005
  587ERGO    R1 6700   6.300  15.786   9.733  0.1889 -0.1417  0.0258
  587ERGO    R2 6701   6.440  15.640   9.545  0.1394 -0.0171 -0.1026
  587ERGO    R3 6702   6.202  15.644   9.413  0.0743 -0.0331  0.0109
  587ERGO    R4 6703   6.405  15.652   9.201 -0.0194 -0.2197 -0.0960
  587ERGO    R5 6704   6.239  15.791   9.228  0.0295 -0.1544 -0.0998
  587ERGO    C1 6705   6.161  15.662   8.877 -0.1729 -0.3525  0.0144
  587ERGO    C2 6706   6.006  15.697   8.621  0.0681  0.2063 -0.4083
  588ERGO   ROH 6707  10.704   1.334   7.316  0.2213 -0.2450  0.0209
  588ERGO    R1 6708  10.561   1.280   7.554  0.0147 -0.1271 -0.0724
  588ERGO    R2 6709  10.686   1.250   7.799 -0.1598 -0.3392 -0.0020
  588ERGO    R3 6710  10.511   1.444   7.876  0.0329 -0.1386 -0.0645
  588ERGO    R4 6711  10.592   1.314   8.126 -0.3298 -0.3428 -0.0504
  588ERGO    R5 6712  10.388   1.346   8.056 -0.2371 -0.0482 -0.1973
  588ERGO    C1 6713  10.373   1.534   8.387 -0.2480 -0.1566 -0.1372
  588ERGO    C2 6714  10.227   1.718   8.661 -0.0840 -0.3576 -0.1143
  589ERGO   ROH 6715  14.678   7.371   9.409  0.1693  0.1248 -0.1734
  589ERGO    R1 6716  14.591   7.441   9.149  0.1566  0.0808 -0.1812
  589ERGO    R2 6717  14.767   7.480   8.939  0.1445  0.0194 -0.2026
  589ERGO    R3 6718  14.609   7.295   8.816  0.1158  0.0108 -0.1530
  589ERGO    R4 6719  14.727   7.449   8.597  0.1676 -0.0877 -0.1959
  589ERGO    R5 6720  14.515   7.411   8.630  0.1563 -0.0319 -0.2007
  589ERGO    C1 6721  14.556   7.257   8.283  0.1540 -0.1583 -0.1455
  589ERGO    C2 6722  14.567   7.095   8.012 -0.0103 -0.1621  0.0221
  590ERGO   ROH 6723  18.070   3.921   6.003 -0.2227  0.3385  0.1358
  590ERGO    R1 6724  18.104   4.039   6.258 -0.0803  0.2144  0.1752
  590ERGO    R2 6725  17.901   4.049   6.446 -0.0209  0.2560  0.2374
  590ERGO    R3 6726  18.086   3.928   6.605 -0.0442  0.0825  0.1355
  590ERGO    R4 6727  17.932   4.099   6.786  0.0909  0.0782  0.2549
  590ERGO    R5 6728  18.148   4.097   6.762  0.0844 -0.0247  0.2013
  590ERGO    C1 6729  18.124   4.015   7.134  0.1341 -0.1883  0.1695
  590ERGO    C2 6730  18.036   4.190   7.490 -0.0153  0.1494 -0.0178
  591ERGO   ROH 6731   0.772   2.870   9.337  0.3027  0.0817 -0.0939
  591ERGO    R1 6732   0.716   2.698   9.120  0.2076  0.1169 -0.0981
  591ERGO    R2 6733   0.795   2.755   8.861  0.2670  0.0657 -0.0951
  591ERGO    R3 6734   0.908   2.508   8.876  0.1060 -0.0086 -0.0800
  591ERGO    R4 6735   0.894   2.567   8.589  0.3308  0.0626 -0.0698
  591ERGO    R5 6736   0.816   2.389   8.689  0.1576  0.0893 -0.1639
  591ERGO    C1 6737   1.059   2.226   8.444  0.2169 -0.0088 -0.0408
  591ERGO    C2 6738   1.150   2.075   8.135  0.1999 -0.1653 -0.1301
  592ERGO   ROH 6739   5.965   6.146   6.706 -0.0490  0.0285  0.0686
  592ERGO    R1 6740   5.828   6.050   6.934 -0.1477 -0.0205 -0.0067
  592ERGO    R2 6741   5.920   6.092   7.191 -0.0756 -0.3548  0.0427
  592ERGO    R3 6742   5.672   6.194   7.229  0.0454 -0.0908  0.1270
  592ERGO    R4 6743   5.749   6.086   7.491 -0.0165 -0.1830  0.0788
  592ERGO    R5 6744   5.567   6.040   7.380 -0.0873  0.0261  0.1370
  592ERGO    C1 6745   5.415   6.179   7.702  0.1314  0.1649  0.1789
  592ERGO    C2 6746   5.465   6.289   8.084 -0.0065  0.3463 -0.0847
  593ERGO   ROH 6747   0.368   6.024   6.322 -0.1452  0.0812 -0.1493
  593ERGO    R1 6748   0.232   5.800   6.430 -0.1328  0.0895 -0.1162
  593ERGO    R2 6749   0.358   5.612   6.588 -0.0925  0.0525 -0.1909
  593ERGO    R3 6750   0.157   5.671   6.762 -0.0097  0.0638 -0.0978
  593ERGO    R4 6751   0.273   5.422   6.864 -0.2483 -0.1761 -0.3923
  593ERGO    R5 6752   0.063   5.458   6.818 -0.2201  0.0915 -0.3267
  593ERGO    C1 6753   0.035   5.366   7.187 -0.2613 -0.2985 -0.4223
  593ERGO    C2 6754   0.059   5.151   7.513 -0.0208 -0.1140  0.2200
  594ERGO   ROH 6755  10.082  13.121   7.086  0.2319  0.3770 -0.1178
  594ERGO    R1 6756  10.022  13.119   7.362  0.0829  0.3471 -0.1495
  594ERGO    R2 6757  10.157  12.961   7.543 -0.1555  0.1657 -0.1219
  594ERGO    R3 6758  10.196  13.198   7.672 -0.0076  0.0935 -0.0322
  594ERGO    R4 6759  10.042  13.034   7.861 -0.1933  0.1548 -0.1332
  594ERGO    R5 6760   9.992  13.234   7.791 -0.0136  0.2174 -0.0824
  594ERGO    C1 6761  10.012  13.298   8.167 -0.0763  0.0806 -0.0554
  594ERGO    C2 6762  10.053  13.161   8.585 -0.0657  0.2736  0.0156
  595ERGO   ROH 6763  14.164   9.607   9.344 -0.2249 -0.2219 -0.1253
  595ERGO    R1 6764  14.160   9.515   9.076  0.0152 -0.2429 -0.1235
  595ERGO    R2 6765  14.177   9.686   8.859 -0.1017 -0.2314 -0.1193
  595ERGO    R3 6766  14.384   9.524   8.789  0.1392  0.0245 -0.0232
  595ERGO    R4 6767  14.274   9.619   8.535 -0.1267 -0.4150 -0.0907
  595ERGO    R5 6768  14.307   9.412   8.592  0.2344 -0.3126  0.1211
  595ERGO    C1 6769  14.525   9.428   8.280  0.0847 -0.2818  0.0160
  595ERGO    C2 6770  14.687   9.297   7.962 -0.0724 -0.0415 -0.2792
  596ERGO   ROH 6771  16.985   9.009   6.182  0.1277  0.0867  0.1155
  596ERGO    R1 6772  16.974   9.019   6.464  0.2337  0.0884  0.1197
  596ERGO    R2 6773  16.933   8.793   6.620  0.1007  0.1174  0.1256
  596ERGO    R3 6774  17.162   8.875   6.741  0.2126 -0.0752  0.0507
  596ERGO    R4 6775  17.037   8.694   6.934  0.1279  0.0197  0.0867
  596ERGO    R5 6776  17.102   8.898   6.972  0.3100 -0.0338  0.0728
  596ERGO    C1 6777  17.312   8.714   7.231  0.2485 -0.2180 -0.0061
  596ERGO    C2 6778  17.443   8.474   7.310  0.0331  0.3170  0.1352
  597ERGO   ROH 6779  14.681  13.654  10.042 -0.0120 -0.3252 -0.2859
  597ERGO    R1 6780  14.763  13.666   9.771 -0.1417 -0.3511 -0.3253
  597ERGO    R2 6781  14.621  13.545   9.567 -0.4821  0.0035 -0.3004
  597ERGO    R3 6782  14.627  13.794   9.459 -0.0838  0.0489 -0.1945
  597ERGO    R4 6783  14.511  13.623   9.249 -0.3193  0.2972 -0.2888
  597ERGO    R5 6784  14.683  13.757   9.229 -0.1021  0.0514 -0.2053
  597ERGO    C1 6785  14.452  13.903   8.962  0.1492  0.5109 -0.1827
  597ERGO    C2 6786  14.312  13.825   8.687 -0.2067 -0.2278  0.2394
  598ERGO   ROH 6787   1.180  14.502   7.187 -0.1348 -0.2436 -0.1918
  598ERGO    R1 6788   1.203  14.315   7.398  0.0235 -0.1292 -0.1062
  598ERGO    R2 6789   1.396  14.335   7.595  0.0223  0.1084 -0.1313
  598ERGO    R3 6790   1.182  14.321   7.761  0.0466  0.0208 -0.1058
  598ERGO    R4 6791   1.416  14.324   7.939  0.0667  0.3673 -0.1228
  598ERGO    R5 6792   1.254  14.177   7.939  0.2026  0.2090 -0.0090
  598ERGO    C1 6793   1.226  14.304   8.297  0.1152  0.4358 -0.0940
  598ERGO    C2 6794   1.228  14.367   8.654 -0.1105 -0.0882  0.2911
  599ERGO   ROH 6795  14.303  12.506  10.111 -0.0662 -0.0660 -0.1056
  599ERGO    R1 6796  14.269  12.486   9.831 -0.1832  0.0481 -0.0999
  599ERGO    R2 6797  14.108  12.660   9.688  0.0441  0.3343 -0.0125
  599ERGO    R3 6798  14.334  12.696   9.541  0.0603  0.0120 -0.0751
  599ERGO    R4 6799  14.116  12.703   9.345  0.0094  0.2575 -0.0234
  599ERGO    R5 6800  14.292  12.576   9.338 -0.1516  0.0209 -0.0432
  599ERGO    C1 6801  14.332  12.763   9.008  0.0044 -0.0897 -0.0884
  599ERGO    C2 6802  14.486  12.603   8.765 -0.1766 -0.3947  0.1884
  600ERGO   ROH 6803  11.561   2.891   7.072  0.0518 -0.2100 -0.2493
  600ERGO    R1 6804  11.708   2.951   7.307  0.0985 -0.0309 -0.3226
  600ERGO    R2 6805  11.771   2.760   7.496 -0.0764  0.1561 -0.0686
  600ERGO    R3 6806  12.024   2.849   7.455  0.0057 -0.1203 -0.1834
  600ERGO    R4 6807  12.037   2.706   7.710 -0.1350  0.2208  0.0215
  600ERGO    R5 6808  12.102   2.910   7.672  0.0456  0.1169 -0.2616
  600ERGO    C1 6809  12.430   2.758   7.795 -0.0919 -0.0010 -0.0336
  600ERGO    C2 6810  12.704   2.623   7.741 -0.3280  0.0310  0.0791
  601ERGO   ROH 6811   0.207   8.094   6.553  0.0455 -0.2963 -0.1967
  601ERGO    R1 6812   0.182   7.863   6.716  0.1383 -0.1965 -0.0387
  601ERGO    R2 6813   0.338   7.822   6.941 -0.0378  0.1565  0.1585
  601ERGO    R3 6814   0.097   7.793   7.063 -0.1347 -0.0099 -0.0651
  601ERGO    R4 6815   0.283   7.638   7.228 -0.1719  0.1602  0.1358
  601ERGO    R5 6816   0.096   7.567   7.140 -0.0352  0.0024 -0.0311
  601ERGO    C1 6817   0.025   7.503   7.510 -0.3410  0.0062 -0.0874
  601ERGO    C2 6818  -0.112   7.460   7.768  0.2598 -0.2578  0.1722
  602ERGO   ROH 6819   3.635   7.186   6.472 -0.2609  0.4556 -0.1036
  602ERGO    R1 6820   3.642   7.019   6.701 -0.1414  0.2777 -0.2352
  602ERGO    R2 6821   3.628   7.118   6.958  0.1478  0.0911 -0.1439
  602ERGO    R3 6822   3.421   6.943   6.980  0.0716  0.1870 -0.0883
  602ERGO    R4 6823   3.586   6.893   7.217  0.1418  0.0764 -0.1575
  602ERGO    R5 6824   3.520   6.745   7.071  0.0139  0.1266 -0.1534
  602ERGO    C1 6825   3.367   6.598   7.389  0.0667  0.1577 -0.1131
  602ERGO    C2 6826   3.423   6.398   7.665  0.2368  0.3957  0.1766
  603ERGO   ROH 6827  16.395  12.899   7.014 -0.0891 -0.2526 -0.1526
  603ERGO    R1 6828  16.352  12.940   7.291 -0.1195 -0.0986 -0.1792
  603ERGO    R2 6829  16.257  12.742   7.458 -0.1046 -0.0166 -0.0737
  603ERGO    R3 6830  16.480  12.801   7.602 -0.1258  0.0996 -0.0850
  603ERGO    R4 6831  16.299  12.670   7.793 -0.1149  0.1511 -0.0349
  603ERGO    R5 6832  16.396  12.864   7.818 -0.1564  0.1856 -0.1201
  603ERGO    C1 6833  16.533  12.682   8.124 -0.1406  0.3578 -0.0227
  603ERGO    C2 6834  16.443  12.470   8.387  0.3313 -0.2496  0.2129
  604ERGO   ROH 6835   8.892  16.740   6.575  0.0068 -0.0655  0.1473
  604ERGO    R1 6836   8.978  16.797   6.839  0.0680 -0.2465  0.1681
  604ERGO    R2 6837   8.804  16.879   7.037  0.1594 -0.0727  0.1810
  604ERGO    R3 6838   8.911  16.668   7.172 -0.1192 -0.2514  0.1288
  604ERGO    R4 6839   8.903  16.886   7.369  0.5335 -0.1674  0.0760
  604ERGO    R5 6840   9.077  16.766   7.314  0.2391 -0.5407 -0.0773
  604ERGO    C1 6841   9.060  16.692   7.688  0.4897 -0.3901 -0.0342
  604ERGO    C2 6842   9.055  16.744   8.061 -0.1946  0.2962 -0.3679
  605ERGO   ROH 6843   0.014  11.750   9.981  0.2369 -0.1212  0.0295
  605ERGO    R1 6844   0.157  11.822   9.747  0.1748 -0.0635  0.0101
  605ERGO    R2 6845   0.081  11.738   9.495  0.1482 -0.0570  0.0185
  605ERGO    R3 6846   0.085  12.004   9.440  0.0734 -0.0503  0.0404
  605ERGO    R4 6847   0.069  11.875   9.177  0.2716 -0.0415  0.0196
  605ERGO    R5 6848   0.217  12.022   9.241  0.1799  0.0143  0.1138
  605ERGO    C1 6849   0.067  12.204   8.941  0.2732 -0.0262  0.0409
  605ERGO    C2 6850   0.021  12.429   8.727  0.2128  0.0678 -0.0192
  606ERGO   ROH 6851  14.100   6.536   6.444 -0.0230  0.0602  0.1064
  606ERGO    R1 6852  14.316   6.569   6.624  0.0968 -0.1795  0.0123
  606ERGO    R2 6853  14.280   6.650   6.886  0.3169  0.0896 -0.0339
  606ERGO    R3 6854  14.420   6.424   6.941 -0.0634 -0.1248  0.0903
  606ERGO    R4 6855  14.462   6.596   7.175  0.4970  0.0797 -0.1478
  606ERGO    R5 6856  14.616   6.502   7.054  0.2038 -0.3664 -0.1947
  606ERGO    C1 6857  14.699   6.351   7.394  0.2449 -0.1274 -0.0976
  606ERGO    C2 6858  14.767   6.257   7.743 -0.2181 -0.0702  0.0751
  607ERGO   ROH 6859   2.199  10.246   9.921 -0.1986  0.2110  0.1104
  607ERGO    R1 6860   2.083  10.189   9.669 -0.1364  0.1172  0.1026
  607ERGO    R2 6861   1.966  10.384   9.511 -0.1392  0.0505  0.0220
  607ERGO    R3 6862   2.138  10.290   9.323 -0.0836  0.0272  0.0843
  607ERGO    R4 6863   1.964  10.476   9.178 -0.0492  0.0015  0.0078
  607ERGO    R5 6864   2.005  10.268   9.126 -0.0284 -0.0058  0.0500
  607ERGO    C1 6865   2.125  10.441   8.808  0.0553 -0.0488  0.0579
  607ERGO    C2 6866   2.322  10.500   8.706 -0.1679  0.3295 -0.0201
  608ERGO   ROH 6867   9.327  12.032   6.666  0.0206  0.1060 -0.0692
  608ERGO    R1 6868   9.388  11.931   6.924 -0.0564 -0.0178 -0.0987
  608ERGO    R2 6869   9.405  12.093   7.147  0.1380 -0.0851 -0.0625
  608ERGO    R3 6870   9.223  11.918   7.248 -0.0365  0.0800 -0.0845
  608ERGO    R4 6871   9.338  12.051   7.483  0.1986 -0.1591 -0.0596
  608ERGO    R5 6872   9.325  11.836   7.448 -0.0653 -0.1319 -0.1544
  608ERGO    C1 6873   9.129  11.861   7.774  0.0700 -0.0471 -0.0785
  608ERGO    C2 6874   9.064  11.964   8.079  0.3237 -0.2822  0.0614
  609ERGO   ROH 6875   1.611  13.379   7.455 -0.1754  0.2192 -0.0267
  609ERGO    R1 6876   1.603  13.231   7.697  0.0411  0.1544 -0.0563
  609ERGO    R2 6877   1.775  13.282   7.908 -0.0308  0.3687 -0.0431
  609ERGO    R3 6878   1.544  13.304   8.048 -0.0718 -0.0026 -0.0425
  609ERGO    R4 6879   1.748  13.257   8.252  0.0154  0.3776 -0.0391
  609ERGO    R5 6880   1.564  13.144   8.224  0.2034  0.0583 -0.0172
  609ERGO    C1 6881   1.515  13.263   8.583  0.0038  0.0342 -0.0363
  609ERGO    C2 6882   1.588  13.517   8.735 -0.3416 -0.1766 -0.0672
  610ERGO   ROH 6883  16.200   3.951   9.369 -0.1636 -0.0915  0.0703
  610ERGO    R1 6884  16.002   3.928   9.167 -0.2019  0.1011  0.0834
  610ERGO    R2 6885  15.918   4.144   9.016  0.0984  0.1605 -0.0081
  610ERGO    R3 6886  15.983   3.981   8.808 -0.1294 -0.0241  0.0608
  610ERGO    R4 6887  15.822   4.195   8.688  0.1280  0.1262 -0.0217
  610ERGO    R5 6888  15.788   3.981   8.670 -0.1471  0.1583  0.0839
  610ERGO    C1 6889  15.828   4.073   8.302 -0.0685 -0.0672  0.0350
  610ERGO    C2 6890  15.747   4.360   8.060 -0.1326  0.2231 -0.1287
  611ERGO   ROH 6891   6.976  11.760   9.836  0.2242  0.0681  0.0144
  611ERGO    R1 6892   7.149  11.841   9.626  0.1246  0.1493 -0.0358
  611ERGO    R2 6893   7.206  11.679   9.409  0.1846  0.1541 -0.0171
  611ERGO    R3 6894   7.121  11.895   9.267  0.0139  0.0741 -0.0408
  611ERGO    R4 6895   7.271  11.734   9.074  0.1447  0.1585 -0.0250
  611ERGO    R5 6896   7.303  11.944   9.120 -0.0180  0.1953 -0.0474
  611ERGO    C1 6897   7.230  11.968   8.746 -0.0388  0.0860 -0.0516
  611ERGO    C2 6898   7.211  12.081   8.400  0.0499 -0.0044  0.0263
  612ERGO   ROH 6899  13.865  12.938   7.066 -0.1108  0.1441  0.0048
  612ERGO    R1 6900  13.999  13.040   7.294 -0.0682  0.1727 -0.0335
  612ERGO    R2 6901  13.927  13.277   7.416 -0.1929  0.0724  0.0859
  612ERGO    R3 6902  13.912  13.120   7.638  0.0530 -0.0159  0.0437
  612ERGO    R4 6903  14.004  13.380   7.737 -0.2861  0.0899  0.1032
  612ERGO    R5 6904  14.100  13.188   7.771 -0.0142  0.2049  0.0340
  612ERGO    C1 6905  14.035  13.293   8.132 -0.1093  0.0172  0.0738
  612ERGO    C2 6906  14.091  13.459   8.352  0.3153 -0.0289  0.2478
  613ERGO   ROH 6907  12.012   8.306   9.409  0.0336  0.1022  0.0515
  613ERGO    R1 6908  12.074   8.217   9.148 -0.1107  0.0206  0.0444
  613ERGO    R2 6909  11.889   8.217   8.943 -0.1641  0.1575  0.0965
  613ERGO    R3 6910  12.079   8.362   8.814 -0.0734 -0.0201  0.0258
  613ERGO    R4 6911  11.905   8.260   8.600 -0.1798  0.0271  0.0782
  613ERGO    R5 6912  12.122   8.238   8.613 -0.1879 -0.1243  0.0597
  613ERGO    C1 6913  12.094   8.422   8.280 -0.1039 -0.2155  0.0011
  613ERGO    C2 6914  11.889   8.460   8.066  0.0769  0.1454  0.0577
  614ERGO   ROH 6915  17.203  14.131  10.053  0.1629  0.0319 -0.0060
  614ERGO    R1 6916  17.190  14.003   9.801  0.0668  0.0587 -0.0152
  614ERGO    R2 6917  17.295  14.116   9.571  0.1318  0.0064 -0.0107
  614ERGO    R3 6918  17.428  13.879   9.555 -0.0259 -0.0818 -0.0353
  614ERGO    R4 6919  17.454  13.998   9.288  0.0080 -0.0935 -0.0394
  614ERGO    R5 6920  17.379  13.799   9.335 -0.1160 -0.0465 -0.0295
  614ERGO    C1 6921  17.671  13.707   9.108 -0.2118 -0.2345 -0.0792
  614ERGO    C2 6922  17.965  13.772   8.986 -0.0379  0.0106  0.1300
  615ERGO   ROH 6923  12.966  16.247   7.005  0.3272  0.1514 -0.1699
  615ERGO    R1 6924  13.011  16.334   7.270  0.3046  0.2123 -0.1866
  615ERGO    R2 6925  12.994  16.600   7.345 -0.2108  0.1732 -0.1468
  615ERGO    R3 6926  12.819  16.503   7.530  0.0959 -0.2208 -0.0473
  615ERGO    R4 6927  12.994  16.683   7.681 -0.2527  0.2497 -0.1649
  615ERGO    R5 6928  12.951  16.475   7.728  0.2695  0.1365 -0.0992
  615ERGO    C1 6929  12.830  16.641   8.049  0.0108 -0.0760 -0.0821
  615ERGO    C2 6930  12.862  16.781   8.412  0.1120 -0.1416 -0.2027
  616ERGO   ROH 6931   8.063   7.849   7.040  0.0291  0.1865 -0.1222
  616ERGO    R1 6932   8.071   8.014   7.270 -0.0465  0.1196 -0.0703
  616ERGO    R2 6933   7.857   8.038   7.444 -0.0932  0.0417 -0.1123
  616ERGO    R3 6934   8.043   7.967   7.630 -0.1279  0.0073 -0.0914
  616ERGO    R4 6935   7.834   8.106   7.782 -0.0881  0.0933 -0.1226
  616ERGO    R5 6936   8.047   8.152   7.783 -0.0758  0.0238 -0.1158
  616ERGO    C1 6937   7.995   8.079   8.154 -0.1177  0.0909 -0.1090
  616ERGO    C2 6938   8.088   8.052   8.496 -0.1701  0.0979 -0.1351
  617ERGO   ROH 6939   2.905   2.741   6.667  0.0827  0.1414 -0.1623
  617ERGO    R1 6940   2.885   2.689   6.945  0.0727  0.0599 -0.1782
  617ERGO    R2 6941   3.086   2.755   7.123  0.0392  0.0640 -0.1439
  617ERGO    R3 6942   2.884   2.885   7.252 -0.0058 -0.0251 -0.1231
  617ERGO    R4 6943   3.040   2.757   7.465  0.1775  0.1818 -0.1252
  617ERGO    R5 6944   2.825   2.738   7.432  0.1745  0.0086 -0.0323
  617ERGO    C1 6945   2.824   2.880   7.786  0.2158  0.1669 -0.0948
  617ERGO    C2 6946   3.055   2.941   8.110 -0.0804 -0.1530 -0.0061
  618ERGO   ROH 6947   3.961  17.661   9.989  0.0227 -0.0887 -0.0877
  618ERGO    R1 6948   3.875  17.622   9.722  0.1111 -0.2907 -0.0895
  618ERGO    R2 6949   3.826  17.833   9.549 -0.2226 -0.4023 -0.1415
  618ERGO    R3 6950   4.001  17.700   9.389  0.0196 -0.1501 -0.0919
  618ERGO    R4 6951   3.873  17.895   9.213 -0.1677 -0.2918 -0.1133
  618ERGO    R5 6952   3.888  17.681   9.180  0.1290 -0.2704 -0.1400
  618ERGO    C1 6953   4.066  17.807   8.867  0.0916  0.0093 -0.0503
  618ERGO    C2 6954   4.042  17.945   8.573 -0.1914 -0.1187  0.0862
  619ERGO   ROH 6955   7.342  15.967   9.839 -0.0163 -0.0544  0.0894
  619ERGO    R1 6956   7.439  15.806   9.627 -0.1544  0.0875 -0.0871
  619ERGO    R2 6957   7.380  15.857   9.362 -0.1998  0.3623 -0.0329
  619ERGO    R3 6958   7.651  15.851   9.335 -0.2093  0.2514 -0.1000
  619ERGO    R4 6959   7.548  15.876   9.061 -0.2591  0.1858 -0.0773
  619ERGO    R5 6960   7.687  15.725   9.135 -0.3006  0.1659 -0.0582
  619ERGO    C1 6961   7.900  15.882   8.860 -0.3026 -0.0210 -0.1661
  619ERGO    C2 6962   8.182  15.930   8.658  0.0109 -0.1584  0.0465
  620ERGO   ROH 6963  17.105   7.656   9.186  0.2147 -0.1073  0.0065
  620ERGO    R1 6964  17.037   7.568   8.926  0.3306 -0.1280 -0.0180
  620ERGO    R2 6965  16.861   7.706   8.763  0.0875 -0.3478  0.0461
  620ERGO    R3 6966  17.068   7.696   8.587  0.0946  0.0459  0.0245
  620ERGO    R4 6967  16.836   7.767   8.424 -0.0269 -0.2466  0.0726
  620ERGO    R5 6968  16.973   7.602   8.388  0.2283 -0.0204 -0.0064
  620ERGO    C1 6969  17.015   7.793   8.061 -0.0864  0.1820  0.0678
  620ERGO    C2 6970  17.038   7.788   7.755  0.1810  0.0531 -0.1269
  621ERGO   ROH 6971   6.028   7.064   9.564 -0.0604 -0.1938 -0.0267
  621ERGO    R1 6972   6.074   6.974   9.299 -0.1040  0.0050 -0.1036
  621ERGO    R2 6973   5.968   7.103   9.078 -0.0976  0.2056  0.0029
  621ERGO    R3 6974   6.228   7.109   8.998 -0.1025  0.2128 -0.0102
  621ERGO    R4 6975   6.074   7.143   8.752 -0.1059  0.1782 -0.0028
  621ERGO    R5 6976   6.228   6.994   8.788 -0.0992  0.1946  0.0041
  621ERGO    C1 6977   6.380   7.171   8.486 -0.1153  0.1689 -0.0184
  621ERGO    C2 6978   6.380   7.177   8.200  0.0425 -0.0211  0.0721
  622ERGO   ROH 6979  14.067  10.174   6.297 -0.1974  0.2382 -0.3162
  622ERGO    R1 6980  14.071  10.354   6.515 -0.2467 -0.0111 -0.1045
  622ERGO    R2 6981  14.067  10.269   6.778  0.0540 -0.3295 -0.1962
  622ERGO    R3 6982  14.291  10.423   6.797 -0.1114 -0.0842 -0.1908
  622ERGO    R4 6983  14.223  10.358   7.074  0.0870 -0.3654 -0.2025
  622ERGO    R5 6984  14.255  10.557   6.992 -0.1789 -0.2644 -0.0762
  622ERGO    C1 6985  14.523  10.554   7.263 -0.0491 -0.1561 -0.2011
  622ERGO    C2 6986  14.576  10.521   7.548  0.1216 -0.5658 -0.1058
  623ERGO   ROH 6987   7.311  11.042   9.636 -0.1809 -0.0605  0.1487
  623ERGO    R1 6988   7.334  11.088   9.357 -0.0908 -0.0585  0.1554
  623ERGO    R2 6989   7.122  11.055   9.183 -0.0665  0.0498  0.0992
  623ERGO    R3 6990   7.182  11.311   9.113  0.0730  0.0250  0.1297
  623ERGO    R4 6991   7.036  11.204   8.882  0.1717  0.0810  0.0460
  623ERGO    R5 6992   7.232  11.298   8.879  0.2081  0.0051  0.1614
  623ERGO    C1 6993   7.044  11.530   8.642  0.4413  0.0761  0.0436
  623ERGO    C2 6994   7.162  11.597   8.321  0.0056 -0.2555 -0.1227
  624ERGO   ROH 6995  10.334   7.161   6.667  0.2763 -0.0394  0.0260
  624ERGO    R1 6996  10.161   7.140   6.889  0.3680  0.2978  0.1339
  624ERGO    R2 6997  10.094   6.898   7.004 -0.3098  0.3795 -0.0553
  624ERGO    R3 6998  10.183   7.017   7.231  0.2484 -0.1040  0.0045
  624ERGO    R4 6999  10.041   6.776   7.323 -0.6920  0.3419 -0.1280
  624ERGO    R5 7000  10.006   6.981   7.389  0.1278  0.4728  0.0285
  624ERGO    C1 7001  10.094   6.817   7.722 -0.3904 -0.1339 -0.1142
  624ERGO    C2 7002  10.170   6.569   8.009 -0.1957  0.1137 -0.0387
  625ERGO   ROH 7003   6.535   2.407   6.765 -0.1288 -0.0479 -0.0837
  625ERGO    R1 7004   6.513   2.423   7.046 -0.0215 -0.2860 -0.0588
  625ERGO    R2 7005   6.377   2.628   7.174  0.4297 -0.1174  0.1846
  625ERGO    R3 7006   6.244   2.422   7.291  0.0283  0.0291 -0.0011
  625ERGO    R4 7007   6.163   2.659   7.443  0.2024  0.0815 -0.0140
  625ERGO    R5 7008   6.246   2.474   7.524 -0.1319 -0.0531  0.0140
  625ERGO    C1 7009   5.913   2.483   7.710 -0.3066  0.3348 -0.3040
  625ERGO    C2 7010   5.601   2.700   7.846  0.3318  0.0402 -0.0920
  626ERGO   ROH 7011   2.606   7.773   9.421 -0.1088 -0.1296 -0.1486
  626ERGO    R1 7012   2.733   7.884   9.193  0.1348  0.1003  0.0912
  626ERGO    R2 7013   2.598   7.933   8.957  0.5138 -0.2904 -0.2235
  626ERGO    R3 7014   2.698   8.184   8.990 -0.1397 -0.0315 -0.0623
  626ERGO    R4 7015   2.647   8.162   8.702  0.6572 -0.3041 -0.2090
  626ERGO    R5 7016   2.834   8.220   8.797  0.2998  0.1783  0.2688
  626ERGO    C1 7017   2.768   8.530   8.585  0.1272 -0.0690 -0.0494
  626ERGO    C2 7018   2.625   8.811   8.351  0.1044  0.1879 -0.1982
  627ERGO   ROH 7019  15.013  13.459   7.319 -0.0759 -0.1663  0.0254
  627ERGO    R1 7020  15.136  13.481   7.573  0.0462 -0.1002 -0.0383
  627ERGO    R2 7021  14.991  13.507   7.807  0.1616  0.0825  0.0135
  627ERGO    R3 7022  15.137  13.291   7.883  0.0925  0.0512  0.0558
  627ERGO    R4 7023  15.010  13.387   8.130  0.0960  0.1299  0.0344
  627ERGO    R5 7024  15.223  13.351   8.099  0.0914  0.0624  0.0555
  627ERGO    C1 7025  15.157  13.114   8.390 -0.0070  0.1282  0.0863
  627ERGO    C2 7026  14.978  12.817   8.555  0.0407 -0.2268  0.0630
  628ERGO   ROH 7027   4.240  11.670   6.975 -0.1323 -0.0347 -0.0465
  628ERGO    R1 7028   4.315  11.514   7.199  0.0768  0.1490  0.0174
  628ERGO    R2 7029   4.356  11.624   7.450 -0.0993  0.3038 -0.0112
  628ERGO    R3 7030   4.174  11.437   7.526  0.1561  0.0662  0.0313
  628ERGO    R4 7031   4.316  11.507   7.772  0.0062  0.3810  0.0281
  628ERGO    R5 7032   4.288  11.307   7.691  0.3144  0.3023  0.1093
  628ERGO    C1 7033   4.122  11.263   8.032  0.3074  0.2030  0.0910
  628ERGO    C2 7034   4.025  10.943   8.173  0.1615  0.0700 -0.1817
  629ERGO   ROH 7035  11.280  10.736   9.979  0.2605 -0.0193 -0.1558
  629ERGO    R1 7036  11.270  10.856   9.723  0.1864  0.0129 -0.1379
  629ERGO    R2 7037  11.338  10.720   9.493  0.2082  0.0701 -0.1637
  629ERGO    R3 7038  11.091  10.799   9.411  0.1700 -0.0081 -0.1252
  629ERGO    R4 7039  11.245  10.764   9.163  0.1112 -0.0715 -0.1563
  629ERGO    R5 7040  11.134  10.943   9.224  0.0929 -0.0687 -0.1916
  629ERGO    C1 7041  10.958  10.864   8.894  0.0188 -0.2273 -0.1157
  629ERGO    C2 7042  10.729  10.641   8.606 -0.3034  0.0513  0.2967
  630ERGO   ROH 7043  11.803   7.005   6.367  0.1361  0.0540 -0.0056
  630ERGO    R1 7044  11.829   6.854   6.605 -0.0425 -0.0016 -0.0205
  630ERGO    R2 7045  11.857   6.972   6.854  0.0734 -0.0585 -0.0084
  630ERGO    R3 7046  11.643   6.816   6.915 -0.1026  0.1676 -0.0338
  630ERGO    R4 7047  11.737   6.917   7.174  0.0494 -0.0136 -0.0096
  630ERGO    R5 7048  11.704   6.709   7.120 -0.1981  0.0344 -0.0706
  630ERGO    C1 7049  11.467   6.739   7.418 -0.1297  0.2248 -0.0340
  630ERGO    C2 7050  11.420   6.834   7.784 -0.2453 -0.1797  0.0361
  631ERGO   ROH 7051  15.101   6.349   9.513 -0.0535  0.3397 -0.1076
  631ERGO    R1 7052  14.898   6.357   9.316 -0.0597  0.1837 -0.1099
  631ERGO    R2 7053  14.949   6.423   9.053 -0.1008  0.1797 -0.1239
  631ERGO    R3 7054  14.827   6.185   9.003  0.0520  0.0927 -0.0845
  631ERGO    R4 7055  14.790   6.341   8.757 -0.2110  0.0906 -0.0403
  631ERGO    R5 7056  14.633   6.244   8.874 -0.0671 -0.0435  0.0350
  631ERGO    C1 7057  14.583   6.070   8.538 -0.1316 -0.0429  0.0455
  631ERGO    C2 7058  14.506   6.095   8.158 -0.0833  0.0528  0.1796
  632ERGO   ROH 7059   0.556  15.817   7.044 -0.1823  0.1548  0.0191
  632ERGO    R1 7060   0.458  15.855   7.307 -0.1695  0.1104  0.0299
  632ERGO    R2 7061   0.624  15.853   7.528 -0.1642  0.0477  0.0216
  632ERGO    R3 7062   0.510  16.095   7.576 -0.1378  0.0492  0.0803
  632ERGO    R4 7063   0.654  16.031   7.823  0.0752  0.0847 -0.0238
  632ERGO    R5 7064   0.444  16.086   7.806  0.0527  0.0731  0.1409
  632ERGO    C1 7065   0.565  16.363   8.039  0.2395  0.1077  0.0048
  632ERGO    C2 7066   0.522  16.519   8.404  0.1643 -0.5066 -0.0070
  633ERGO   ROH 7067   6.951   7.649   9.828  0.1367  0.1903 -0.0354
  633ERGO    R1 7068   6.974   7.522   9.576 -0.1651  0.1548 -0.0491
  633ERGO    R2 7069   6.867   7.630   9.345 -0.0329  0.3668 -0.0205
  633ERGO    R3 7070   7.121   7.600   9.253 -0.1020 -0.0983 -0.0817
  633ERGO    R4 7071   6.959   7.645   9.012 -0.0482  0.4035 -0.0223
  633ERGO    R5 7072   7.096   7.479   9.047 -0.3848  0.0925 -0.1598
  633ERGO    C1 7073   7.251   7.626   8.732 -0.1221 -0.0117 -0.0808
  633ERGO    C2 7074   7.260   7.663   8.409  0.0746 -0.1984  0.3212
  634ERGO   ROH 7075  14.517   8.500   9.407  0.2609 -0.0864  0.0671
  634ERGO    R1 7076  14.511   8.551   9.128  0.3199  0.0403  0.0865
  634ERGO    R2 7077  14.714   8.473   8.958  0.1870 -0.2269  0.0350
  634ERGO    R3 7078  14.511   8.352   8.824 -0.0308  0.1563  0.0074
  634ERGO    R4 7079  14.692   8.447   8.614  0.2233 -0.2601  0.0366
  634ERGO    R5 7080  14.479   8.488   8.629  0.2982  0.1813 -0.0308
  634ERGO    C1 7081  14.489   8.318   8.288  0.0398  0.0802  0.0116
  634ERGO    C2 7082  14.405   8.395   7.982  0.0388 -0.1174 -0.0227
  635ERGO   ROH 7083   8.175  12.295   6.638 -0.2609 -0.3687  0.1041
  635ERGO    R1 7084   8.347  12.332   6.861 -0.1527 -0.2413  0.0021
  635ERGO    R2 7085   8.313  12.537   7.042 -0.0544 -0.1249 -0.1049
  635ERGO    R3 7086   8.313  12.334   7.223  0.0169 -0.0169  0.0176
  635ERGO    R4 7087   8.275  12.576   7.383 -0.2159  0.0473 -0.1412
  635ERGO    R5 7088   8.427  12.424   7.413 -0.1224  0.1732  0.0112
  635ERGO    C1 7089   8.252  12.408   7.752 -0.2430  0.2491 -0.0474
  635ERGO    C2 7090   7.990  12.346   7.950  0.1173  0.1998 -0.2182
  636ERGO   ROH 7091   3.127  13.376   8.360  0.2456  0.0927 -0.1971
  636ERGO    R1 7092   3.165  13.642   8.271  0.1749  0.0929 -0.2300
  636ERGO    R2 7093   3.332  13.820   8.400  0.0403  0.1925 -0.1822
  636ERGO    R3 7094   3.444  13.844   8.153  0.1465  0.1868 -0.1342
  636ERGO    R4 7095   3.487  14.105   8.281  0.0914  0.1866 -0.1289
  636ERGO    R5 7096   3.393  14.068   8.087  0.1768  0.1815 -0.1652
  636ERGO    C1 7097   3.682  14.294   7.980  0.2209  0.1778 -0.0529
  636ERGO    C2 7098   3.880  14.466   7.800  0.0020  0.3075  0.0412
  637ERGO   ROH 7099   3.730   9.899   6.830  0.0479 -0.0275  0.1646
  637ERGO    R1 7100   3.796  10.013   7.081 -0.0791  0.0741  0.1521
  637ERGO    R2 7101   3.605  10.070   7.273 -0.1287 -0.2816  0.2124
  637ERGO    R3 7102   3.765   9.917   7.431  0.1979 -0.0094  0.1571
  637ERGO    R4 7103   3.649  10.117   7.612 -0.1761 -0.2622  0.2160
  637ERGO    R5 7104   3.861  10.073   7.586 -0.0826  0.1557  0.1755
  637ERGO    C1 7105   3.824  10.001   7.959  0.1027  0.0046  0.1662
  637ERGO    C2 7106   3.650  10.133   8.243 -0.0066  0.3674  0.0008
  638ERGO   ROH 7107  11.484  16.374  10.395  0.1149 -0.2116  0.1267
  638ERGO    R1 7108  11.608  16.512  10.181 -0.0837 -0.0751  0.0960
  638ERGO    R2 7109  11.843  16.426  10.066  0.0886  0.2797  0.1636
  638ERGO    R3 7110  11.698  16.438   9.837  0.0946 -0.0524  0.1378
  638ERGO    R4 7111  11.976  16.473   9.750  0.0600  0.2030  0.1403
  638ERGO    R5 7112  11.808  16.605   9.705 -0.0863 -0.0209  0.0271
  638ERGO    C1 7113  11.916  16.512   9.351  0.0491 -0.1534  0.1025
  638ERGO    C2 7114  11.900  16.312   8.982 -0.1380  0.0169 -0.1465
  639ERGO   ROH 7115  18.190   8.717   9.088 -0.0323 -0.2399  0.1681
  639ERGO    R1 7116  18.224   8.772   8.812 -0.0772 -0.1463  0.1808
  639ERGO    R2 7117  18.409   8.639   8.656 -0.0638 -0.0534  0.1186
  639ERGO    R3 7118  18.193   8.587   8.501 -0.0687 -0.0570  0.1263
  639ERGO    R4 7119  18.404   8.662   8.311 -0.0881 -0.0043  0.1222
  639ERGO    R5 7120  18.205   8.750   8.326 -0.0988 -0.0294  0.1486
  639ERGO    C1 7121  18.197   8.627   7.965 -0.1068  0.0210  0.1315
  639ERGO    C2 7122  18.351   8.419   7.699 -0.2375  0.1013  0.3841
  640ERGO   ROH 7123  14.843   5.277   6.419 -0.2166  0.2205  0.1052
  640ERGO    R1 7124  14.908   5.144   6.660 -0.1502  0.2085  0.0789
  640ERGO    R2 7125  15.124   5.217   6.817 -0.1097  0.1964  0.0160
  640ERGO    R3 7126  14.935   5.232   7.012 -0.0481  0.1862  0.0791
  640ERGO    R4 7127  15.181   5.154   7.152 -0.0023  0.1201 -0.0144
  640ERGO    R5 7128  14.989   5.052   7.160 -0.0209  0.1428  0.0258
  640ERGO    C1 7129  15.037   5.132   7.530  0.1180  0.0660  0.0271
  640ERGO    C2 7130  15.148   4.957   7.896  0.2388  0.0157  0.1956
  641ERGO   ROH 7131   0.938   5.460   6.327  0.0765  0.1333 -0.1674
  641ERGO    R1 7132   1.164   5.507   6.491  0.0399 -0.0450 -0.0640
  641ERGO    R2 7133   1.317   5.736   6.472  0.2466 -0.1775 -0.0133
  641ERGO    R3 7134   1.264   5.755   6.737  0.1364 -0.1070 -0.0396
  641ERGO    R4 7135   1.495   5.931   6.695  0.1983 -0.1720  0.0208
  641ERGO    R5 7136   1.479   5.769   6.841  0.0964 -0.1374  0.0501
  641ERGO    C1 7137   1.548   6.062   7.075  0.0666 -0.1025  0.0159
  641ERGO    C2 7138   1.749   6.285   7.246  0.1658  0.0039 -0.0814
  642ERGO   ROH 7139  15.943  15.619   6.825  0.1867 -0.1760  0.0470
  642ERGO    R1 7140  15.785  15.501   7.028 -0.0238 -0.0727 -0.0527
  642ERGO    R2 7141  15.888  15.434   7.275 -0.1537 -0.3943 -0.0800
  642ERGO    R3 7142  15.681  15.586   7.366  0.0629 -0.1340 -0.0105
  642ERGO    R4 7143  15.824  15.501   7.608  0.0392 -0.3057 -0.0591
  642ERGO    R5 7144  15.611  15.477   7.567 -0.0074 -0.0423  0.0144
  642ERGO    C1 7145  15.593  15.683   7.887  0.3549 -0.0099  0.0183
  642ERGO    C2 7146  15.504  15.773   8.221 -0.1379 -0.0978  0.1522
  643ERGO   ROH 7147   0.127  11.032   9.755  0.0668  0.0318 -0.1507
  643ERGO    R1 7148   0.048  11.048   9.484  0.0314 -0.0231 -0.1435
  643ERGO    R2 7149   0.046  11.286   9.343 -0.0061 -0.0494 -0.1847
  643ERGO    R3 7150   0.202  11.147   9.169 -0.0171 -0.0661 -0.1816
  643ERGO    R4 7151   0.080  11.359   9.007  0.1866  0.0925 -0.1364
  643ERGO    R5 7152   0.076  11.145   8.965  0.0682  0.1119 -0.2396
  643ERGO    C1 7153   0.246  11.272   8.648  0.2886  0.1592 -0.1054
  643ERGO    C2 7154   0.500  11.267   8.399 -0.0661 -0.1107  0.2610
  644ERGO   ROH 7155   6.323   6.414   6.675 -0.0504 -0.0166 -0.1451
  644ERGO    R1 7156   6.274   6.533   6.927 -0.1350  0.1097 -0.2201
  644ERGO    R2 7157   6.034   6.656   6.989 -0.2557 -0.0915 -0.2728
  644ERGO    R3 7158   6.039   6.485   7.200 -0.0471  0.0560 -0.1536
  644ERGO    R4 7159   5.829   6.679   7.266 -0.1328 -0.0280 -0.1859
  644ERGO    R5 7160   5.999   6.624   7.391 -0.0379  0.1631 -0.2302
  644ERGO    C1 7161   5.713   6.531   7.626  0.1347  0.1474 -0.0234
  644ERGO    C2 7162   5.354   6.675   7.734 -0.2031  0.1104 -0.0249
  645ERGO   ROH 7163   8.157   4.519   9.622 -0.1077 -0.1685  0.0176
  645ERGO    R1 7164   8.055   4.512   9.358 -0.0575 -0.1308 -0.0019
  645ERGO    R2 7165   8.033   4.737   9.201 -0.1144 -0.0972  0.0640
  645ERGO    R3 7166   8.178   4.590   9.024 -0.0299  0.0116  0.0390
  645ERGO    R4 7167   8.002   4.755   8.857 -0.2172 -0.1357  0.0702
  645ERGO    R5 7168   8.023   4.537   8.849 -0.0367 -0.1268  0.0788
  645ERGO    C1 7169   8.120   4.626   8.491 -0.1978 -0.0559  0.0504
  645ERGO    C2 7170   8.155   4.660   8.181  0.1006  0.2854  0.4811
  646ERGO   ROH 7171   1.996   2.555   9.584 -0.0577 -0.0926  0.1506
  646ERGO    R1 7172   2.065   2.388   9.367 -0.1493 -0.0391  0.0785
  646ERGO    R2 7173   1.893   2.341   9.154 -0.1537  0.1964  0.0204
  646ERGO    R3 7174   2.105   2.426   9.007 -0.0616  0.1127  0.1053
  646ERGO    R4 7175   1.910   2.333   8.809  0.0123  0.1502  0.0294
  646ERGO    R5 7176   2.118   2.270   8.826 -0.0197  0.0919  0.1321
  646ERGO    C1 7177   2.119   2.409   8.470  0.1954  0.0447  0.1143
  646ERGO    C2 7178   2.054   2.442   8.123  0.2180 -0.0575 -0.0546
  647ERGO   ROH 7179   4.651   7.165   9.526 -0.0755  0.0344 -0.0038
  647ERGO    R1 7180   4.686   7.170   9.245  0.0506  0.1411  0.0133
  647ERGO    R2 7181   4.930   7.223   9.126  0.1662 -0.0879  0.1475
  647ERGO    R3 7182   4.882   6.987   8.999 -0.0629  0.0328  0.0013
  647ERGO    R4 7183   5.064   7.132   8.821  0.2455 -0.1089  0.1880
  647ERGO    R5 7184   4.872   7.046   8.767  0.1607  0.1667  0.0203
  647ERGO    C1 7185   5.098   6.857   8.525  0.0766 -0.0078  0.0745
  647ERGO    C2 7186   5.344   6.738   8.293  0.0150 -0.2997 -0.5370
  648ERGO   ROH 7187  16.531   5.711   6.067 -0.0706  0.2567 -0.0697
  648ERGO    R1 7188  16.458   5.892   6.272  0.0110  0.2066  0.0041
  648ERGO    R2 7189  16.387   5.808   6.525 -0.0558  0.1341 -0.0390
  648ERGO    R3 7190  16.582   5.980   6.603  0.0318 -0.0062  0.0551
  648ERGO    R4 7191  16.398   5.966   6.832 -0.1560  0.2088 -0.0735
  648ERGO    R5 7192  16.466   6.147   6.731  0.0714  0.1268 -0.0777
  648ERGO    C1 7193  16.588   6.219   7.085 -0.1324  0.1206 -0.0052
  648ERGO    C2 7194  16.643   6.204   7.492  0.0053 -0.0818  0.0307
  649ERGO   ROH 7195   3.072  16.130   6.811  0.3251  0.0669  0.2163
  649ERGO    R1 7196   2.973  16.072   7.070  0.2637 -0.0859  0.1593
  649ERGO    R2 7197   3.080  15.872   7.228  0.4579  0.0505  0.2019
  649ERGO    R3 7198   3.104  16.073   7.409  0.0800  0.0779  0.2319
  649ERGO    R4 7199   3.071  15.830   7.571  0.2785  0.0226  0.1951
  649ERGO    R5 7200   2.953  16.013   7.585  0.0331 -0.1244  0.1265
  649ERGO    C1 7201   3.089  15.994   7.941 -0.1807  0.0320  0.2193
  649ERGO    C2 7202   3.170  15.974   8.217  0.2368  0.0909  0.3749
  650ERGO   ROH 7203  15.986   6.918   6.193 -0.0316 -0.0043 -0.0754
  650ERGO    R1 7204  16.086   6.950   6.455 -0.0824  0.0386 -0.0609
  650ERGO    R2 7205  16.011   7.160   6.619 -0.1548  0.0372 -0.0896
  650ERGO    R3 7206  15.948   6.960   6.792 -0.1418  0.0367 -0.0859
  650ERGO    R4 7207  15.986   7.196   6.962 -0.1420  0.0339 -0.0884
  650ERGO    R5 7208  16.084   7.003   6.984 -0.1367  0.0388 -0.0919
  650ERGO    C1 7209  15.913   7.029   7.324 -0.1221  0.0315 -0.0842
  650ERGO    C2 7210  15.932   7.004   7.601 -0.0207  0.0617 -0.1125
  651ERGO   ROH 7211   2.484   4.982   6.043  0.1472  0.0936 -0.2753
  651ERGO    R1 7212   2.469   4.917   6.319 -0.0592  0.1073 -0.2830
  651ERGO    R2 7213   2.682   4.950   6.492 -0.0960 -0.1649 -0.1880
  651ERGO    R3 7214   2.502   5.095   6.634  0.0221  0.0597 -0.2632
  651ERGO    R4 7215   2.694   4.999   6.833 -0.1921 -0.2211 -0.1756
  651ERGO    R5 7216   2.478   4.975   6.840 -0.2353  0.0626 -0.2850
  651ERGO    C1 7217   2.533   5.165   7.166 -0.1373 -0.0430 -0.2390
  651ERGO    C2 7218   2.560   5.242   7.429  0.1775  0.0786 -0.3210
  652ERGO   ROH 7219  11.932   8.423   6.186 -0.1228  0.0700  0.0380
  652ERGO    R1 7220  11.824   8.420   6.447 -0.0283  0.0678  0.0781
  652ERGO    R2 7221  11.900   8.236   6.638 -0.0368 -0.0035  0.0166
  652ERGO    R3 7222  11.950   8.458   6.786  0.1152 -0.0512  0.0384
  652ERGO    R4 7223  11.839   8.264   6.977 -0.1043  0.0402  0.0006
  652ERGO    R5 7224  11.767   8.467   6.942  0.0815  0.1026 -0.0113
  652ERGO    C1 7225  11.850   8.490   7.313 -0.0009  0.0209  0.0117
  652ERGO    C2 7226  11.657   8.536   7.608  0.0635  0.0543  0.1240
  653ERGO   ROH 7227   3.287   3.744   8.258  0.2109  0.0619  0.1728
  653ERGO    R1 7228   3.395   3.825   8.009  0.1597  0.0359  0.1422
  653ERGO    R2 7229   3.554   4.050   7.982  0.1286  0.0495  0.0809
  653ERGO    R3 7230   3.727   3.873   7.869  0.1306  0.0526  0.0783
  653ERGO    R4 7231   3.759   4.118   7.712  0.0964  0.0422  0.0542
  653ERGO    R5 7232   3.715   3.919   7.634  0.1033  0.0320  0.0752
  653ERGO    C1 7233   4.040   3.991   7.449  0.0796  0.0408  0.0362
  653ERGO    C2 7234   4.290   4.026   7.285  0.0107 -0.0303  0.0475
  654ERGO   ROH 7235   0.271  12.426   6.826  0.0965 -0.0436  0.0466
  654ERGO    R1 7236   0.282  12.375   7.104  0.0761  0.0637  0.0676
  654ERGO    R2 7237   0.449  12.514   7.275  0.0968  0.0972  0.0185
  654ERGO    R3 7238   0.218  12.561   7.410  0.1022  0.1967 -0.0063
  654ERGO    R4 7239   0.423  12.532   7.619  0.0480 -0.0409  0.0223
  654ERGO    R5 7240   0.234  12.422   7.605 -0.0288  0.0943 -0.0646
  654ERGO    C1 7241   0.190  12.586   7.946  0.0247 -0.0278  0.0014
  654ERGO    C2 7242   0.329  12.640   8.241 -0.0543  0.1188 -0.0740
  655ERGO   ROH 7243   8.262   3.340  10.196 -0.0117  0.1123  0.0393
  655ERGO    R1 7244   8.378   3.474   9.976 -0.0493  0.0917  0.0061
  655ERGO    R2 7245   8.475   3.341   9.755 -0.0097  0.0642  0.0377
  655ERGO    R3 7246   8.309   3.509   9.620 -0.0588 -0.0168 -0.0024
  655ERGO    R4 7247   8.481   3.392   9.413  0.1305  0.1599  0.0536
  655ERGO    R5 7248   8.447   3.604   9.449 -0.0376  0.1263  0.0941
  655ERGO    C1 7249   8.328   3.579   9.088  0.1661  0.1395  0.0253
  655ERGO    C2 7250   8.280   3.496   8.841 -0.4211  0.0465  0.3613
  656ERGO   ROH 7251   3.589   4.326   9.771  0.1571 -0.1266 -0.0085
  656ERGO    R1 7252   3.621   4.245   9.502  0.1529 -0.1502 -0.0021
  656ERGO    R2 7253   3.470   4.349   9.296  0.0699 -0.2495  0.0044
  656ERGO    R3 7254   3.714   4.403   9.188  0.0293 -0.1501 -0.0383
  656ERGO    R4 7255   3.531   4.393   8.958 -0.0332 -0.0366  0.0123
  656ERGO    R5 7256   3.715   4.280   8.982 -0.0121 -0.0239 -0.1128
  656ERGO    C1 7257   3.794   4.469   8.660 -0.1313  0.1807 -0.0233
  656ERGO    C2 7258   3.800   4.494   8.260 -0.0701  0.2249 -0.1507
  657ERGO   ROH 7259  12.558   3.286   9.824 -0.0136 -0.1431 -0.0260
  657ERGO    R1 7260  12.616   3.186   9.565 -0.1217 -0.1129 -0.0606
  657ERGO    R2 7261  12.420   3.150   9.373 -0.1620  0.1547 -0.0652
  657ERGO    R3 7262  12.584   3.306   9.223 -0.0048  0.0363 -0.0218
  657ERGO    R4 7263  12.412   3.172   9.028  0.0529  0.0305 -0.0813
  657ERGO    R5 7264  12.629   3.175   9.028  0.0611 -0.0584  0.0508
  657ERGO    C1 7265  12.561   3.332   8.687  0.3256 -0.1530 -0.0500
  657ERGO    C2 7266  12.583   3.310   8.422  0.1530 -0.0006  0.0350
  658ERGO   ROH 7267  11.268   6.308   9.751 -0.0875 -0.0007 -0.0555
  658ERGO    R1 7268  11.337   6.142   9.533 -0.1786 -0.1008 -0.0104
  658ERGO    R2 7269  11.191   6.135   9.299 -0.0349  0.1191 -0.1149
  658ERGO    R3 7270  11.431   6.190   9.184  0.1298 -0.2254  0.0527
  658ERGO    R4 7271  11.265   6.091   8.964  0.0800  0.1720 -0.0961
  658ERGO    R5 7272  11.461   6.015   9.023 -0.0746 -0.1940 -0.0210
  658ERGO    C1 7273  11.534   6.115   8.662  0.3016 -0.1206  0.0723
  658ERGO    C2 7274  11.739   6.151   8.347  0.0663  0.3575  0.2140
  659ERGO   ROH 7275  16.650  18.183   6.563 -0.0467 -0.0163 -0.0077
  659ERGO    R1 7276  16.509  18.341   6.751  0.1680  0.0941  0.0637
  659ERGO    R2 7277  16.320  18.236   6.923 -0.0894  0.2934 -0.0893
  659ERGO    R3 7278  16.475  18.354   7.113  0.0617 -0.1305  0.0626
  659ERGO    R4 7279  16.209  18.336   7.235 -0.0595  0.3789 -0.1056
  659ERGO    R5 7280  16.331  18.515   7.216  0.3446  0.1348  0.0551
  659ERGO    C1 7281  16.290  18.504   7.595  0.1001  0.0307  0.0275
  659ERGO    C2 7282  16.516  18.396   7.882 -0.0705  0.2935  0.0151
  660ERGO   ROH 7283   0.825   7.997   9.457  0.1576  0.0076  0.0558
  660ERGO    R1 7284   0.936   8.061   9.204  0.1420  0.0930  0.0709
  660ERGO    R2 7285   1.164   7.940   9.107  0.1137  0.1007  0.0018
  660ERGO    R3 7286   1.006   7.884   8.894  0.0883  0.2084 -0.0088
  660ERGO    R4 7287   1.279   7.843   8.796  0.0846  0.2836 -0.0678
  660ERGO    R5 7288   1.127   7.970   8.706  0.0604  0.3254  0.0226
  660ERGO    C1 7289   1.197   7.734   8.415  0.0439  0.4912 -0.1182
  660ERGO    C2 7290   1.381   7.631   8.103 -0.3220 -0.0942  0.0884
  661ERGO   ROH 7291  11.272  10.398   6.462 -0.0085  0.0065  0.0483
  661ERGO    R1 7292  11.220  10.331   6.732  0.0182 -0.0033  0.0508
  661ERGO    R2 7293  10.986  10.209   6.812  0.0486 -0.0500  0.0619
  661ERGO    R3 7294  11.156  10.027   6.922  0.0891 -0.0157  0.0568
  661ERGO    R4 7295  10.974  10.099   7.140  0.0665 -0.0588  0.0597
  661ERGO    R5 7296  11.192  10.106   7.145  0.0685 -0.0103  0.0607
  661ERGO    C1 7297  11.126   9.864   7.433  0.1149 -0.0315  0.0535
  661ERGO    C2 7298  10.977   9.689   7.777  0.0733 -0.1881 -0.6132
  662ERGO   ROH 7299   5.050  10.563   6.633  0.0977 -0.0309  0.0230
  662ERGO    R1 7300   5.181  10.408   6.831  0.2865  0.1236  0.0235
  662ERGO    R2 7301   5.393  10.504   6.979  0.0407  0.4605  0.1789
  662ERGO    R3 7302   5.238  10.430   7.189  0.0569  0.0827  0.0631
  662ERGO    R4 7303   5.509  10.449   7.300 -0.0189  0.4048  0.1901
  662ERGO    R5 7304   5.376  10.277   7.313  0.2265  0.1965  0.0129
  662ERGO    C1 7305   5.432  10.347   7.684 -0.0385  0.0177  0.0878
  662ERGO    C2 7306   5.311  10.314   7.901 -0.2338 -0.0434 -0.0964
  663ERGO   ROH 7307  16.855  17.732   9.651 -0.0842 -0.2070  0.0312
  663ERGO    R1 7308  17.063  17.674   9.468  0.0464  0.0880  0.0802
  663ERGO    R2 7309  17.037  17.484   9.269  0.4127 -0.0542  0.1638
  663ERGO    R3 7310  17.110  17.689   9.107  0.0554  0.0104  0.0773
  663ERGO    R4 7311  17.069  17.462   8.926  0.2160 -0.0789  0.1460
  663ERGO    R5 7312  17.247  17.587   8.939  0.0760  0.1466  0.0074
  663ERGO    C1 7313  17.155  17.643   8.573 -0.2342 -0.0326  0.0544
  663ERGO    C2 7314  17.109  17.794   8.272  0.1599 -0.1182 -0.2365
  664ERGO   ROH 7315   9.254   8.432   8.326  0.0673 -0.0591  0.1204
  664ERGO    R1 7316   9.526   8.375   8.273  0.0280 -0.1613  0.0232
  664ERGO    R2 7317   9.626   8.118   8.264 -0.0913 -0.2045 -0.1141
  664ERGO    R3 7318   9.714   8.195   8.019 -0.1228 -0.1396 -0.1050
  664ERGO    R4 7319   9.777   7.909   8.033  0.2334 -0.0624 -0.0356
  664ERGO    R5 7320   9.915   8.070   7.986  0.0456  0.1052 -0.0285
  664ERGO    C1 7321   9.947   7.860   7.669  0.3927  0.0814  0.0186
  664ERGO    C2 7322   9.822   7.873   7.493 -0.0557  0.1549 -0.4600
  665ERGO   ROH 7323  16.601   8.631   9.271  0.0070 -0.1918  0.0339
  665ERGO    R1 7324  16.632   8.534   9.007 -0.0665 -0.0957 -0.0106
  665ERGO    R2 7325  16.472   8.618   8.798 -0.0648  0.0497  0.0462
  665ERGO    R3 7326  16.711   8.676   8.681 -0.0599  0.0082  0.0358
  665ERGO    R4 7327  16.512   8.724   8.471 -0.0772  0.1939  0.0907
  665ERGO    R5 7328  16.688   8.596   8.456 -0.1312  0.1270 -0.0008
  665ERGO    C1 7329  16.759   8.840   8.171 -0.0796  0.2390  0.1067
  665ERGO    C2 7330  16.648   9.095   7.870 -0.1559  0.4056  0.0319
  666ERGO   ROH 7331  13.211   8.968   6.240  0.3145  0.4001  0.1422
  666ERGO    R1 7332  13.247   9.053   6.507  0.1608  0.3840  0.1696
  666ERGO    R2 7333  13.055   9.195   6.646  0.0171  0.2436  0.1211
  666ERGO    R3 7334  13.085   8.995   6.828  0.0756  0.2332  0.0992
  666ERGO    R4 7335  13.038   9.236   6.988  0.0379  0.2043  0.1263
  666ERGO    R5 7336  13.205   9.097   7.008  0.0679  0.2395  0.0985
  666ERGO    C1 7337  13.056   9.072   7.359  0.1049  0.1715  0.1088
  666ERGO    C2 7338  12.896   9.183   7.655  0.4423  0.0759 -0.1638
  667ERGO   ROH 7339   1.925  16.445   6.866  0.2237 -0.0903  0.0899
  667ERGO    R1 7340   1.864  16.392   7.137 -0.0192 -0.0164  0.0528
  667ERGO    R2 7341   2.055  16.400   7.336 -0.1347 -0.2465  0.1789
  667ERGO    R3 7342   1.881  16.573   7.453 -0.0048 -0.0311  0.0597
  667ERGO    R4 7343   1.968  16.397   7.671 -0.1720  0.0338  0.1738
  667ERGO    R5 7344   1.762  16.439   7.612 -0.1308  0.1665  0.1322
  667ERGO    C1 7345   1.753  16.558   7.975 -0.0717  0.3994  0.0590
  667ERGO    C2 7346   1.453  16.593   8.282  0.0451  0.1102  0.1265
  668ERGO   ROH 7347   1.495   2.147   6.400  0.0658 -0.1255 -0.0312
  668ERGO    R1 7348   1.530   2.225   6.669  0.0418 -0.0768 -0.0412
  668ERGO    R2 7349   1.343   2.172   6.865 -0.0061  0.0134 -0.0575
  668ERGO    R3 7350   1.555   2.059   6.992 -0.0558 -0.0159 -0.0025
  668ERGO    R4 7351   1.377   2.147   7.208 -0.0100  0.1827 -0.0450
  668ERGO    R5 7352   1.588   2.196   7.186  0.0115  0.0729 -0.0775
  668ERGO    C1 7353   1.596   2.027   7.527 -0.0588  0.2539  0.0139
  668ERGO    C2 7354   1.591   1.924   7.829  0.0377 -0.1073  0.0404
  669ERGO   ROH 7355   9.622  10.163   6.329  0.0678 -0.1018  0.1083
  669ERGO    R1 7356   9.518  10.187   6.591 -0.1829 -0.0844  0.0098
  669ERGO    R2 7357   9.375   9.984   6.713 -0.0346 -0.1973 -0.0029
  669ERGO    R3 7358   9.561  10.014   6.909 -0.2329  0.1426  0.1424
  669ERGO    R4 7359   9.367   9.822   7.018  0.0391 -0.2434 -0.0251
  669ERGO    R5 7360   9.434  10.007   7.112 -0.3821 -0.1157  0.0467
  669ERGO    C1 7361   9.537   9.756   7.380 -0.1041  0.0490  0.0985
  669ERGO    C2 7362   9.704   9.600   7.544  0.0242 -0.2214 -0.0336
  670ERGO   ROH 7363  12.117   0.827  10.529 -0.0202  0.2182  0.1215
  670ERGO    R1 7364  12.064   0.736  10.266  0.0663  0.0870  0.1479
  670ERGO    R2 7365  11.813   0.754  10.151  0.0622 -0.1225  0.1145
  670ERGO    R3 7366  11.948   0.883   9.954 -0.0028 -0.1007  0.0849
  670ERGO    R4 7367  11.669   0.885   9.866 -0.0302 -0.0676  0.1864
  670ERGO    R5 7368  11.840   0.813   9.752 -0.0789 -0.0597  0.1135
  670ERGO    C1 7369  11.711   1.082   9.514 -0.1451 -0.0151  0.2005
  670ERGO    C2 7370  11.597   1.257   9.066 -0.0054 -0.0267  0.2268
  671ERGO   ROH 7371   5.103   4.690   9.461  0.1268  0.0848  0.0111
  671ERGO    R1 7372   5.049   4.640   9.188  0.0719  0.0809  0.0223
  671ERGO    R2 7373   4.793   4.616   9.088  0.0535  0.0026  0.0879
  671ERGO    R3 7374   4.876   4.810   8.917 -0.0540  0.0379  0.0752
  671ERGO    R4 7375   4.627   4.709   8.800  0.0758 -0.2100  0.0041
  671ERGO    R5 7376   4.819   4.726   8.700  0.1001 -0.0627  0.0724
  671ERGO    C1 7377   4.607   4.946   8.472 -0.0121 -0.3005 -0.0566
  671ERGO    C2 7378   4.356   5.008   8.206  0.0264 -0.1571  0.1268
  672PSPI    C1 7379  10.739   0.613   6.668  0.0150  0.1978 -0.1688
  672PSPI    C2 7380  10.663   0.812   6.329 -0.0971  0.1278 -0.1851
  672PSPI    C3 7381  11.033   0.810   6.480 -0.0138  0.0364 -0.3874
  672PSPI   PO4 7382  10.531   0.716   6.878  0.1399 -0.1384 -0.0633
  672PSPI   GL1 7383  10.361   0.623   7.248 -0.2741 -0.2275  0.6402
  672PSPI   GL2 7384  10.339   0.855   7.374 -0.1736 -0.0009 -0.2023
  672PSPI   C1A 7385  10.409   0.307   7.458  0.0320 -0.0818 -0.0160
  672PSPI   C2A 7386  10.594   0.183   7.825 -0.1240 -0.0952 -0.2149
  672PSPI   C3A 7387  10.427   0.200   8.236  0.1492 -0.0172 -0.0603
  672PSPI   C4A 7388  10.407   0.466   8.662 -0.1880  0.1719  0.2438
  672PSPI   C1B 7389  10.259   0.968   7.805  0.1888 -0.0904  0.3325
  672PSPI   C2B 7390  10.354   0.893   8.190  0.0413 -0.2686  0.0202
  672PSPI   C3B 7391  10.484   0.953   8.501 -0.0033  0.0627 -0.1425
  672PSPI   C4B 7392  10.886   0.891   8.659 -0.1101  0.0378  0.1233
  673PSPI    C1 7393   7.505   8.869   6.189  0.0228  0.2218 -0.1471
  673PSPI    C2 7394   7.703   9.207   6.272  0.4067 -0.0423  0.0428
  673PSPI    C3 7395   7.837   8.962   5.985  0.0260  0.0508 -0.2212
  673PSPI   PO4 7396   7.222   8.927   6.234  0.2706 -0.2778  0.0206
  673PSPI   GL1 7397   6.991   8.822   6.620  0.0644  0.0384  0.1731
  673PSPI   GL2 7398   6.799   9.107   6.648 -0.4790  0.2828 -0.0305
  673PSPI   C1A 7399   7.110   9.004   6.961 -0.2050 -0.3210  0.1102
  673PSPI   C2A 7400   7.182   9.065   7.443 -0.0926 -0.0258 -0.2411
  673PSPI   C3A 7401   7.245   9.120   7.881  0.1581 -0.0696  0.0205
  673PSPI   C4A 7402   7.113   9.306   8.335 -0.0076  0.0130 -0.0242
  673PSPI   C1B 7403   6.590   9.091   6.963  0.3132 -0.2509  0.1469
  673PSPI   C2B 7404   6.299   8.983   7.279  0.1732  0.0424 -0.1023
  673PSPI   C3B 7405   6.128   9.091   7.660  0.0959 -0.0858  0.2323
  673PSPI   C4B 7406   5.922   9.025   8.098 -0.0962  0.1880  0.0148
  674PSPI    C1 7407   7.267  17.075   6.098  0.1900 -0.0201 -0.1532
  674PSPI    C2 7408   7.078  17.377   5.916  0.0697 -0.1172 -0.1912
  674PSPI    C3 7409   7.454  17.286   5.814  0.0599 -0.0657 -0.2738
  674PSPI   PO4 7410   7.200  17.100   6.360 -0.3576  0.0699  0.0212
  674PSPI   GL1 7411   7.530  17.050   6.709  0.0585 -0.0087  0.0868
  674PSPI   GL2 7412   7.636  16.908   6.492  0.1073 -0.0884  0.1052
  674PSPI   C1A 7413   7.283  16.943   7.127 -0.0908  0.5822 -0.2017
  674PSPI   C2A 7414   7.212  16.830   7.544 -0.0040 -0.0806 -0.0061
  674PSPI   C3A 7415   7.043  17.006   7.794 -0.0627  0.0795 -0.2299
  674PSPI   C4A 7416   7.042  17.322   8.163 -0.1701  0.3472 -0.0866
  674PSPI   C1B 7417   7.771  16.841   7.027  0.4690 -0.1494  0.0225
  674PSPI   C2B 7418   7.784  16.828   7.448 -0.3395 -0.0409  0.0892
  674PSPI   C3B 7419   7.571  16.887   7.834  0.0738 -0.0835  0.2460
  674PSPI   C4B 7420   7.246  16.590   8.021  0.0614 -0.3613 -0.1030
  675PSPI    C1 7421  13.104   1.253   5.980  0.0923  0.0529  0.0262
  675PSPI    C2 7422  12.812   1.317   5.714  0.1250 -0.5700 -0.1734
  675PSPI    C3 7423  13.194   1.374   5.609  0.0978  0.0589  0.0294
  675PSPI   PO4 7424  13.033   1.351   6.162  0.1418 -0.0593  0.0901
  675PSPI   GL1 7425  13.102   1.538   6.609  0.2766 -0.0741  0.3459
  675PSPI   GL2 7426  13.394   1.464   6.751 -0.3353  0.1762  0.3816
  675PSPI   C1A 7427  13.007   1.636   7.018 -0.3335  0.1664  0.0533
  675PSPI   C2A 7428  13.017   1.525   7.530 -0.0594 -0.0426  0.1867
  675PSPI   C3A 7429  13.122   1.462   7.891  0.0322  0.3597  0.1726
  675PSPI   C4A 7430  13.170   1.263   8.238  0.0829 -0.1807  0.2768
  675PSPI   C1B 7431  13.229   1.164   7.074  0.1242 -0.1401  0.0701
  675PSPI   C2B 7432  13.279   1.111   7.457 -0.0498 -0.0776 -0.4935
  675PSPI   C3B 7433  13.158   0.929   7.794 -0.1413  0.0187  0.1157
  675PSPI   C4B 7434  13.286   0.684   8.120  0.1498  0.1672 -0.2821
  676PSPI    C1 7435  15.280  15.564   6.315 -0.3126  0.2062  0.1438
  676PSPI    C2 7436  15.520  15.860   6.438 -0.2488  0.1544  0.1446
  676PSPI    C3 7437  15.612  15.480   6.522 -0.1719  0.1136 -0.1150
  676PSPI   PO4 7438  15.018  15.689   6.315 -0.1422  0.3067  0.0822
  676PSPI   GL1 7439  14.737  15.802   6.748 -0.2920  0.0074  0.2867
  676PSPI   GL2 7440  14.379  15.683   6.748  0.1099 -0.0687 -0.0216
  676PSPI   C1A 7441  14.886  15.880   7.103  0.3027  0.1523  0.0569
  676PSPI   C2A 7442  14.762  15.962   7.535  0.2354 -0.2849  0.4644
  676PSPI   C3A 7443  14.847  16.229   7.826  0.0952 -0.1583  0.1817
  676PSPI   C4A 7444  14.637  16.325   8.106  0.0496  0.1925  0.0145
  676PSPI   C1B 7445  14.373  15.833   7.228 -0.1740  0.0572  0.0859
  676PSPI   C2B 7446  14.309  15.742   7.682 -0.1115 -0.0861  0.3126
  676PSPI   C3B 7447  14.583  15.828   7.973  0.0207 -0.2317 -0.3591
  676PSPI   C4B 7448  14.692  15.716   8.352 -0.0806 -0.3633  0.0646
  677PSPI    C1 7449  15.096   5.308   5.920  0.2552 -0.0121  0.0663
  677PSPI    C2 7450  14.993   4.947   6.059 -0.0532  0.0260 -0.0545
  677PSPI    C3 7451  15.224   4.978   5.733 -0.0673 -0.0625 -0.0733
  677PSPI   PO4 7452  14.818   5.452   5.966 -0.0014 -0.1492  0.1176
  677PSPI   GL1 7453  14.406   5.573   6.309 -0.0115 -0.0361 -0.0151
  677PSPI   GL2 7454  14.704   5.841   6.374 -0.2487  0.2083  0.0596
  677PSPI   C1A 7455  14.521   5.420   6.757  0.2417  0.0581 -0.1469
  677PSPI   C2A 7456  14.519   5.419   7.214 -0.2348 -0.2725 -0.0145
  677PSPI   C3A 7457  14.419   5.435   7.639 -0.2153 -0.1681 -0.0289
  677PSPI   C4A 7458  14.249   5.590   8.025  0.0423 -0.2559 -0.0891
  677PSPI   C1B 7459  14.927   5.648   6.801 -0.1998 -0.0745  0.2333
  677PSPI   C2B 7460  15.275   5.759   7.125 -0.1097 -0.1527 -0.1163
  677PSPI   C3B 7461  15.366   5.665   7.441  0.1621 -0.2877 -0.2375
  677PSPI   C4B 7462  15.169   5.956   7.874 -0.0072 -0.0443  0.0413
  678PSPI    C1 7463   7.849   0.527   6.761 -0.1245 -0.1547 -0.1056
  678PSPI    C2 7464   8.002   0.590   6.396 -0.1966  0.2470 -0.0706
  678PSPI    C3 7465   8.080   0.847   6.693 -0.1712 -0.0556  0.1895
  678PSPI   PO4 7466   7.591   0.492   6.651 -0.1978 -0.0997  0.0141
  678PSPI   GL1 7467   7.275   0.721   6.819  0.3190 -0.0457 -0.0545
  678PSPI   GL2 7468   7.509   0.989   6.857 -0.0323 -0.1068  0.1350
  678PSPI   C1A 7469   7.292   0.592   7.268  0.3135 -0.0704  0.1836
  678PSPI   C2A 7470   7.231   0.786   7.661  0.0235 -0.1441  0.0465
  678PSPI   C3A 7471   7.217   1.125   7.877 -0.0696 -0.2971  0.3573
  678PSPI   C4A 7472   6.860   1.286   7.642 -0.1308 -0.1881 -0.0610
  678PSPI   C1B 7473   7.747   0.884   7.245  0.1447  0.0908  0.1287
  678PSPI   C2B 7474   7.682   0.843   7.782 -0.0282 -0.1763  0.0999
  678PSPI   C3B 7475   7.631   1.144   8.108 -0.0207 -0.2436 -0.0369
  678PSPI   C4B 7476   7.307   1.338   8.308  0.4549  0.1683  0.1579
  679PSPI    C1 7477   1.256  17.297   6.303 -0.0630  0.0914  0.2319
  679PSPI    C2 7478   0.995  17.120   6.057 -0.1749  0.3425  0.1662
  679PSPI    C3 7479   1.349  17.243   5.917 -0.2111  0.4242  0.1459
  679PSPI   PO4 7480   1.112  17.290   6.583 -0.0264  0.1323 -0.0663
  679PSPI   GL1 7481   1.290  17.478   6.925  0.1108 -0.2487  0.1996
  679PSPI   GL2 7482   1.186  17.778   6.917 -0.1290  0.0101  0.4521
  679PSPI   C1A 7483   1.220  17.376   7.299 -0.1800 -0.0854  0.0229
  679PSPI   C2A 7484   1.189  17.542   7.752 -0.0233 -0.1703  0.0456
  679PSPI   C3A 7485   1.369  17.681   8.141  0.0260  0.1225 -0.5113
  679PSPI   C4A 7486   1.359  17.547   8.548  0.0639  0.1517 -0.0232
  679PSPI   C1B 7487   1.435  17.830   7.375 -0.1381 -0.0015  0.4983
  679PSPI   C2B 7488   1.522  18.050   7.705 -0.0483 -0.1354 -0.1024
  679PSPI   C3B 7489   1.491  18.137   8.105 -0.3008  0.4217 -0.0389
  679PSPI   C4B 7490   1.343  18.300   8.431 -0.0388  0.3526 -0.2139
  680PSPI    C1 7491  10.667  11.744   6.183 -0.2154  0.2184  0.2056
  680PSPI    C2 7492  10.449  11.424   6.285  0.0214 -0.0615 -0.1370
  680PSPI    C3 7493  10.393  11.598   5.930  0.0423  0.1491 -0.0388
  680PSPI   PO4 7494  10.636  11.848   6.462 -0.0595  0.1070 -0.0331
  680PSPI   GL1 7495  10.753  11.625   6.817  0.3476 -0.2698 -0.2130
  680PSPI   GL2 7496  10.763  11.862   6.915  0.4868 -0.1168 -0.1704
  680PSPI   C1A 7497  10.774  11.477   7.221 -0.1041  0.0127 -0.1784
  680PSPI   C2A 7498  10.774  11.415   7.594 -0.1884 -0.1283  0.1431
  680PSPI   C3A 7499  10.801  11.137   8.012  0.0177 -0.1620 -0.1808
  680PSPI   C4A 7500  10.696  11.110   8.481 -0.0532 -0.2106 -0.2728
  680PSPI   C1B 7501  10.969  11.941   7.291 -0.0923  0.0945  0.2473
  680PSPI   C2B 7502  10.843  11.930   7.670  0.1779  0.0915  0.2082
  680PSPI   C3B 7503  10.816  11.725   7.969 -0.1045  0.2033 -0.0944
  680PSPI   C4B 7504  10.995  11.630   8.338 -0.2255 -0.0301 -0.1493
  681PSPI    C1 7505   0.679   0.364   6.152  0.0601  0.0850  0.1519
  681PSPI    C2 7506   0.684   0.087   5.863  0.4586  0.0891  0.1492
  681PSPI    C3 7507   0.675   0.476   5.768  0.3751  0.0868  0.1466
  681PSPI   PO4 7508   0.856   0.276   6.300  0.0687  0.3881 -0.3285
  681PSPI   GL1 7509   0.884   0.367   6.781  0.1027  0.0553 -0.1371
  681PSPI   GL2 7510   0.619   0.085   6.867  0.1496 -0.1767 -0.0659
  681PSPI   C1A 7511   0.758   0.467   7.177 -0.2619  0.0787 -0.1004
  681PSPI   C2A 7512   0.792   0.827   7.526  0.2011  0.1425 -0.1145
  681PSPI   C3A 7513   0.786   1.174   7.745 -0.2689  0.0696 -0.1716
  681PSPI   C4A 7514   0.878   1.328   8.223  0.0367  0.0122 -0.3019
  681PSPI   C1B 7515   0.635  -0.034   7.266 -0.1749 -0.1922 -0.1388
  681PSPI   C2B 7516   0.570   0.037   7.687 -0.0873 -0.1082  0.1712
  681PSPI   C3B 7517   0.758   0.396   7.857  0.0569 -0.2272  0.1848
  681PSPI   C4B 7518   0.786   0.788   8.053  0.1233 -0.6650 -0.1698
  682PSPI    C1 7519   9.548  18.014   6.379 -0.1321 -0.1814 -0.0833
  682PSPI    C2 7520   9.259  18.083   6.111 -0.1382 -0.1065 -0.0581
  682PSPI    C3 7521   9.531  17.797   6.044 -0.0196  0.0460 -0.2389
  682PSPI   PO4 7522   9.369  17.974   6.618  0.4448  0.0840  0.0504
  682PSPI   GL1 7523   9.314  17.706   7.025 -0.1448  0.0111  0.0926
  682PSPI   GL2 7524   8.970  17.822   6.855  0.2787 -0.2681 -0.0465
  682PSPI   C1A 7525   9.371  17.561   7.424 -0.0642 -0.2379 -0.1061
  682PSPI   C2A 7526   9.267  17.844   7.859  0.3229 -0.2004 -0.2929
  682PSPI   C3A 7527   9.181  18.084   8.170  0.0294  0.1136 -0.0766
  682PSPI   C4A 7528   8.910  17.965   8.470  0.0733 -0.0888 -0.1502
  682PSPI   C1B 7529   8.886  17.831   7.355 -0.3802  0.0113 -0.0490
  682PSPI   C2B 7530   8.811  18.126   7.686  0.2263  0.0268 -0.1004
  682PSPI   C3B 7531   8.584  18.139   8.063 -0.1174 -0.1557 -0.1800
  682PSPI   C4B 7532   8.770  18.410   8.299 -0.0220  0.0164 -0.0468
  683PSPI    C1 7533   5.709   0.871   6.860  0.0036 -0.0352  0.0188
  683PSPI    C2 7534   5.752   0.788   6.471  0.0140  0.1176 -0.0135
  683PSPI    C3 7535   5.548   0.538   6.708  0.1173 -0.0410 -0.0901
  683PSPI   PO4 7536   5.627   1.087   6.898 -0.1954 -0.0845 -0.1216
  683PSPI   GL1 7537   5.399   1.219   7.126  0.1308  0.2493 -0.1702
  683PSPI   GL2 7538   5.524   1.371   7.421  0.0369 -0.3707 -0.0089
  683PSPI   C1A 7539   5.257   0.919   7.383  0.0690 -0.1169  0.2103
  683PSPI   C2A 7540   5.159   0.621   7.600 -0.1034  0.0323  0.1660
  683PSPI   C3A 7541   5.095   0.590   8.067 -0.0501  0.0751  0.0373
  683PSPI   C4A 7542   5.008   0.747   8.288 -0.1625  0.0620  0.1971
  683PSPI   C1B 7543   5.510   1.498   7.864  0.4833 -0.0824  0.1786
  683PSPI   C2B 7544   5.411   1.723   8.133  0.4292  0.1201 -0.2048
  683PSPI   C3B 7545   5.472   1.982   8.430 -0.0692  0.0747  0.2547
  683PSPI   C4B 7546   5.834   2.190   8.619 -0.2823  0.0580 -0.0088
  684PSPI    C1 7547  14.008   4.973   6.014 -0.2464  0.0162  0.1392
  684PSPI    C2 7548  13.864   4.735   5.727 -0.0743  0.3120 -0.1999
  684PSPI    C3 7549  14.227   4.898   5.688 -0.0475  0.3547  0.1905
  684PSPI   PO4 7550  13.819   5.114   6.218 -0.0589  0.1384 -0.0460
  684PSPI   GL1 7551  14.093   5.209   6.530 -0.0856 -0.1744 -0.0797
  684PSPI   GL2 7552  14.448   4.963   6.552 -0.0593 -0.1149  0.3944
  684PSPI   C1A 7553  14.129   5.208   7.020 -0.0919 -0.1725 -0.2788
  684PSPI   C2A 7554  13.992   5.114   7.432 -0.1276  0.2209 -0.0016
  684PSPI   C3A 7555  13.684   5.240   7.606 -0.2704  0.0715 -0.0017
  684PSPI   C4A 7556  13.593   5.635   7.758  0.0153  0.2646  0.1367
  684PSPI   C1B 7557  14.536   4.951   6.918  0.1911 -0.0727  0.0624
  684PSPI   C2B 7558  14.542   4.912   7.308 -0.1942 -0.0719 -0.1595
  684PSPI   C3B 7559  14.659   4.858   7.782 -0.2113 -0.2074  0.2291
  684PSPI   C4B 7560  14.335   4.934   8.036  0.1917 -0.3068 -0.2742
  685PSPI    C1 7561   4.736  15.451   6.326 -0.1772  0.3629  0.1213
  685PSPI    C2 7562   4.760  15.490   5.929  0.1001  0.0562  0.1040
  685PSPI    C3 7563   4.463  15.277   6.091  0.0419  0.1004  0.0556
  685PSPI   PO4 7564   5.035  15.267   6.404 -0.0238 -0.0134  0.1035
  685PSPI   GL1 7565   5.234  15.077   6.659  0.2571 -0.3001  0.0775
  685PSPI   GL2 7566   5.532  14.920   6.492  0.1575 -0.0193 -0.1192
  685PSPI   C1A 7567   5.277  14.880   7.064  0.2479 -0.0807  0.1037
  685PSPI   C2A 7568   5.237  14.910   7.465  0.0171 -0.0182 -0.2324
  685PSPI   C3A 7569   5.175  14.831   7.858  0.2575 -0.1916 -0.0019
  685PSPI   C4A 7570   5.258  14.842   8.194 -0.0539  0.1512  0.3421
  685PSPI   C1B 7571   5.673  15.092   6.922  0.0216 -0.1627 -0.0824
  685PSPI   C2B 7572   5.726  15.097   7.424  0.1971 -0.0313  0.4104
  685PSPI   C3B 7573   5.665  14.960   7.904  0.2082  0.0164  0.0021
  685PSPI   C4B 7574   5.785  14.897   8.334  0.0364 -0.0654 -0.0826
  686PSPI    C1 7575  13.392   5.757   5.863 -0.0295  0.3349 -0.3178
  686PSPI    C2 7576  13.045   5.564   5.810  0.0623  0.1426 -0.2262
  686PSPI    C3 7577  13.092   5.934   5.665 -0.2079  0.2005 -0.1713
  686PSPI   PO4 7578  13.572   5.565   6.004 -0.0167 -0.0146 -0.0549
  686PSPI   GL1 7579  13.627   5.458   6.489  0.2267  0.2412  0.3016
  686PSPI   GL2 7580  13.547   5.767   6.431  0.2350  0.1747 -0.1418
  686PSPI   C1A 7581  13.572   5.254   6.878 -0.5865 -0.1216 -0.0635
  686PSPI   C2A 7582  13.412   5.361   7.171 -0.0173 -0.0074  0.0881
  686PSPI   C3A 7583  13.159   5.356   7.457 -0.0554  0.1374 -0.1737
  686PSPI   C4A 7584  12.602   5.364   7.622 -0.0378 -0.1844  0.1166
  686PSPI   C1B 7585  13.500   5.825   6.915  0.3292  0.2305  0.0551
  686PSPI   C2B 7586  13.475   5.901   7.289 -0.1398 -0.2411  0.2006
  686PSPI   C3B 7587  13.749   6.083   7.563  0.2191 -0.3028  0.2053
  686PSPI   C4B 7588  13.960   6.029   7.974  0.2053 -0.1736  0.2521
  687PSPI    C1 7589   5.528   8.323   5.634  0.1318  0.0351 -0.0802
  687PSPI    C2 7590   5.535   8.535   5.295  0.0891  0.1975  0.0191
  687PSPI    C3 7591   5.823   8.267   5.369 -0.0007  0.0285 -0.2278
  687PSPI   PO4 7592   5.455   8.431   5.884  0.2394  0.0361  0.2849
  687PSPI   GL1 7593   5.294   8.427   6.267  0.3435 -0.0531 -0.1230
  687PSPI   GL2 7594   5.427   8.234   6.544 -0.0182  0.1405 -0.1660
  687PSPI   C1A 7595   4.965   8.329   6.642  0.0721 -0.2380  0.1577
  687PSPI   C2A 7596   4.717   8.388   7.016 -0.1481 -0.1291 -0.0601
  687PSPI   C3A 7597   4.690   8.670   7.306 -0.0211  0.0315 -0.0345
  687PSPI   C4A 7598   4.463   8.784   7.637 -0.1524 -0.2231 -0.2786
  687PSPI   C1B 7599   5.632   8.255   6.966  0.0116  0.1354 -0.3178
  687PSPI   C2B 7600   5.697   8.304   7.354 -0.2684  0.1201 -0.2409
  687PSPI   C3B 7601   5.823   8.274   7.825  0.1534 -0.1333 -0.1463
  687PSPI   C4B 7602   5.567   8.060   8.095 -0.0417 -0.2548  0.1338
  688PSPI    C1 7603   2.603   8.540   5.838 -0.1884 -0.0714  0.0960
  688PSPI    C2 7604   2.843   8.466   5.527  0.0391 -0.1697  0.2924
  688PSPI    C3 7605   2.450   8.508   5.469  0.0713 -0.2451  0.0003
  688PSPI   PO4 7606   2.731   8.679   5.970 -0.0513 -0.3735 -0.0761
  688PSPI   GL1 7607   2.853   8.408   6.350 -0.1305  0.0333 -0.0106
  688PSPI   GL2 7608   2.811   8.644   6.506 -0.3298  0.2171  0.2112
  688PSPI   C1A 7609   3.261   8.235   6.477 -0.0057  0.1452  0.0312
  688PSPI   C2A 7610   3.584   8.040   6.714 -0.0937  0.0077  0.1387
  688PSPI   C3A 7611   3.486   7.618   7.039 -0.0546  0.1343 -0.1921
  688PSPI   C4A 7612   3.236   7.326   7.249 -0.1329 -0.0607  0.0149
  688PSPI   C1B 7613   2.872   8.317   6.866 -0.0537  0.0778  0.0221
  688PSPI   C2B 7614   3.007   8.379   7.239  0.0787  0.1402 -0.2293
  688PSPI   C3B 7615   3.003   8.585   7.659  0.3497 -0.2263  0.0448
  688PSPI   C4B 7616   2.975   8.537   8.052  0.1447 -0.3792 -0.2522
  689PSPI    C1 7617  11.320   5.587   5.753  0.1177  0.1792 -0.2790
  689PSPI    C2 7618  11.719   5.582   5.728  0.1201  0.1616 -0.2389
  689PSPI    C3 7619  11.498   5.417   5.438  0.1479 -0.0735 -0.1285
  689PSPI   PO4 7620  11.270   5.445   6.045  0.2984 -0.0625  0.2658
  689PSPI   GL1 7621  10.965   5.428   6.368 -0.1946  0.0218 -0.0662
  689PSPI   GL2 7622  11.168   5.089   6.388 -0.2558 -0.1988 -0.0979
  689PSPI   C1A 7623  11.020   5.435   6.804 -0.0269 -0.1241  0.0408
  689PSPI   C2A 7624  11.048   5.440   7.257 -0.1905 -0.2711  0.2629
  689PSPI   C3A 7625  10.764   5.582   7.498 -0.0068  0.2774 -0.0611
  689PSPI   C4A 7626  10.594   5.515   7.846  0.1489 -0.0033 -0.0510
  689PSPI   C1B 7627  11.516   5.214   6.649 -0.0197 -0.1340  0.2482
  689PSPI   C2B 7628  11.494   5.281   7.028 -0.0102  0.1106 -0.0535
  689PSPI   C3B 7629  11.427   5.494   7.537 -0.1644  0.0575  0.0790
  689PSPI   C4B 7630  11.632   5.666   7.865  0.1062 -0.5260  0.0399
  690PSPI    C1 7631  17.850  13.422   6.727  0.1649 -0.1117  0.0485
  690PSPI    C2 7632  18.020  13.212   6.432 -0.1171 -0.3208  0.0309
  690PSPI    C3 7633  18.047  13.084   6.810  0.2947 -0.0217  0.1098
  690PSPI   PO4 7634  17.991  13.677   6.683 -0.0821  0.0697 -0.0594
  690PSPI   GL1 7635  17.738  13.922   7.014  0.0846 -0.0309 -0.1491
  690PSPI   GL2 7636  17.643  14.271   7.060 -0.0643 -0.3918 -0.1506
  690PSPI   C1A 7637  17.781  13.739   7.395  0.1829 -0.0008  0.0522
  690PSPI   C2A 7638  17.696  13.669   7.818  0.0327  0.0275  0.0779
  690PSPI   C3A 7639  17.438  13.740   8.163 -0.2380 -0.0080  0.1272
  690PSPI   C4A 7640  17.481  13.657   8.670  0.1020 -0.3164 -0.1926
  690PSPI   C1B 7641  17.666  14.201   7.560  0.0076  0.3587 -0.0271
  690PSPI   C2B 7642  17.835  14.218   7.928 -0.1780  0.0372  0.1854
  690PSPI   C3B 7643  18.030  13.891   8.146 -0.0317  0.1457  0.4130
  690PSPI   C4B 7644  17.953  13.701   8.501 -0.2409 -0.0090 -0.1503
  691PSPI    C1 7645  13.056   8.796   5.723  0.1897 -0.0572 -0.0827
  691PSPI    C2 7646  12.962   8.613   5.380  0.0866 -0.0830 -0.0409
  691PSPI    C3 7647  12.673   8.765   5.611  0.1671  0.0733 -0.0425
  691PSPI   PO4 7648  13.226   8.659   5.804  0.1174 -0.0112 -0.4014
  691PSPI   GL1 7649  13.221   8.471   6.156 -0.3462 -0.0592 -0.0361
  691PSPI   GL2 7650  13.094   8.173   6.286 -0.0509 -0.0868 -0.1120
  691PSPI   C1A 7651  13.325   8.534   6.517 -0.1084  0.0473 -0.3848
  691PSPI   C2A 7652  13.394   8.618   6.888  0.1634  0.1528 -0.2116
  691PSPI   C3A 7653  13.299   8.623   7.281 -0.1002 -0.0632 -0.3348
  691PSPI   C4A 7654  13.599   8.341   7.574  0.1954  0.2679 -0.1855
  691PSPI   C1B 7655  12.984   8.155   6.633  0.1732  0.2458  0.0233
  691PSPI   C2B 7656  12.705   7.975   6.967 -0.0212  0.1434 -0.1591
  691PSPI   C3B 7657  12.433   7.659   7.241  0.1360 -0.1139  0.0434
  691PSPI   C4B 7658  12.109   7.281   7.150  0.0026 -0.0578  0.0504
  692POPI    C1 7659   1.528   4.557   5.869 -0.0006  0.1494 -0.1774
  692POPI    C2 7660   1.188   4.628   5.671  0.0332  0.1030 -0.2522
  692POPI    C3 7661   1.312   4.252   5.727 -0.0083  0.1132 -0.0888
  692POPI   PO4 7662   1.582   4.859   5.887 -0.0172  0.0341 -0.2910
  692POPI   GL1 7663   1.630   5.170   6.245 -0.1583 -0.1940 -0.0127
  692POPI   GL2 7664   1.951   5.216   6.165 -0.0025  0.1299 -0.3430
  692POPI   C1A 7665   1.256   5.031   6.518 -0.2773 -0.0182  0.1044
  692POPI   D2A 7666   1.111   4.603   6.747  0.0378  0.2113  0.1552
  692POPI   C3A 7667   1.198   4.805   7.011  0.0193 -0.0661 -0.0410
  692POPI   C4A 7668   1.003   4.794   7.282 -0.0641 -0.2261  0.2189
  692POPI   C1B 7669   2.023   5.127   6.576  0.0640 -0.4537 -0.0972
  692POPI   C2B 7670   2.059   5.217   6.966 -0.1245 -0.1959 -0.0358
  692POPI   C3B 7671   2.052   5.255   7.446 -0.0721  0.0305 -0.0680
  692POPI   C4B 7672   1.925   4.855   7.728  0.0153 -0.0018 -0.0221
  693POPI    C1 7673   7.292   1.138   6.345  0.1029  0.0696  0.1834
  693POPI    C2 7674   7.292   0.743   6.282  0.1054  0.0671  0.1990
  693POPI    C3 7675   7.626   0.926   6.405  0.1233  0.0850  0.1243
  693POPI   PO4 7676   7.096   1.208   6.586  0.2670 -0.1646 -0.0378
  693POPI   GL1 7677   7.026   1.128   7.042  0.2113  0.3184 -0.1966
  693POPI   GL2 7678   6.806   1.169   7.158 -0.3995 -0.0255  0.1158
  693POPI   C1A 7679   7.339   1.240   7.346 -0.0923  0.0418  0.0463
  693POPI   D2A 7680   7.747   1.321   7.623  0.1130 -0.1426  0.2730
  693POPI   C3A 7681   8.117   1.228   7.597 -0.0709 -0.0770  0.2141
  693POPI   C4A 7682   8.554   1.370   7.462 -0.1958  0.3948 -0.2498
  693POPI   C1B 7683   6.853   0.837   7.337  0.2620  0.2261  0.1688
  693POPI   C2B 7684   6.736   0.575   7.637 -0.0732 -0.0051  0.0263
  693POPI   C3B 7685   6.558   0.456   8.014  0.0965  0.1691 -0.0730
  693POPI   C4B 7686   6.462   0.635   8.379 -0.1170 -0.3035  0.1028
  694POPI    C1 7687  11.079   2.513   6.692  0.0466  0.0321  0.2010
  694POPI    C2 7688  10.932   2.825   6.488  0.0234  0.0440  0.2359
  694POPI    C3 7689  11.299   2.687   6.406 -0.0956 -0.1316 -0.0107
  694POPI   PO4 7690  11.090   2.541   6.892  0.0075  0.0258 -0.1594
  694POPI   GL1 7691  11.108   2.746   7.265  0.0029 -0.0379 -0.0577
  694POPI   GL2 7692  11.034   3.033   7.310  0.0132  0.0252  0.3468
  694POPI   C1A 7693  10.966   2.727   7.702 -0.1578  0.1976 -0.0444
  694POPI   D2A 7694  11.106   2.844   8.089  0.1138 -0.1540  0.0628
  694POPI   C3A 7695  11.248   3.327   8.244 -0.0073  0.0845  0.1333
  694POPI   C4A 7696  11.154   3.741   8.431  0.0308 -0.1545  0.1369
  694POPI   C1B 7697  11.358   3.073   7.660  0.0233  0.3082 -0.1670
  694POPI   C2B 7698  11.665   2.992   7.940 -0.3190  0.2788  0.2350
  694POPI   C3B 7699  11.844   2.763   8.381  0.0501 -0.2678  0.0932
  694POPI   C4B 7700  11.753   2.698   8.831  0.0080 -0.1824  0.0336
  695POPI    C1 7701   3.425  10.334   6.242 -0.1077  0.0233 -0.0750
  695POPI    C2 7702   3.076  10.351   6.436 -0.0419  0.1922  0.0307
  695POPI    C3 7703   3.087  10.230   6.055 -0.2058  0.1157  0.0493
  695POPI   PO4 7704   3.575  10.225   6.442 -0.1236 -0.4683  0.0753
  695POPI   GL1 7705   3.878  10.348   6.670  0.0768  0.0285 -0.1287
  695POPI   GL2 7706   4.146  10.485   6.804  0.2475 -0.0516 -0.1614
  695POPI   C1A 7707   3.818  10.495   7.176 -0.0041 -0.1363 -0.1040
  695POPI   D2A 7708   3.531  10.598   7.477  0.0042 -0.4349  0.3348
  695POPI   C3A 7709   3.669  10.554   7.988  0.0222  0.0316  0.0638
  695POPI   C4A 7710   3.618  10.620   8.454  0.1299 -0.0222  0.1068
  695POPI   C1B 7711   4.271  10.225   7.191 -0.0465 -0.1097  0.1478
  695POPI   C2B 7712   4.354  10.304   7.549  0.1616 -0.2121  0.1195
  695POPI   C3B 7713   4.186  10.318   7.943  0.2282 -0.2363  0.1820
  695POPI   C4B 7714   4.079  10.422   8.264  0.0226  0.0066  0.2853
  696POPI    C1 7715  14.246   5.758   5.749  0.0493  0.0903  0.1853
  696POPI    C2 7716  14.078   5.441   5.926 -0.0266  0.0966  0.1253
  696POPI    C3 7717  14.347   5.388   5.636 -0.1957  0.0863 -0.0317
  696POPI   PO4 7718  14.371   5.884   5.940  0.3913  0.2094 -0.1550
  696POPI   GL1 7719  14.114   5.998   6.303 -0.0949  0.2047  0.3711
  696POPI   GL2 7720  13.959   5.798   6.211  0.0745  0.0858  0.1807
  696POPI   C1A 7721  14.394   6.015   6.673  0.1268 -0.1072 -0.0595
  696POPI   D2A 7722  14.421   5.966   7.094  0.2452 -0.0044  0.3102
  696POPI   C3A 7723  14.793   5.847   7.332 -0.0807 -0.3498 -0.1134
  696POPI   C4A 7724  14.874   5.556   7.497  0.0645 -0.0712 -0.1206
  696POPI   C1B 7725  14.044   5.656   6.691  0.1044 -0.1586 -0.0923
  696POPI   C2B 7726  13.930   5.611   7.171 -0.0111  0.1783  0.4532
  696POPI   C3B 7727  14.064   5.780   7.440  0.1043  0.2678  0.2819
  696POPI   C4B 7728  14.383   5.894   7.708 -0.4470  0.0427 -0.1486
  697POPI    C1 7729  12.744  16.436   6.411 -0.0291  0.1640  0.0502
  697POPI    C2 7730  12.471  16.173   6.282  0.0152  0.0588  0.1692
  697POPI    C3 7731  12.536  16.510   6.077  0.0895 -0.1087 -0.0869
  697POPI   PO4 7732  12.727  16.523   6.593  0.0065  0.2931  0.3024
  697POPI   GL1 7733  12.397  16.490   6.949  0.2809  0.0286  0.1814
  697POPI   GL2 7734  12.421  16.271   7.165  0.3574  0.1533 -0.0832
  697POPI   C1A 7735  12.303  16.752   7.341  0.1215  0.0768  0.1256
  697POPI   D2A 7736  12.453  16.872   7.729 -0.0873  0.0891 -0.0962
  697POPI   C3A 7737  12.603  17.235   7.985  0.0044 -0.1930  0.5238
  697POPI   C4A 7738  12.801  17.291   8.321 -0.2597  0.0187  0.0121
  697POPI   C1B 7739  12.350  16.276   7.613 -0.2153  0.2498 -0.2377
  697POPI   C2B 7740  12.432  16.332   7.942  0.1760  0.1247  0.3082
  697POPI   C3B 7741  12.269  16.614   8.277 -0.0478 -0.1620 -0.1172
  697POPI   C4B 7742  11.917  16.520   8.519  0.1654  0.0677  0.0033
  698POPI    C1 7743   0.823  15.970   6.448 -0.0684 -0.1168 -0.0430
  698POPI    C2 7744   0.564  15.690   6.326  0.1709 -0.2513 -0.2513
  698POPI    C3 7745   0.856  15.813   6.081  0.1898  0.0372 -0.0883
  698POPI   PO4 7746   0.574  16.125   6.635 -0.0597  0.0659 -0.1398
  698POPI   GL1 7747   0.604  16.406   6.971  0.1822 -0.0342  0.0811
  698POPI   GL2 7748   0.405  16.302   7.162 -0.0117 -0.1488 -0.2013
  698POPI   C1A 7749   0.827  16.649   7.122  0.1862 -0.0420  0.0151
  698POPI   D2A 7750   1.041  16.903   7.365 -0.1223  0.0718 -0.0656
  698POPI   C3A 7751   0.958  16.955   7.763  0.2163  0.1250  0.1557
  698POPI   C4A 7752   0.903  16.683   8.153 -0.0172 -0.0972 -0.1439
  698POPI   C1B 7753   0.170  16.433   7.595  0.3290  0.5187  0.1980
  698POPI   C2B 7754   0.113  16.521   7.956  0.0485  0.0573  0.0012
  698POPI   C3B 7755   0.084  16.741   8.320 -0.2446  0.0904  0.2366
  698POPI   C4B 7756   0.278  17.051   8.524 -0.0037 -0.4061 -0.1134
  699POPI    C1 7757  16.339  12.628   6.429 -0.0165 -0.2173  0.0375
  699POPI    C2 7758  16.494  12.987   6.346 -0.0508 -0.2316 -0.0902
  699POPI    C3 7759  16.613  12.665   6.141 -0.0849 -0.2789 -0.0361
  699POPI   PO4 7760  16.387  12.562   6.654  0.0845  0.1179 -0.1753
  699POPI   GL1 7761  16.612  12.288   6.955 -0.2789  0.3726 -0.3689
  699POPI   GL2 7762  16.936  12.132   6.908  0.1081  0.3226 -0.0189
  699POPI   C1A 7763  16.347  12.188   7.322 -0.0669  0.0651  0.1504
  699POPI   D2A 7764  16.005  11.866   7.296 -0.0812 -0.0230 -0.1851
  699POPI   C3A 7765  15.835  11.711   7.663  0.3038 -0.0022 -0.2237
  699POPI   C4A 7766  15.920  11.770   8.128 -0.0926 -0.0255  0.0370
  699POPI   C1B 7767  16.884  12.016   7.375  0.3951 -0.0574  0.0292
  699POPI   C2B 7768  16.817  11.620   7.741 -0.3027 -0.1518  0.2670
  699POPI   C3B 7769  16.755  11.377   8.088  0.0941  0.1540 -0.0005
  699POPI   C4B 7770  16.660  11.251   8.376  0.1487  0.0722  0.0580
  700POPI    C1 7771  10.099  13.944   6.180  0.2104 -0.3188 -0.0645
  700POPI    C2 7772  10.493  14.000   6.222  0.1852  0.0187 -0.2396
  700POPI    C3 7773  10.248  14.315   6.197 -0.1063 -0.1888 -0.0595
  700POPI   PO4 7774  10.046  13.722   6.406 -0.0602  0.1046 -0.4030
  700POPI   GL1 7775   9.912  13.761   6.753  0.1341  0.1082 -0.1332
  700POPI   GL2 7776  10.109  13.637   6.960 -0.0676 -0.0430 -0.2574
  700POPI   C1A 7777   9.647  13.446   7.110 -0.2412 -0.1074 -0.0109
  700POPI   D2A 7778   9.565  13.408   7.539 -0.0950 -0.0329  0.0646
  700POPI   C3A 7779   9.499  13.144   7.889  0.0913  0.3783 -0.1878
  700POPI   C4A 7780   9.251  13.071   8.325  0.0363 -0.1461  0.0494
  700POPI   C1B 7781  10.127  13.643   7.387  0.3618  0.1166  0.3454
  700POPI   C2B 7782  10.188  13.693   7.857 -0.3179 -0.1287  0.1680
  700POPI   C3B 7783  10.048  13.835   8.269  0.1574  0.1048 -0.0808
  700POPI   C4B 7784   9.883  14.166   8.590 -0.2024  0.0500  0.0454
  701POPI    C1 7785  16.023  15.787   6.364  0.1576 -0.0263  0.0837
  701POPI    C2 7786  16.158  15.506   6.113  0.2827  0.1214 -0.0165
  701POPI    C3 7787  15.821  15.705   6.028  0.1308 -0.0768  0.1119
  701POPI   PO4 7788  16.130  15.972   6.443  0.1274  0.0088 -0.3105
  701POPI   GL1 7789  15.939  16.217   6.655  0.2882  0.1002  0.1851
  701POPI   GL2 7790  16.163  16.432   6.726  0.2293  0.4235  0.0224
  701POPI   C1A 7791  15.729  16.407   7.015 -0.0939  0.1243 -0.1348
  701POPI   D2A 7792  15.521  16.529   7.353  0.0845  0.0915  0.0438
  701POPI   C3A 7793  15.680  16.612   7.805 -0.2716 -0.2534  0.5284
  701POPI   C4A 7794  15.849  16.595   8.283 -0.0113 -0.0902 -0.4218
  701POPI   C1B 7795  16.192  16.583   7.210 -0.0199  0.3377  0.1038
  701POPI   C2B 7796  16.135  16.686   7.645 -0.0818 -0.1448  0.0171
  701POPI   C3B 7797  16.279  16.580   8.058 -0.2177 -0.0206  0.0815
  701POPI   C4B 7798  16.578  16.486   8.402  0.1480 -0.1511 -0.0215
  702POPI    C1 7799  12.379  11.168   6.150  0.1853  0.2553 -0.1563
  702POPI    C2 7800  12.116  11.001   5.900 -0.0440  0.2683  0.0722
  702POPI    C3 7801  12.445  10.801   6.006 -0.0459  0.1824 -0.0816
  702POPI   PO4 7802  12.307  11.416   6.163  0.2071 -0.2236  0.1199
  702POPI   GL1 7803  12.097  11.543   6.483  0.0026  0.0986 -0.0108
  702POPI   GL2 7804  12.157  11.896   6.570  0.3105 -0.0482 -0.0551
  702POPI   C1A 7805  12.191  11.380   6.801  0.0936 -0.1327 -0.0687
  702POPI   D2A 7806  12.193  11.343   7.199 -0.0894  0.0032 -0.2069
  702POPI   C3A 7807  12.483  11.162   7.560  0.1555  0.0435 -0.1150
  702POPI   C4A 7808  12.762  11.201   7.907 -0.3200 -0.0580  0.1048
  702POPI   C1B 7809  12.220  11.800   6.970 -0.0272 -0.1370 -0.0780
  702POPI   C2B 7810  12.298  11.861   7.357  0.3154  0.2761  0.1463
  702POPI   C3B 7811  12.281  12.025   7.777  0.0229  0.2595  0.1294
  702POPI   C4B 7812  12.335  12.108   8.186  0.1425 -0.0379  0.3665
  703POPI    C1 7813  13.033   6.442   6.062 -0.0498 -0.2497  0.3227
  703POPI    C2 7814  13.335   6.182   6.030 -0.0480 -0.1918 -0.2459
  703POPI    C3 7815  13.378   6.555   5.894 -0.1995 -0.0185  0.1642
  703POPI   PO4 7816  12.826   6.324   6.129 -0.5117  0.1926 -0.2603
  703POPI   GL1 7817  12.736   6.055   6.529  0.1632 -0.1900 -0.1114
  703POPI   GL2 7818  12.645   6.406   6.605 -0.1097 -0.0254  0.1211
  703POPI   C1A 7819  12.597   6.138   6.980 -0.1385  0.1517 -0.0455
  703POPI   D2A 7820  12.685   6.320   7.341  0.0313  0.1002  0.1221
  703POPI   C3A 7821  12.780   6.665   7.436  0.0652  0.0004 -0.1668
  703POPI   C4A 7822  12.950   7.092   7.605 -0.0083  0.3050  0.0038
  703POPI   C1B 7823  12.721   6.684   6.959  0.2493  0.2140  0.0320
  703POPI   C2B 7824  12.566   7.114   7.235 -0.1838  0.3661 -0.2628
  703POPI   C3B 7825  12.331   7.295   7.609  0.0280  0.0020  0.3305
  703POPI   C4B 7826  12.310   7.770   7.725  0.1102  0.1000  0.2824
  704POPI    C1 7827  11.187   9.802   5.570 -0.1704  0.2417  0.2710
  704POPI    C2 7828  10.804   9.734   5.479 -0.0992  0.0328  0.1185
  704POPI    C3 7829  11.020   9.988   5.258 -0.0555 -0.1151 -0.0098
  704POPI   PO4 7830  11.149   9.664   5.869  0.3064  0.1132 -0.1623
  704POPI   GL1 7831  10.983   9.670   6.286  0.0296  0.2384  0.0936
  704POPI   GL2 7832  10.715   9.634   6.374  0.1325 -0.1278  0.0291
  704POPI   C1A 7833  11.221   9.814   6.502  0.0799 -0.0647 -0.2116
  704POPI   D2A 7834  11.587   9.990   6.656  0.0702 -0.1122 -0.2529
  704POPI   C3A 7835  11.729   9.979   7.099  0.5258  0.1690 -0.3344
  704POPI   C4A 7836  11.973  10.246   7.397  0.1527  0.0145 -0.0788
  704POPI   C1B 7837  10.700   9.792   6.702  0.2162 -0.0662  0.2309
  704POPI   C2B 7838  10.247   9.789   6.906 -0.0336  0.0518  0.2060
  704POPI   C3B 7839  10.231   9.837   7.308 -0.1510 -0.2331  0.1368
  704POPI   C4B 7840  10.066   9.859   7.736 -0.0164  0.0152 -0.1216
  705POPI    C1 7841   4.349  17.297   6.286  0.0155 -0.0896  0.1342
  705POPI    C2 7842   4.313  16.930   6.130 -0.0015 -0.0569  0.0611
  705POPI    C3 7843   4.142  17.242   5.948  0.1126  0.0046  0.0590
  705POPI   PO4 7844   4.333  17.197   6.552  0.3212  0.2738 -0.0255
  705POPI   GL1 7845   4.283  17.340   6.958  0.1368  0.0376  0.0616
  705POPI   GL2 7846   4.566  17.254   7.053 -0.0163 -0.0428 -0.0264
  705POPI   C1A 7847   3.898  17.202   7.176  0.0276  0.4833  0.0844
  705POPI   D2A 7848   3.649  17.087   7.525  0.0784 -0.1543  0.0438
  705POPI   C3A 7849   3.766  17.332   7.920  0.0228 -0.1006 -0.0985
  705POPI   C4A 7850   3.894  17.760   8.001  0.2047 -0.3033 -0.0490
  705POPI   C1B 7851   4.510  17.524   7.426 -0.2714 -0.3004 -0.0634
  705POPI   C2B 7852   4.387  17.652   7.810  0.1811  0.0501  0.1271
  705POPI   C3B 7853   4.358  18.008   8.119  0.0014 -0.1585  0.2106
  705POPI   C4B 7854   4.410  18.369   8.517  0.3430  0.0896 -0.0096
  706POPI    C1 7855   2.857  11.515   6.073  0.2479  0.2687  0.0165
  706POPI    C2 7856   3.192  11.298   6.054  0.1063  0.0460  0.0147
  706POPI    C3 7857   2.839  11.116   6.095  0.0201  0.2975  0.4518
  706POPI   PO4 7858   2.963  11.768   6.308  0.0670 -0.1083 -0.0838
  706POPI   GL1 7859   3.059  11.830   6.826 -0.0070 -0.0750  0.3104
  706POPI   GL2 7860   3.307  12.126   6.818  0.3184 -0.2997  0.0814
  706POPI   C1A 7861   2.802  11.485   6.989 -0.2454  0.1246 -0.1667
  706POPI   D2A 7862   2.653  11.038   7.001  0.2190  0.2496  0.0923
  706POPI   C3A 7863   2.488  10.870   7.388  0.1114 -0.2613 -0.2498
  706POPI   C4A 7864   2.634  10.528   7.718  0.0535  0.0456 -0.0988
  706POPI   C1B 7865   3.337  11.964   7.323  0.2165  0.1819 -0.1192
  706POPI   C2B 7866   3.439  11.597   7.615 -0.0217 -0.0700 -0.0515
  706POPI   C3B 7867   3.738  11.514   7.898 -0.2969 -0.1072 -0.0266
  706POPI   C4B 7868   3.820  11.390   8.363  0.2652 -0.0255 -0.0815
  707POPI    C1 7869   7.004  17.878   6.574  0.1105  0.0446  0.0152
  707POPI    C2 7870   7.258  17.786   6.279  0.0285  0.1737 -0.0968
  707POPI    C3 7871   6.953  17.542   6.363  0.1138  0.0834 -0.0474
  707POPI   PO4 7872   7.074  18.141   6.707  0.0872  0.2164  0.2053
  707POPI   GL1 7873   6.865  18.291   7.020  0.0248  0.3873  0.1502
  707POPI   GL2 7874   6.839  18.547   7.199  0.3448 -0.1576 -0.1948
  707POPI   C1A 7875   7.215  18.379   7.445 -0.3243 -0.2040 -0.0150
  707POPI   D2A 7876   7.135  18.610   7.787 -0.1386  0.1048  0.1216
  707POPI   C3A 7877   7.341  18.770   8.144 -0.0333 -0.0838 -0.3383
  707POPI   C4A 7878   7.367  19.066   8.396  0.0228 -0.3693 -0.1011
  707POPI   C1B 7879   6.710  18.320   7.547 -0.0234 -0.3027  0.0951
  707POPI   C2B 7880   6.797  18.231   8.055  0.1758 -0.2695 -0.0054
  707POPI   C3B 7881   6.978  18.132   8.477  0.1209  0.0821  0.2247
  707POPI   C4B 7882   6.966  18.190   8.916  0.1436 -0.0657 -0.1331
  708POPI    C1 7883  13.175  15.761   6.197  0.0762 -0.0432  0.2305
  708POPI    C2 7884  12.878  15.496   6.160  0.1492 -0.0875 -0.0650
  708POPI    C3 7885  12.807  15.885   6.102  0.0786 -0.0589  0.2005
  708POPI   PO4 7886  13.310  15.775   6.412  0.3864  0.0849  0.4379
  708POPI   GL1 7887  13.282  15.790   6.876  0.0768  0.1285 -0.3412
  708POPI   GL2 7888  13.063  15.772   7.255  0.0668  0.2168  0.1621
  708POPI   C1A 7889  13.460  16.089   7.204  0.1129  0.0810  0.0654
  708POPI   D2A 7890  13.429  16.413   7.516  0.1641  0.1894 -0.2395
  708POPI   C3A 7891  13.410  16.512   7.934  0.0495  0.1272  0.1587
  708POPI   C4A 7892  13.465  16.722   8.412 -0.0761  0.2218 -0.0873
  708POPI   C1B 7893  13.276  15.713   7.564 -0.1174 -0.0070 -0.0725
  708POPI   C2B 7894  13.210  16.048   7.805  0.1958 -0.2175 -0.1953
  708POPI   C3B 7895  13.055  16.171   8.182  0.1249  0.3255 -0.1006
  708POPI   C4B 7896  12.685  16.250   8.398  0.0217 -0.0804  0.0420
  709POPI    C1 7897  15.204  13.894   6.387 -0.0883 -0.0174 -0.1341
  709POPI    C2 7898  15.375  14.203   6.199  0.0761  0.0325  0.0933
  709POPI    C3 7899  15.102  13.980   6.010  0.0479  0.2392 -0.1148
  709POPI   PO4 7900  15.121  14.036   6.590  0.0443 -0.1311  0.0892
  709POPI   GL1 7901  14.723  14.298   6.819  0.1716 -0.1565  0.0994
  709POPI   GL2 7902  14.483  14.507   6.926  0.1861 -0.0175  0.2288
  709POPI   C1A 7903  15.015  14.485   7.188  0.2357  0.0043 -0.2666
  709POPI   D2A 7904  15.212  14.402   7.569  0.2126 -0.2853  0.0425
  709POPI   C3A 7905  15.402  14.641   7.903 -0.1721  0.0053  0.0321
  709POPI   C4A 7906  15.737  14.629   8.237  0.3281  0.0562  0.1845
  709POPI   C1B 7907  14.547  14.294   7.305 -0.0976  0.0806  0.0935
  709POPI   C2B 7908  14.507  14.344   7.722 -0.1091  0.1418  0.5003
  709POPI   C3B 7909  14.456  14.586   8.160 -0.1523  0.1084 -0.1745
  709POPI   C4B 7910  14.697  14.692   8.503  0.1121  0.1057  0.0017
  710POPI    C1 7911   0.478  16.883   6.713 -0.0209  0.1112 -0.0850
  710POPI    C2 7912   0.812  17.033   6.874 -0.0599  0.1394 -0.0299
  710POPI    C3 7913   0.808  16.921   6.490  0.0678 -0.0369  0.0188
  710POPI   PO4 7914   0.354  17.093   6.722 -0.0547  0.1050  0.0277
  710POPI   GL1 7915   0.253  17.529   7.025  0.1235  0.1834  0.1513
  710POPI   GL2 7916  -0.063  17.518   6.897 -0.1065 -0.0087 -0.0089
  710POPI   C1A 7917   0.405  17.814   7.314  0.3428  0.1068  0.0144
  710POPI   D2A 7918   0.550  17.788   7.671 -0.1905 -0.1208  0.1916
  710POPI   C3A 7919   0.705  17.406   7.818  0.0286  0.2651 -0.1952
  710POPI   C4A 7920   0.516  16.966   8.006 -0.0760 -0.0525 -0.2619
  710POPI   C1B 7921  -0.109  17.758   7.239 -0.1628  0.0456  0.0946
  710POPI   C2B 7922  -0.457  17.975   7.538 -0.4448 -0.1279  0.2948
  710POPI   C3B 7923  -0.479  18.297   7.863 -0.0141  0.0591  0.1288
  710POPI   C4B 7924  -0.762  18.641   8.090  0.0439 -0.2361  0.0603
  711POPI    C1 7925   6.925  11.108   5.995 -0.0455  0.0383 -0.2731
  711POPI    C2 7926   6.791  11.027   5.627  0.0578 -0.0397 -0.2941
  711POPI    C3 7927   7.168  11.147   5.680  0.0988 -0.2079 -0.1951
  711POPI   PO4 7928   6.754  11.330   6.124  0.0745 -0.0770  0.0229
  711POPI   GL1 7929   7.008  11.535   6.497 -0.0579  0.2197  0.1225
  711POPI   GL2 7930   7.343  11.558   6.586  0.1946  0.0609 -0.1995
  711POPI   C1A 7931   7.133  11.548   7.093  0.0528  0.0496  0.0175
  711POPI   D2A 7932   7.092  11.379   7.511  0.1476  0.3258 -0.0959
  711POPI   C3A 7933   6.911  11.302   7.917 -0.1216 -0.2383  0.0499
  711POPI   C4A 7934   6.933  11.159   8.350  0.0232  0.0360  0.1272
  711POPI   C1B 7935   7.332  11.156   6.767 -0.0026  0.2087  0.1606
  711POPI   C2B 7936   7.342  11.042   7.148 -0.2320 -0.1761  0.0164
  711POPI   C3B 7937   7.379  10.987   7.579  0.0548 -0.0561  0.1026
  711POPI   C4B 7938   7.367  11.209   8.114 -0.1694  0.0708  0.0937
  712POPI    C1 7939   7.360   2.211   6.237 -0.0422 -0.0415 -0.0345
  712POPI    C2 7940   7.033   2.000   6.148 -0.1346  0.1497 -0.1533
  712POPI    C3 7941   7.111   2.340   5.952  0.0449  0.1946 -0.0061
  712POPI   PO4 7942   7.409   2.192   6.547  0.0839 -0.4019  0.2032
  712POPI   GL1 7943   7.544   2.098   7.054  0.0812 -0.0780  0.2646
  712POPI   GL2 7944   7.706   1.921   6.862 -0.0979 -0.0293  0.1016
  712POPI   C1A 7945   7.828   2.096   7.481 -0.2729 -0.1534 -0.3159
  712POPI   D2A 7946   7.854   1.873   7.816  0.0885  0.3733 -0.0552
  712POPI   C3A 7947   8.199   2.002   8.161 -0.1078 -0.1819  0.3490
  712POPI   C4A 7948   8.160   2.397   8.362  0.3675 -0.2158 -0.0993
  712POPI   C1B 7949   8.098   1.825   7.032 -0.3490  0.1284  0.0298
  712POPI   C2B 7950   8.240   1.736   7.426  0.1091  0.1526  0.2414
  712POPI   C3B 7951   8.317   1.634   7.801  0.1425 -0.0532  0.1629
  712POPI   C4B 7952   8.165   1.432   8.150 -0.0983 -0.2021  0.0762
  713POPI    C1 7953  17.316  15.631   6.568  0.1573 -0.0743  0.1347
  713POPI    C2 7954  17.396  15.286   6.381  0.1683 -0.0799  0.1497
  713POPI    C3 7955  17.674  15.573   6.398  0.1543 -0.0649  0.1255
  713POPI   PO4 7956  17.276  15.603   6.805 -0.0822 -0.4349  0.0147
  713POPI   GL1 7957  17.585  15.622   7.175  0.1580 -0.0422 -0.3408
  713POPI   GL2 7958  17.332  15.579   7.307  0.1739  0.0464 -0.0015
  713POPI   C1A 7959  17.806  15.655   7.505 -0.0894 -0.2337  0.0195
  713POPI   D2A 7960  17.680  15.777   7.833 -0.0679  0.5114  0.1174
  713POPI   C3A 7961  17.612  15.508   8.190 -0.2678 -0.0097  0.2111
  713POPI   C4A 7962  17.497  15.273   8.481 -0.0463  0.1201  0.2196
  713POPI   C1B 7963  17.342  15.917   7.504  0.0329  0.0121  0.1361
  713POPI   C2B 7964  17.152  15.849   7.898  0.0030  0.0280  0.1318
  713POPI   C3B 7965  16.889  16.017   8.291  0.2567  0.5274  0.0808
  713POPI   C4B 7966  16.569  15.993   8.613 -0.0454  0.1734  0.0669
  714POPI    C1 7967  16.726  15.118   6.578  0.0968 -0.0099 -0.0290
  714POPI    C2 7968  16.906  14.963   6.256  0.1011  0.2749 -0.1674
  714POPI    C3 7969  16.585  15.196   6.212  0.0185  0.2044  0.0456
  714POPI   PO4 7970  16.998  15.175   6.727  0.0472 -0.0863 -0.0861
  714POPI   GL1 7971  17.167  15.158   7.057 -0.2910 -0.3719  0.0169
  714POPI   GL2 7972  16.885  15.340   7.247 -0.1877 -0.1623  0.1649
  714POPI   C1A 7973  17.323  14.938   7.407 -0.1999 -0.1948  0.1902
  714POPI   D2A 7974  17.393  15.096   7.859  0.0590 -0.0275 -0.1365
  714POPI   C3A 7975  17.191  14.870   8.323 -0.0912 -0.2287 -0.2592
  714POPI   C4A 7976  17.003  14.525   8.573 -0.4674 -0.0524  0.0096
  714POPI   C1B 7977  17.108  15.430   7.694  0.3790 -0.2970 -0.3221
  714POPI   C2B 7978  17.083  15.500   8.191  0.0559  0.1126 -0.4088
  714POPI   C3B 7979  17.245  15.830   8.584  0.0795  0.2247  0.1217
  714POPI   C4B 7980  17.632  16.026   8.716 -0.0972  0.1265  0.2109
  715POPI    C1 7981   0.152   0.110   6.012  0.0430 -0.0878 -0.0308
  715POPI    C2 7982  -0.123   0.323   5.815  0.0564 -0.0126  0.0315
  715POPI    C3 7983   0.033  -0.005   5.647  0.0038  0.0019 -0.0466
  715POPI   PO4 7984   0.070   0.306   6.290  0.4164  0.1857  0.3115
  715POPI   GL1 7985  -0.019   0.196   6.674 -0.0761  0.1914  0.3251
  715POPI   GL2 7986  -0.202   0.467   6.651 -0.1284  0.2867 -0.3382
  715POPI   C1A 7987   0.273   0.390   7.043  0.2107 -0.0047  0.3092
  715POPI   D2A 7988   0.373   0.508   7.495  0.3727 -0.1844 -0.0794
  715POPI   C3A 7989   0.261   0.604   7.949 -0.3361  0.0398 -0.3292
  715POPI   C4A 7990   0.454   0.334   8.262 -0.1138  0.0269 -0.2465
  715POPI   C1B 7991  -0.318   0.420   7.050  0.0551  0.0818 -0.1280
  715POPI   C2B 7992  -0.508   0.311   7.445 -0.1105 -0.3065 -0.1117
  715POPI   C3B 7993  -0.338   0.468   7.859 -0.6057  0.0464 -0.1573
  715POPI   C4B 7994  -0.119   0.881   7.831 -0.0883  0.0229  0.1332
  716POPI    C1 7995   7.931  15.506   6.297 -0.1377 -0.2949 -0.0661
  716POPI    C2 7996   8.149  15.304   6.029  0.1793  0.0964 -0.1128
  716POPI    C3 7997   7.762  15.378   5.958  0.1657 -0.1290 -0.2849
  716POPI   PO4 7998   8.041  15.691   6.479  0.0563 -0.1118 -0.0558
  716POPI   GL1 7999   8.024  15.578   6.866  0.1890  0.3088 -0.0407
  716POPI   GL2 8000   7.797  15.445   6.977 -0.1264 -0.0057 -0.2158
  716POPI   C1A 8001   8.127  15.113   7.023 -0.3505 -0.0605 -0.3974
  716POPI   D2A 8002   8.459  14.962   7.284  0.0691  0.3509 -0.0531
  716POPI   C3A 8003   8.496  14.857   7.734  0.3497 -0.0427  0.0964
  716POPI   C4A 8004   8.580  14.701   8.141 -0.0843  0.1021  0.1646
  716POPI   C1B 8005   8.202  15.515   7.312 -0.2606 -0.0036  0.1078
  716POPI   C2B 8006   8.385  15.339   7.737 -0.0161 -0.0736  0.0624
  716POPI   C3B 8007   8.794  15.185   8.032 -0.1416  0.2586  0.0755
  716POPI   C4B 8008   9.206  15.189   8.054 -0.0446  0.0606 -0.2705
  717POPI    C1 8009  14.512  10.929   5.703  0.0312  0.0205 -0.0982
  717POPI    C2 8010  14.628  11.247   5.490 -0.1016  0.1191 -0.0250
  717POPI    C3 8011  14.866  10.926   5.516 -0.0976  0.0921 -0.3484
  717POPI   PO4 8012  14.348  10.943   5.930 -0.1956 -0.2365 -0.5024
  717POPI   GL1 8013  14.396  10.700   6.286  0.3471  0.0670  0.1304
  717POPI   GL2 8014  14.633  10.898   6.388 -0.0282  0.1926  0.0745
  717POPI   C1A 8015  14.171  10.908   6.664 -0.1442 -0.2236 -0.2044
  717POPI   D2A 8016  14.046  11.061   7.028 -0.1770 -0.2182 -0.0431
  717POPI   C3A 8017  13.904  11.389   7.169 -0.2279 -0.0682 -0.1325
  717POPI   C4A 8018  13.671  11.538   7.458  0.0118 -0.2442  0.1540
  717POPI   C1B 8019  14.808  10.831   6.773 -0.0087 -0.0455 -0.3551
  717POPI   C2B 8020  14.989  10.816   7.088  0.0502  0.0420  0.0182
  717POPI   C3B 8021  15.077  10.665   7.514  0.3086  0.0732  0.2725
  717POPI   C4B 8022  15.079  10.554   7.884 -0.2541  0.3201  0.1494
  718POPI    C1 8023   5.814  12.538   5.830 -0.2414 -0.0234 -0.2209
  718POPI    C2 8024   6.029  12.855   5.715 -0.2226  0.0357 -0.0265
  718POPI    C3 8025   5.630  12.872   5.711 -0.2216  0.0577 -0.0275
  718POPI   PO4 8026   5.987  12.470   6.056  0.0028 -0.0981  0.0001
  718POPI   GL1 8027   6.193  12.277   6.424 -0.2724  0.3022 -0.1103
  718POPI   GL2 8028   6.021  12.454   6.557 -0.0205 -0.1788  0.1184
  718POPI   C1A 8029   6.586  11.984   6.618  0.1569 -0.1538  0.0758
  718POPI   D2A 8030   6.795  12.014   7.014  0.0592  0.0717  0.2043
  718POPI   C3A 8031   6.893  11.843   7.400  0.0172 -0.2781  0.1750
  718POPI   C4A 8032   7.143  11.735   7.793 -0.2598 -0.2000 -0.0710
  718POPI   C1B 8033   6.231  12.292   6.946  0.4906  0.1530  0.1742
  718POPI   C2B 8034   6.113  12.404   7.487 -0.3433  0.0764 -0.2898
  718POPI   C3B 8035   5.921  12.529   7.915  0.1099  0.1912 -0.2601
  718POPI   C4B 8036   5.878  12.294   8.263  0.0697 -0.1383  0.2197
  719POPI    C1 8037   8.908  12.452   6.146  0.0854 -0.0682 -0.0445
  719POPI    C2 8038   8.899  12.119   6.366 -0.0236  0.0035  0.0610
  719POPI    C3 8039   8.875  12.096   5.968 -0.4889 -0.0912  0.0888
  719POPI   PO4 8040   9.164  12.578   6.190  0.0062  0.0108  0.2966
  719POPI   GL1 8041   9.466  12.546   6.537 -0.0643  0.2369 -0.1386
  719POPI   GL2 8042   9.219  12.503   6.671 -0.2022  0.4077 -0.1985
  719POPI   C1A 8043   9.498  12.903   6.770  0.0527 -0.0284 -0.1159
  719POPI   D2A 8044   9.602  12.975   7.130 -0.1294  0.3629  0.2094
  719POPI   C3A 8045   9.704  12.716   7.484  0.2178 -0.1160 -0.1408
  719POPI   C4A 8046   9.750  12.564   7.828  0.0712 -0.3165 -0.3270
  719POPI   C1B 8047   8.868  12.313   6.958 -0.0665 -0.2208 -0.3330
  719POPI   C2B 8048   8.909  12.259   7.367  0.0735 -0.3687 -0.0899
  719POPI   C3B 8049   8.743  12.262   7.782  0.0842 -0.0329  0.1076
  719POPI   C4B 8050   8.680  12.618   7.942 -0.0941  0.2023  0.0678
  720POPI    C1 8051   5.985  11.933   6.073 -0.2267 -0.0612  0.0196
  720POPI    C2 8052   5.982  11.683   5.760 -0.1113 -0.0970  0.0465
  720POPI    C3 8053   5.814  12.045   5.729 -0.1900 -0.1392 -0.0242
  720POPI   PO4 8054   5.955  11.706   6.319 -0.0293  0.2506 -0.1849
  720POPI   GL1 8055   6.098  11.543   6.561 -0.2150  0.0887 -0.3195
  720POPI   GL2 8056   6.504  11.443   6.536 -0.0114  0.2571  0.1246
  720POPI   C1A 8057   6.054  11.653   7.003 -0.1830 -0.3282  0.2068
  720POPI   D2A 8058   5.688  11.827   7.115  0.0698  0.4126  0.4598
  720POPI   C3A 8059   5.862  12.005   7.425 -0.0371 -0.0684 -0.1962
  720POPI   C4A 8060   6.093  11.997   7.779 -0.0317 -0.4680  0.2277
  720POPI   C1B 8061   6.554  11.566   6.988 -0.1653 -0.1701 -0.0758
  720POPI   C2B 8062   6.604  11.447   7.424  0.0498  0.0106  0.2019
  720POPI   C3B 8063   6.531  11.635   7.842  0.0094 -0.2476  0.1303
  720POPI   C4B 8064   6.778  11.945   8.079  0.0595  0.2446  0.0720
  721POPI    C1 8065   7.145  14.717   6.067 -0.0794  0.1517  0.0062
  721POPI    C2 8066   6.928  14.465   5.844  0.3918  0.0823 -0.3910
  721POPI    C3 8067   6.994  14.839   5.718 -0.2533  0.4058  0.1671
  721POPI   PO4 8068   7.151  14.784   6.278  0.0387  0.0719 -0.0623
  721POPI   GL1 8069   7.205  15.081   6.658  0.0374 -0.2527  0.1787
  721POPI   GL2 8070   7.295  15.296   6.905  0.0839  0.1895  0.2326
  721POPI   C1A 8071   7.153  14.882   7.113 -0.1842  0.0993  0.2713
  721POPI   D2A 8072   6.997  14.968   7.602 -0.3696  0.0120  0.0904
  721POPI   C3A 8073   7.093  14.877   8.004 -0.2620  0.3059 -0.0078
  721POPI   C4A 8074   7.276  14.846   8.458 -0.4481  0.0286  0.0081
  721POPI   C1B 8075   7.429  15.372   7.326  0.0735  0.0254  0.0216
  721POPI   C2B 8076   7.764  15.166   7.440  0.0939 -0.1655 -0.1486
  721POPI   C3B 8077   7.952  14.963   7.894 -0.0276 -0.0403  0.2901
  721POPI   C4B 8078   8.276  15.129   8.171  0.1820  0.2614 -0.1641
  722POPI    C1 8079   1.011   4.113   5.352 -0.1237  0.1275  0.2609
  722POPI    C2 8080   0.763   4.415   5.270 -0.0531  0.0782 -0.1580
  722POPI    C3 8081   0.931   4.208   4.972  0.2640 -0.0771  0.1216
  722POPI   PO4 8082   0.861   4.152   5.696 -0.0266 -0.1261  0.0445
  722POPI   GL1 8083   0.895   4.421   6.049  0.1385  0.4552 -0.1703
  722POPI   GL2 8084   0.709   4.182   6.183 -0.1593  0.1595  0.0398
  722POPI   C1A 8085   1.209   4.428   6.261 -0.2074  0.0668  0.1460
  722POPI   D2A 8086   1.580   4.237   6.271  0.3187 -0.0558  0.3728
  722POPI   C3A 8087   1.814   4.218   6.625 -0.0277 -0.1173 -0.1091
  722POPI   C4A 8088   1.969   4.307   7.099  0.1069 -0.0009  0.0193
  722POPI   C1B 8089   0.733   4.157   6.586  0.0088  0.1532 -0.1177
  722POPI   C2B 8090   0.800   4.348   7.019 -0.0404  0.4746  0.1554
  722POPI   C3B 8091   0.980   4.278   7.431  0.1305 -0.0525  0.2531
  722POPI   C4B 8092   1.072   4.455   7.810  0.0706  0.1589  0.0455
  723POPI    C1 8093   4.787  14.291   5.941 -0.0475  0.0047 -0.0553
  723POPI    C2 8094   5.133  14.470   5.854 -0.1465  0.2963  0.1361
  723POPI    C3 8095   4.818  14.519   5.614 -0.1038  0.1721  0.0543
  723POPI   PO4 8096   4.671  14.399   6.216  0.1804  0.0820  0.0868
  723POPI   GL1 8097   4.817  14.396   6.638  0.1481  0.0342 -0.0000
  723POPI   GL2 8098   4.801  14.694   6.822 -0.1656 -0.0151  0.1028
  723POPI   C1A 8099   4.669  14.205   7.051 -0.0458  0.3178 -0.3094
  723POPI   D2A 8100   4.528  13.983   7.408  0.1151  0.4371  0.2074
  723POPI   C3A 8101   4.797  13.973   7.728  0.0693 -0.0678 -0.2104
  723POPI   C4A 8102   5.073  13.744   7.981 -0.1785  0.0805 -0.1783
  723POPI   C1B 8103   4.752  14.708   7.272 -0.1708  0.1178 -0.0375
  723POPI   C2B 8104   4.737  14.750   7.622 -0.0562 -0.1681  0.0837
  723POPI   C3B 8105   4.537  14.376   7.866  0.0856 -0.1064 -0.1790
  723POPI   C4B 8106   4.191  14.326   8.253  0.0309  0.0651  0.0657
  724POPI    C1 8107   2.356  15.450   6.282  0.0270  0.0488 -0.1451
  724POPI    C2 8108   2.497  15.349   5.922 -0.0948  0.0467 -0.1928
  724POPI    C3 8109   2.297  15.080   6.141 -0.1454  0.0906 -0.1851
  724POPI   PO4 8110   2.562  15.565   6.419  0.3708 -0.2541 -0.0138
  724POPI   GL1 8111   2.867  15.650   6.783 -0.1020  0.1091 -0.2375
  724POPI   GL2 8112   2.670  15.494   6.922 -0.0436  0.0093  0.2081
  724POPI   C1A 8113   3.280  15.652   6.766 -0.1299  0.0197  0.0788
  724POPI   D2A 8114   3.501  15.849   6.993 -0.1135  0.0393  0.1940
  724POPI   C3A 8115   3.584  15.700   7.520  0.2051  0.1748  0.2058
  724POPI   C4A 8116   3.528  15.708   8.048  0.1280 -0.1199 -0.2816
  724POPI   C1B 8117   2.902  15.450   7.263  0.2242  0.1158  0.2303
  724POPI   C2B 8118   2.906  15.355   7.634 -0.2446  0.1351 -0.5522
  724POPI   C3B 8119   2.902  15.531   7.975  0.2046  0.0163 -0.1293
  724POPI   C4B 8120   2.845  15.654   8.454  0.0906  0.1374 -0.1465
  725POPI    C1 8121  16.942   2.723   5.631  0.1105 -0.1877  0.2001
  725POPI    C2 8122  17.234   2.990   5.690  0.0457 -0.0969  0.1129
  725POPI    C3 8123  17.030   2.989   5.346  0.2504 -0.4568 -0.0131
  725POPI   PO4 8124  16.817   2.712   5.969 -0.1317 -0.0048  0.4242
  725POPI   GL1 8125  17.023   2.425   6.348 -0.2349  0.2674 -0.0591
  725POPI   GL2 8126  16.689   2.271   6.455 -0.1544 -0.0327  0.0564
  725POPI   C1A 8127  17.060   2.782   6.560 -0.2048  0.2367  0.1931
  725POPI   D2A 8128  17.048   2.906   6.962 -0.0932 -0.1140  0.0342
  725POPI   C3A 8129  16.986   3.304   7.187 -0.1450 -0.0300 -0.4327
  725POPI   C4A 8130  17.101   3.628   7.451 -0.5002  0.0594  0.4297
  725POPI   C1B 8131  16.781   2.378   6.805  0.0470  0.0428 -0.2413
  725POPI   C2B 8132  16.718   2.362   7.239  0.1228 -0.0331 -0.0838
  725POPI   C3B 8133  16.892   2.448   7.616 -0.1279  0.2599 -0.1021
  725POPI   C4B 8134  16.990   2.234   8.005  0.1076 -0.0702  0.2440
  726POPI    C1 8135   8.244   4.170   5.426  0.0051  0.1161  0.1255
  726POPI    C2 8136   8.404   4.354   5.108 -0.1403  0.3319  0.1747
  726POPI    C3 8137   8.051   4.169   5.075 -0.0870  0.2288  0.1754
  726POPI   PO4 8138   8.238   4.310   5.682 -0.1602 -0.3496 -0.6132
  726POPI   GL1 8139   7.969   4.400   6.025  0.1554  0.3453  0.2052
  726POPI   GL2 8140   8.232   4.505   6.129  0.2123 -0.1882 -0.2436
  726POPI   C1A 8141   7.736   4.680   6.337 -0.2545  0.0050  0.1921
  726POPI   D2A 8142   7.699   4.689   6.765 -0.0314  0.1608  0.2478
  726POPI   C3A 8143   8.137   4.624   6.971  0.4525  0.1637  0.1156
  726POPI   C4A 8144   8.574   4.345   7.053  0.0418  0.2059 -0.0185
  726POPI   C1B 8145   8.356   4.732   6.392  0.0444 -0.0349 -0.0350
  726POPI   C2B 8146   8.531   4.807   6.801 -0.3545 -0.0957  0.1560
  726POPI   C3B 8147   8.536   4.814   7.204  0.1837  0.0822  0.1472
  726POPI   C4B 8148   8.862   4.931   7.536  0.4312 -0.0466  0.1150
  727POPI    C1 8149  10.939  13.305   6.310 -0.0950  0.0247 -0.2498
  727POPI    C2 8150  10.571  13.434   6.219 -0.1263  0.1924  0.0994
  727POPI    C3 8151  10.884  13.681   6.185 -0.1152  0.2036  0.2737
  727POPI   PO4 8152  10.894  13.268   6.613 -0.1018 -0.1447 -0.2072
  727POPI   GL1 8153  11.001  13.450   7.029 -0.0130  0.4241  0.1220
  727POPI   GL2 8154  10.758  13.138   7.132 -0.0546 -0.0882  0.3358
  727POPI   C1A 8155  11.094  13.510   7.489 -0.0066 -0.1141  0.0373
  727POPI   D2A 8156  10.947  13.351   7.832 -0.0364  0.1634  0.0765
  727POPI   C3A 8157  10.522  13.348   8.010  0.2144 -0.4746  0.1973
  727POPI   C4A 8158  10.425  13.476   8.534  0.2100 -0.0780  0.2553
  727POPI   C1B 8159  10.602  13.371   7.460  0.0414 -0.1931  0.1788
  727POPI   C2B 8160  10.623  13.736   7.664  0.0959 -0.0547  0.0776
  727POPI   C3B 8161  10.504  14.029   8.027 -0.1055  0.3792  0.1456
  727POPI   C4B 8162  10.729  14.032   8.501 -0.0610  0.1814  0.1815
  728POPI    C1 8163   3.439  16.920   6.194  0.1501 -0.1283  0.0866
  728POPI    C2 8164   3.755  16.836   5.964 -0.0291 -0.1920 -0.1397
  728POPI    C3 8165   3.555  17.179   5.912 -0.0596 -0.1984 -0.0658
  728POPI   PO4 8166   3.531  16.698   6.400  0.2742  0.0745 -0.3476
  728POPI   GL1 8167   3.330  16.483   6.646 -0.1976 -0.1121 -0.0056
  728POPI   GL2 8168   3.038  16.620   6.816 -0.1344 -0.1137  0.3716
  728POPI   C1A 8169   3.417  16.388   7.059  0.0209  0.3532  0.0219
  728POPI   D2A 8170   3.693  16.162   7.348  0.0469 -0.0664 -0.0363
  728POPI   C3A 8171   3.518  16.135   7.769  0.1069  0.1437  0.2051
  728POPI   C4A 8172   3.439  16.381   8.066 -0.2544 -0.2736 -0.3251
  728POPI   C1B 8173   2.904  16.576   7.257  0.4687 -0.1449 -0.0457
  728POPI   C2B 8174   2.929  16.474   7.717 -0.1747  0.1423  0.2211
  728POPI   C3B 8175   2.972  16.475   8.140 -0.0918  0.0671  0.0046
  728POPI   C4B 8176   3.170  16.697   8.286  0.1569 -0.2443 -0.0402
  729POPI    C1 8177  16.545  14.632   6.446 -0.0773 -0.0137  0.0820
  729POPI    C2 8178  16.204  14.632   6.237 -0.1222  0.3345  0.1493
  729POPI    C3 8179  16.556  14.658   6.047 -0.1339  0.0500  0.0844
  729POPI   PO4 8180  16.483  14.512   6.672 -0.1418 -0.0356  0.0451
  729POPI   GL1 8181  16.532  14.682   6.992 -0.1596 -0.1640 -0.3832
  729POPI   GL2 8182  16.807  14.843   7.027  0.0858 -0.1118 -0.2050
  729POPI   C1A 8183  16.354  14.723   7.332  0.5308 -0.0048  0.3605
  729POPI   D2A 8184  16.397  14.563   7.618  0.0430  0.0835  0.2382
  729POPI   C3A 8185  16.224  14.722   8.018  0.0702 -0.1590  0.1378
  729POPI   C4A 8186  16.231  14.480   8.381  0.0032  0.2535 -0.2388
  729POPI   C1B 8187  16.851  14.784   7.375  0.4281 -0.1099 -0.1606
  729POPI   C2B 8188  16.930  14.992   7.708 -0.1523 -0.0623 -0.3645
  729POPI   C3B 8189  16.730  15.096   8.111  0.0862  0.5897  0.2452
  729POPI   C4B 8190  16.556  14.831   8.414  0.1803  0.2077  0.0415
  730POPI    C1 8191  14.276   8.367   5.400  0.1153 -0.2003  0.1004
  730POPI    C2 8192  13.916   8.193   5.407 -0.0077  0.0445 -0.0282
  730POPI    C3 8193  14.096   8.264   5.057  0.0986  0.0598  0.0293
  730POPI   PO4 8194  14.478   8.269   5.570 -0.1114 -0.2708  0.2442
  730POPI   GL1 8195  14.576   8.547   5.929  0.2452  0.0787 -0.0921
  730POPI   GL2 8196  14.188   8.649   6.015  0.0465 -0.1363 -0.1477
  730POPI   C1A 8197  14.559   8.914   6.046 -0.3966 -0.0587 -0.3318
  730POPI   D2A 8198  14.664   9.287   6.259  0.0073  0.4689 -0.1864
  730POPI   C3A 8199  14.993   9.144   6.507  0.1107 -0.0368  0.2994
  730POPI   C4A 8200  15.319   9.143   6.776 -0.2351  0.4309  0.2018
  730POPI   C1B 8201  14.187   8.938   6.462 -0.2138  0.3094 -0.0342
  730POPI   C2B 8202  14.153   8.793   6.956  0.2353  0.1156 -0.0812
  730POPI   C3B 8203  14.429   8.874   7.220 -0.1100  0.0590 -0.0917
  730POPI   C4B 8204  14.774   9.108   7.131 -0.2958  0.1768  0.3663
  731POPI    C1 8205   3.761   9.891   5.989  0.0905  0.1199  0.2398
  731POPI    C2 8206   4.157   9.947   5.985  0.0516  0.4021  0.0957
  731POPI    C3 8207   3.911  10.258   6.038 -0.1548  0.2478  0.0591
  731POPI   PO4 8208   3.672   9.718   6.104 -0.1960 -0.4440 -0.1677
  731POPI   GL1 8209   3.648   9.532   6.453 -0.0969  0.0217  0.1880
  731POPI   GL2 8210   3.371   9.397   6.481  0.0789  0.1947  0.0313
  731POPI   C1A 8211   3.705   9.368   6.837 -0.0159  0.2210 -0.2074
  731POPI   D2A 8212   3.828   9.442   7.185 -0.3576 -0.0769  0.0964
  731POPI   C3A 8213   3.969   9.256   7.453 -0.2325  0.0380  0.0188
  731POPI   C4A 8214   4.103   9.636   7.684 -0.0476 -0.1591  0.2364
  731POPI   C1B 8215   3.298   9.089   6.793 -0.0430 -0.0323  0.1177
  731POPI   C2B 8216   3.433   9.132   7.259 -0.1329 -0.0607  0.3617
  731POPI   C3B 8217   3.587   9.121   7.693  0.2273  0.0898  0.1888
  731POPI   C4B 8218   3.905   9.252   7.940  0.0616 -0.3337 -0.1366
  732POPI    C1 8219  16.684   7.398   5.708  0.1087  0.2246 -0.0222
  732POPI    C2 8220  16.734   7.784   5.614 -0.3106  0.3395  0.1989
  732POPI    C3 8221  16.611   7.682   5.980  0.1866 -0.0333  0.2734
  732POPI   PO4 8222  16.903   7.184   5.706 -0.2331 -0.2929 -0.0101
  732POPI   GL1 8223  16.965   6.704   5.756 -0.3504 -0.0346  0.0413
  732POPI   GL2 8224  16.618   6.753   5.980 -0.0878 -0.0536 -0.1404
  732POPI   C1A 8225  17.147   6.646   6.180 -0.1622  0.1793 -0.0651
  732POPI   D2A 8226  17.176   6.972   6.572  0.1599  0.1114 -0.1732
  732POPI   C3A 8227  17.020   7.311   6.833  0.0446  0.2073  0.2472
  732POPI   C4A 8228  16.658   7.501   7.011  0.0967 -0.2122 -0.2944
  732POPI   C1B 8229  16.729   7.052   6.322 -0.2265  0.2311  0.2993
  732POPI   C2B 8230  16.535   7.077   6.727  0.1788 -0.4142  0.1803
  732POPI   C3B 8231  16.793   6.990   7.086 -0.0287  0.0301 -0.1325
  732POPI   C4B 8232  16.971   7.302   7.403  0.0945 -0.1309 -0.1698
  733POPI    C1 8233   8.460  14.821   5.678 -0.1250  0.1212 -0.1843
  733POPI    C2 8234   8.112  15.015   5.647 -0.2303 -0.0509 -0.1021
  733POPI    C3 8235   8.226  14.761   5.360 -0.0859  0.1397 -0.2167
  733POPI   PO4 8236   8.482  14.727   5.897  0.5126  0.1208  0.0705
  733POPI   GL1 8237   8.560  14.846   6.295  0.0769 -0.0134 -0.2243
  733POPI   GL2 8238   8.479  14.512   6.413 -0.2195  0.2372 -0.2837
  733POPI   C1A 8239   8.580  14.937   6.764  0.1923 -0.2465  0.2319
  733POPI   D2A 8240   8.935  14.718   6.997 -0.3248 -0.1872 -0.0538
  733POPI   C3A 8241   9.036  14.779   7.373 -0.1400  0.0590 -0.2732
  733POPI   C4A 8242   9.125  14.746   7.839  0.3527  0.0177  0.2090
  733POPI   C1B 8243   8.549  14.381   6.890 -0.3334 -0.2277  0.1759
  733POPI   C2B 8244   8.563  14.487   7.370  0.1873  0.1463 -0.0462
  733POPI   C3B 8245   8.494  14.322   7.750 -0.0063  0.1424 -0.1100
  733POPI   C4B 8246   8.326  14.205   8.146  0.0947 -0.1103  0.1852
  734POPI    C1 8247   6.758   9.765   6.051  0.1718 -0.1341 -0.1870
  734POPI    C2 8248   6.790   9.453   5.803  0.0679 -0.1546 -0.1753
  734POPI    C3 8249   6.573   9.771   5.696  0.0644 -0.1422 -0.1317
  734POPI   PO4 8250   6.659   9.742   6.233 -0.2024 -0.0183  0.0679
  734POPI   GL1 8251   7.029   9.804   6.575  0.3589 -0.0962  0.1871
  734POPI   GL2 8252   7.333   9.915   6.681 -0.2440 -0.1838 -0.0976
  734POPI   C1A 8253   6.835   9.512   6.901 -0.0361 -0.0759 -0.0441
  734POPI   D2A 8254   6.893   9.381   7.246  0.1480 -0.1166 -0.0608
  734POPI   C3A 8255   6.973   9.523   7.633  0.0147 -0.3031 -0.1507
  734POPI   C4A 8256   6.727   9.732   7.977 -0.2817 -0.0711 -0.1018
  734POPI   C1B 8257   7.478  10.018   7.035 -0.3990  0.2587  0.0341
  734POPI   C2B 8258   7.523  10.103   7.352  0.3411  0.1625 -0.1224
  734POPI   C3B 8259   7.461  10.372   7.761  0.3178 -0.3803 -0.1762
  734POPI   C4B 8260   7.341  10.541   8.134  0.2157  0.1540 -0.1559
  735POPI    C1 8261   0.867   2.725   5.752 -0.1210  0.0334 -0.0901
  735POPI    C2 8262   1.127   2.685   5.450  0.0679 -0.0972  0.0872
  735POPI    C3 8263   0.930   2.365   5.589 -0.1742 -0.0022 -0.0321
  735POPI   PO4 8264   0.995   2.925   6.002  0.0851 -0.0881 -0.1234
  735POPI   GL1 8265   1.255   2.940   6.278  0.1117 -0.1199 -0.2312
  735POPI   GL2 8266   1.446   2.641   6.335  0.3096 -0.0822  0.1935
  735POPI   C1A 8267   1.091   3.349   6.533 -0.1022  0.0364 -0.0613
  735POPI   D2A 8268   1.035   3.280   6.931 -0.4575 -0.0312  0.0895
  735POPI   C3A 8269   0.992   3.430   7.250  0.1632 -0.0323  0.0103
  735POPI   C4A 8270   0.631   3.471   7.561 -0.1357  0.1623  0.2006
  735POPI   C1B 8271   1.237   2.626   6.658 -0.1639  0.0099  0.3379
  735POPI   C2B 8272   1.295   2.732   7.065  0.1273 -0.3646 -0.3735
  735POPI   C3B 8273   1.201   2.970   7.404 -0.0595  0.1610  0.2096
  735POPI   C4B 8274   1.098   3.301   7.742  0.1927 -0.0857  0.0256
  736POPI    C1 8275  10.743   2.109   6.458 -0.0102 -0.0480  0.0625
  736POPI    C2 8276  10.602   2.482   6.431 -0.0887 -0.0776  0.0600
  736POPI    C3 8277  10.914   2.369   6.207  0.0819  0.0532  0.2287
  736POPI   PO4 8278  10.632   2.046   6.738 -0.1218 -0.3420  0.1133
  736POPI   GL1 8279  10.750   2.244   7.068 -0.0726 -0.1525  0.2224
  736POPI   GL2 8280  10.556   2.550   6.962 -0.4026  0.0299 -0.3673
  736POPI   C1A 8281  10.878   2.249   7.491  0.3297 -0.1566  0.3474
  736POPI   D2A 8282  11.016   2.284   7.980  0.1979  0.0103 -0.1041
  736POPI   C3A 8283  10.824   2.040   8.225  0.0375 -0.1324 -0.2675
  736POPI   C4A 8284  10.764   1.882   8.573  0.1258  0.2592 -0.2010
  736POPI   C1B 8285  10.550   2.640   7.423  0.1288  0.0008  0.1433
  736POPI   C2B 8286  10.452   2.821   7.725  0.2540  0.0868  0.0368
  736POPI   C3B 8287  10.611   2.689   8.117  0.1161  0.3305  0.1260
  736POPI   C4B 8288  10.738   2.486   8.435  0.4889  0.0322 -0.1302
  737POPI    C1 8289   7.102   7.179   6.333  0.1802  0.0467 -0.2072
  737POPI    C2 8290   7.495   7.136   6.271  0.1883 -0.1082 -0.0582
  737POPI    C3 8291   7.239   6.868   6.122  0.1514 -0.0909 -0.0262
  737POPI   PO4 8292   7.122   7.444   6.291 -0.1913  0.0379 -0.2284
  737POPI   GL1 8293   7.340   7.621   6.637  0.2151  0.1979  0.1146
  737POPI   GL2 8294   7.640   7.808   6.822  0.0810 -0.0446 -0.1962
  737POPI   C1A 8295   7.132   7.550   7.024  0.2289 -0.0085 -0.0944
  737POPI   D2A 8296   7.154   7.465   7.376 -0.0272 -0.2990 -0.0163
  737POPI   C3A 8297   6.869   7.682   7.660  0.1296 -0.2065  0.0825
  737POPI   C4A 8298   6.601   7.555   8.060 -0.0555 -0.1664  0.3204
  737POPI   C1B 8299   7.581   7.627   7.150 -0.1777 -0.1447  0.2779
  737POPI   C2B 8300   7.654   7.587   7.560  0.2819 -0.0827  0.1970
  737POPI   C3B 8301   8.032   7.514   7.890  0.1590 -0.0480 -0.0816
  737POPI   C4B 8302   8.255   7.664   8.278 -0.1021 -0.0404 -0.0074
  738POPI    C1 8303   8.480   0.550   6.547 -0.1466  0.1917 -0.0040
  738POPI    C2 8304   8.680   0.779   6.807 -0.0189  0.1537 -0.0678
  738POPI    C3 8305   8.871   0.617   6.495 -0.0250 -0.3348  0.1733
  738POPI   PO4 8306   8.353   0.317   6.624 -0.5249 -0.0266 -0.0607
  738POPI   GL1 8307   8.169   0.157   6.982 -0.0744 -0.3976  0.1526
  738POPI   GL2 8308   7.985  -0.054   7.066 -0.1751 -0.0788  0.0126
  738POPI   C1A 8309   8.153   0.505   7.228 -0.2458  0.1384 -0.1811
  738POPI   D2A 8310   8.179   0.759   7.631  0.0959  0.2026  0.1563
  738POPI   C3A 8311   8.162   0.824   8.031  0.4145  0.0085  0.3083
  738POPI   C4A 8312   7.995   0.887   8.395  0.4601 -0.3960 -0.0481
  738POPI   C1B 8313   7.974  -0.044   7.463  0.0822  0.2433 -0.1897
  738POPI   C2B 8314   8.059  -0.143   7.921 -0.1860  0.0705 -0.1874
  738POPI   C3B 8315   7.972  -0.348   8.324 -0.1048 -0.0379  0.0786
  738POPI   C4B 8316   8.002  -0.570   8.676 -0.3776 -0.2438 -0.1252
  739POPS   CNO 8317   0.584   7.011   5.391  0.0849 -0.0919 -0.0855
  739POPS   PO4 8318   0.734   6.967   5.762  0.1862  0.1143 -0.1033
  739POPS   GL1 8319   0.569   6.767   6.147 -0.0861  0.2002  0.0628
  739POPS   GL2 8320   0.668   6.479   6.295 -0.1367 -0.3267  0.1245
  739POPS   C1A 8321   0.480   7.056   6.497 -0.1208 -0.2613 -0.0103
  739POPS   D2A 8322   0.539   7.298   6.935 -0.0994 -0.2511  0.3037
  739POPS   C3A 8323   0.420   7.088   7.138  0.1421 -0.1237  0.0696
  739POPS   C4A 8324   0.264   7.048   7.476  0.2877 -0.1546 -0.2474
  739POPS   C1B 8325   0.530   6.491   6.728  0.2230 -0.0723  0.3150
  739POPS   C2B 8326   0.514   6.561   7.170  0.1341  0.1094 -0.1196
  739POPS   C3B 8327   0.492   6.576   7.526  0.1040  0.3295 -0.1842
  739POPS   C4B 8328   0.427   6.778   7.827 -0.0210  0.0628 -0.0076
  740POPS   CNO 8329   6.578  16.060   6.179 -0.0895  0.1343  0.0380
  740POPS   PO4 8330   6.848  16.204   6.566 -0.0420 -0.1654 -0.0404
  740POPS   GL1 8331   6.740  15.934   6.781 -0.1040  0.2287  0.1490
  740POPS   GL2 8332   6.503  15.739   6.733 -0.1188 -0.0918  0.1210
  740POPS   C1A 8333   6.732  15.913   7.215 -0.1677 -0.2450 -0.2526
  740POPS   D2A 8334   6.826  16.008   7.606  0.2152 -0.0519 -0.3113
  740POPS   C3A 8335   6.451  16.247   7.829 -0.3935  0.0505 -0.1053
  740POPS   C4A 8336   6.410  16.386   8.218 -0.1865  0.2132  0.1699
  740POPS   C1B 8337   6.273  15.827   6.996  0.0169 -0.0454  0.0177
  740POPS   C2B 8338   5.926  16.022   7.241 -0.3749  0.0041  0.1519
  740POPS   C3B 8339   5.977  16.023   7.747  0.3918  0.0513 -0.2282
  740POPS   C4B 8340   5.951  16.387   8.037  0.1146 -0.1174 -0.0597
  741POPS   CNO 8341   4.473  11.063   6.025 -0.0356  0.0506  0.1242
  741POPS   PO4 8342   4.727  11.128   6.340  0.0601  0.1798 -0.1482
  741POPS   GL1 8343   4.941  11.056   6.734 -0.1976 -0.0008 -0.0817
  741POPS   GL2 8344   5.256  11.027   6.677  0.3042  0.0508  0.0851
  741POPS   C1A 8345   4.915  10.792   7.063  0.2810 -0.1467  0.1801
  741POPS   D2A 8346   4.711  10.772   7.534 -0.0445  0.2067  0.0977
  741POPS   C3A 8347   4.715  10.464   7.819  0.0525 -0.0842  0.0712
  741POPS   C4A 8348   4.950  10.510   8.196  0.4370  0.0620  0.1081
  741POPS   C1B 8349   5.407  11.020   7.109 -0.4880 -0.0436 -0.3015
  741POPS   C2B 8350   5.174  10.939   7.454  0.3038  0.0526  0.0234
  741POPS   C3B 8351   5.129  10.831   7.835 -0.0322 -0.0358  0.0954
  741POPS   C4B 8352   5.047  11.086   8.180  0.1931 -0.1347 -0.0202
  742POPS   CNO 8353   7.982  14.570   5.774  0.1058  0.3024 -0.0597
  742POPS   PO4 8354   7.797  14.115   5.958  0.2451 -0.1245  0.0981
  742POPS   GL1 8355   7.680  13.915   6.347  0.0484  0.1829 -0.0243
  742POPS   GL2 8356   7.912  13.650   6.447 -0.0836  0.0706  0.0035
  742POPS   C1A 8357   7.623  14.209   6.726  0.0348  0.2310 -0.0969
  742POPS   D2A 8358   7.686  14.338   7.090 -0.0216 -0.0838 -0.0509
  742POPS   C3A 8359   7.571  14.153   7.404 -0.0817  0.1191  0.0199
  742POPS   C4A 8360   7.714  13.859   7.673 -0.1207 -0.0746  0.2049
  742POPS   C1B 8361   7.697  13.607   6.788 -0.0661 -0.3313 -0.1828
  742POPS   C2B 8362   7.659  13.590   7.211  0.2033 -0.3221  0.1043
  742POPS   C3B 8363   7.700  13.294   7.578  0.0152  0.3784  0.0132
  742POPS   C4B 8364   7.670  13.106   7.911  0.0588  0.0989  0.1082
  743POPS   CNO 8365   6.374   1.594   6.361 -0.1563  0.1361  0.0098
  743POPS   PO4 8366   6.059   1.706   6.588  0.3177 -0.0142 -0.3771
  743POPS   GL1 8367   6.240   1.604   6.911 -0.2031  0.1692 -0.1740
  743POPS   GL2 8368   6.341   1.972   6.895 -0.1156  0.0593 -0.1479
  743POPS   C1A 8369   6.495   1.536   7.385 -0.0637  0.2770  0.2841
  743POPS   D2A 8370   6.429   1.540   7.840 -0.0020  0.2596 -0.1472
  743POPS   C3A 8371   6.540   1.080   8.074 -0.1258 -0.0621 -0.0005
  743POPS   C4A 8372   6.925   0.824   8.170 -0.0225 -0.0092 -0.3520
  743POPS   C1B 8373   6.615   1.988   7.273  0.0467  0.1789 -0.0723
  743POPS   C2B 8374   6.765   2.341   7.623 -0.1073  0.2654  0.2105
  743POPS   C3B 8375   7.032   2.640   7.901  0.0095  0.0648  0.0857
  743POPS   C4B 8376   7.341   2.570   8.224  0.1805 -0.1027  0.2591
  744POPS   CNO 8377   5.690   5.572   5.938  0.0976  0.0825  0.0559
  744POPS   PO4 8378   5.342   5.467   6.165  0.1927  0.1023 -0.0425
  744POPS   GL1 8379   5.004   5.542   6.511 -0.1399  0.3535  0.1124
  744POPS   GL2 8380   4.757   5.267   6.511  0.0830  0.4159  0.1365
  744POPS   C1A 8381   4.740   5.652   6.823 -0.0844 -0.0148 -0.0030
  744POPS   D2A 8382   4.780   5.461   7.289 -0.2305 -0.0515  0.1185
  744POPS   C3A 8383   4.477   5.197   7.535 -0.0698 -0.0555  0.2826
  744POPS   C4A 8384   4.518   4.794   7.744  0.0342  0.2198 -0.2050
  744POPS   C1B 8385   4.516   5.150   6.932 -0.1042  0.0515  0.0991
  744POPS   C2B 8386   4.286   4.780   7.260 -0.1589 -0.1751 -0.1354
  744POPS   C3B 8387   4.257   4.469   7.421 -0.0352 -0.0795 -0.1499
  744POPS   C4B 8388   4.130   4.516   7.904  0.0820  0.0377 -0.1544
  745POPS   CNO 8389   9.867   7.248   5.664  0.1082  0.0436 -0.2299
  745POPS   PO4 8390  10.190   6.973   5.806  0.2230 -0.2038 -0.1828
  745POPS   GL1 8391  10.100   6.809   6.209 -0.0648 -0.0795 -0.0911
  745POPS   GL2 8392  10.112   6.477   6.218  0.0487 -0.0275 -0.2239
  745POPS   C1A 8393   9.801   6.757   6.620  0.3264  0.1212 -0.0676
  745POPS   D2A 8394   9.631   7.015   6.973 -0.2037 -0.0723  0.0746
  745POPS   C3A 8395   9.520   7.011   7.309 -0.1723  0.0091  0.0869
  745POPS   C4A 8396   9.415   7.066   7.689 -0.1770 -0.0749  0.1827
  745POPS   C1B 8397  10.003   6.150   6.544  0.4592  0.0176  0.0823
  745POPS   C2B 8398  10.178   6.010   6.875 -0.1942  0.2767 -0.1036
  745POPS   C3B 8399  10.163   5.775   7.266 -0.0569 -0.1089 -0.0166
  745POPS   C4B 8400  10.088   5.492   7.705 -0.1600 -0.0499 -0.1858
  746POPS   CNO 8401  16.749   3.192   5.725  0.1008  0.2027 -0.2215
  746POPS   PO4 8402  17.149   3.468   5.679 -0.0893  0.0615 -0.0793
  746POPS   GL1 8403  17.013   3.409   6.119 -0.1225  0.3317  0.3384
  746POPS   GL2 8404  16.910   3.099   6.247 -0.0220  0.1256  0.2120
  746POPS   C1A 8405  17.057   3.613   6.505 -0.0794  0.3121 -0.1174
  746POPS   D2A 8406  16.998   3.698   6.951 -0.0413 -0.0833 -0.1389
  746POPS   C3A 8407  17.198   4.039   7.110 -0.1977  0.3724  0.0400
  746POPS   C4A 8408  17.148   4.125   7.543  0.1796  0.1230 -0.0964
  746POPS   C1B 8409  16.761   3.231   6.699 -0.0638  0.2263 -0.1276
  746POPS   C2B 8410  16.547   3.442   7.064 -0.1413 -0.0884 -0.0158
  746POPS   C3B 8411  16.571   3.550   7.436  0.1570 -0.2155 -0.0379
  746POPS   C4B 8412  16.432   3.363   7.754  0.2112  0.1926  0.0137
  747POPS   CNO 8413   5.991   3.147   6.322  0.1041  0.0580  0.0163
  747POPS   PO4 8414   6.249   3.466   6.223 -0.1919  0.1736  0.2023
  747POPS   GL1 8415   6.290   3.429   6.694  0.1815 -0.1906  0.0658
  747POPS   GL2 8416   5.867   3.349   6.713 -0.2005 -0.1773 -0.3854
  747POPS   C1A 8417   6.158   3.563   7.091  0.0791 -0.0082  0.0661
  747POPS   D2A 8418   6.186   3.664   7.457 -0.1212 -0.0931 -0.2167
  747POPS   C3A 8419   6.058   3.834   7.832  0.1254 -0.3336 -0.1439
  747POPS   C4A 8420   6.005   3.877   8.251  0.0681  0.2856 -0.0642
  747POPS   C1B 8421   5.666   3.451   7.046 -0.3139 -0.2709  0.0615
  747POPS   C2B 8422   5.463   3.510   7.372 -0.0611  0.0006  0.0352
  747POPS   C3B 8423   5.599   3.744   7.706 -0.1684  0.0586  0.3144
  747POPS   C4B 8424   5.733   4.195   7.682  0.0753  0.0250 -0.1254
  748POPS   CNO 8425  17.674  10.781   6.276 -0.0218 -0.2462  0.1747
  748POPS   PO4 8426  17.634  10.434   6.158  0.1387  0.0929  0.4179
  748POPS   GL1 8427  17.838  10.265   6.501  0.1113  0.1563  0.0830
  748POPS   GL2 8428  18.139  10.231   6.444  0.0954 -0.2643 -0.0310
  748POPS   C1A 8429  17.935  10.065   6.914 -0.2095 -0.1205  0.5236
  748POPS   D2A 8430  18.200   9.695   7.247  0.0823 -0.3471 -0.0256
  748POPS   C3A 8431  18.324   9.772   7.626 -0.1478  0.1445 -0.2171
  748POPS   C4A 8432  18.337  10.103   7.919 -0.0091  0.1965  0.2937
  748POPS   C1B 8433  18.277  10.425   6.884  0.1796 -0.0114  0.1349
  748POPS   C2B 8434  18.430  10.672   7.316  0.0503 -0.3190 -0.1116
  748POPS   C3B 8435  18.285  10.552   7.703  0.1872 -0.0942  0.1065
  748POPS   C4B 8436  18.183  10.472   8.244  0.0305  0.1847 -0.0292
  749POPS   CNO 8437   4.890   4.471   6.258  0.0393  0.0421 -0.0924
  749POPS   PO4 8438   4.906   4.037   6.242 -0.0382  0.1122  0.4182
  749POPS   GL1 8439   4.905   4.049   6.683  0.2075  0.0955 -0.0188
  749POPS   GL2 8440   5.166   4.355   6.751  0.2866  0.0452 -0.2018
  749POPS   C1A 8441   4.791   4.199   7.103 -0.1682  0.0356  0.0693
  749POPS   D2A 8442   4.705   4.378   7.514 -0.3708 -0.2426 -0.1944
  749POPS   C3A 8443   5.002   4.573   7.869 -0.0838 -0.0143 -0.2265
  749POPS   C4A 8444   5.028   4.883   8.185 -0.2078  0.0389 -0.1840
  749POPS   C1B 8445   5.192   4.481   7.212  0.1934  0.1549  0.2078
  749POPS   C2B 8446   5.385   4.545   7.561  0.0185 -0.2108  0.0397
  749POPS   C3B 8447   5.429   4.831   7.664  0.2976 -0.3013  0.1100
  749POPS   C4B 8448   5.543   5.116   7.400  0.0601  0.0073  0.1660
  750POPS   CNO 8449   6.009  17.937   6.084  0.1940 -0.1007 -0.0745
  750POPS   PO4 8450   6.016  18.014   6.524  0.1638 -0.0491 -0.1871
  750POPS   GL1 8451   6.116  18.134   6.899  0.0063  0.0779 -0.2599
  750POPS   GL2 8452   6.456  17.980   7.161 -0.1208  0.0090 -0.2636
  750POPS   C1A 8453   5.928  17.843   7.297 -0.3381  0.0832  0.2642
  750POPS   D2A 8454   5.654  17.515   7.484  0.1753 -0.1194  0.0164
  750POPS   C3A 8455   5.722  17.326   7.829  0.0773  0.1595  0.0777
  750POPS   C4A 8456   6.064  17.368   8.160 -0.0520  0.1386 -0.1671
  750POPS   C1B 8457   6.895  17.816   7.241 -0.0928 -0.1649 -0.1716
  750POPS   C2B 8458   7.203  17.813   7.611  0.0731 -0.1471  0.2770
  750POPS   C3B 8459   7.132  17.786   8.014  0.0323  0.0480  0.2161
  750POPS   C4B 8460   6.736  17.715   8.190  0.2252 -0.1752 -0.2733
  751POPS   CNO 8461   8.932   5.488   5.646  0.2418 -0.0589  0.3903
  751POPS   PO4 8462   9.126   5.225   5.823  0.0556 -0.0131 -0.0185
  751POPS   GL1 8463   8.850   5.410   6.126  0.1715 -0.1049  0.1733
  751POPS   GL2 8464   9.073   5.620   6.299  0.3680  0.3579  0.1227
  751POPS   C1A 8465   8.607   5.266   6.582  0.1713 -0.1858  0.0209
  751POPS   D2A 8466   8.230   5.170   6.661 -0.0210 -0.1632  0.0909
  751POPS   C3A 8467   8.141   5.142   6.995  0.2244 -0.4928  0.0335
  751POPS   C4A 8468   8.237   5.268   7.478  0.1496 -0.1709 -0.0584
  751POPS   C1B 8469   9.017   5.747   6.742  0.2619 -0.1025  0.4310
  751POPS   C2B 8470   8.980   5.698   7.228 -0.1379  0.3084 -0.2382
  751POPS   C3B 8471   8.719   5.406   7.517  0.1571 -0.1291 -0.2822
  751POPS   C4B 8472   8.614   5.145   7.980 -0.0110 -0.1108  0.1456
  752POPS   CNO 8473   2.199   0.904   6.369 -0.0344 -0.0596  0.0789
  752POPS   PO4 8474   1.989   0.600   6.506 -0.3059  0.1157  0.3851
  752POPS   GL1 8475   2.030   0.449   6.976 -0.2578  0.1197  0.0230
  752POPS   GL2 8476   1.948   0.136   7.055 -0.1932  0.0366 -0.1840
  752POPS   C1A 8477   2.007   0.544   7.516 -0.1036 -0.1205 -0.2420
  752POPS   D2A 8478   1.824   0.816   7.647 -0.0985 -0.2918 -0.0882
  752POPS   C3A 8479   1.602   0.961   7.949 -0.3224  0.1018  0.0330
  752POPS   C4A 8480   1.219   0.990   7.943  0.2835 -0.3810  0.0753
  752POPS   C1B 8481   2.428   0.247   7.246  0.5424 -0.1274  0.0193
  752POPS   C2B 8482   2.565   0.478   7.569 -0.1206 -0.3671  0.0019
  752POPS   C3B 8483   2.783   0.847   7.906  0.0580  0.1079  0.0010
  752POPS   C4B 8484   2.596   1.066   8.185 -0.2776 -0.1294 -0.1780
  753POPS   CNO 8485  17.199   0.708   5.680 -0.1566  0.0516 -0.3585
  753POPS   PO4 8486  16.996   0.560   6.058 -0.3429 -0.0997 -0.1230
  753POPS   GL1 8487  16.900   0.671   6.457  0.0356 -0.0245  0.1520
  753POPS   GL2 8488  16.901   0.984   6.566  0.0133 -0.0098 -0.1941
  753POPS   C1A 8489  16.646   0.513   6.826  0.2251  0.0056 -0.1052
  753POPS   D2A 8490  16.472   0.760   7.137 -0.3156  0.0632  0.1424
  753POPS   C3A 8491  16.432   0.696   7.568 -0.0522 -0.0510  0.0378
  753POPS   C4A 8492  16.407   0.560   8.063 -0.0521  0.1474  0.2598
  753POPS   C1B 8493  16.892   0.977   7.000  0.0024 -0.0253 -0.1625
  753POPS   C2B 8494  16.863   0.861   7.410  0.0455  0.0020  0.0944
  753POPS   C3B 8495  16.861   0.810   7.841  0.1193  0.0240 -0.1179
  753POPS   C4B 8496  16.985   1.168   8.111 -0.1766 -0.0141 -0.1563
  754POPS   CNO 8497  15.221   9.408   5.605 -0.1100  0.2237  0.3221
  754POPS   PO4 8498  15.192   8.890   5.579  0.3334 -0.2590 -0.2933
  754POPS   GL1 8499  15.218   8.661   5.822  0.0537  0.2126 -0.0588
  754POPS   GL2 8500  15.500   8.625   5.943 -0.0881  0.0835 -0.2379
  754POPS   C1A 8501  14.986   8.640   6.222 -0.0409 -0.1265  0.1796
  754POPS   D2A 8502  15.099   8.682   6.646  0.3595  0.2361 -0.1416
  754POPS   C3A 8503  15.250   8.449   7.063 -0.2214 -0.1480  0.1439
  754POPS   C4A 8504  15.235   8.181   7.370  0.0595 -0.0213  0.0096
  754POPS   C1B 8505  15.545   8.556   6.377 -0.1472 -0.1286  0.0706
  754POPS   C2B 8506  15.596   8.735   6.786  0.0185 -0.0304 -0.0408
  754POPS   C3B 8507  15.610   8.744   7.230 -0.3194 -0.1347 -0.0193
  754POPS   C4B 8508  15.605   8.874   7.702  0.3747  0.1005 -0.0373
  755POPS   CNO 8509  12.913  12.193   6.295 -0.1870 -0.2384 -0.1447
  755POPS   PO4 8510  12.459  12.275   6.253 -0.1187  0.0996 -0.1599
  755POPS   GL1 8511  12.483  12.238   6.678 -0.2213 -0.1275 -0.1661
  755POPS   GL2 8512  12.777  12.445   6.713  0.0647 -0.0344 -0.2345
  755POPS   C1A 8513  12.544  12.166   7.066 -0.0669 -0.1975 -0.1228
  755POPS   D2A 8514  12.751  12.105   7.385  0.1974 -0.1146  0.2436
  755POPS   C3A 8515  12.874  12.065   7.813 -0.0108  0.1501  0.0906
  755POPS   C4A 8516  12.844  12.315   8.169 -0.0574  0.1888  0.0561
  755POPS   C1B 8517  13.044  12.210   6.944 -0.0438 -0.0373  0.4119
  755POPS   C2B 8518  13.334  12.020   7.111  0.1344  0.0902  0.1539
  755POPS   C3B 8519  13.242  11.932   7.523  0.2394 -0.2726  0.0033
  755POPS   C4B 8520  13.135  11.665   7.926  0.1833 -0.2407  0.2590
  756POPS   CNO 8521  15.405   9.579   6.079 -0.1983  0.1807 -0.1155
  756POPS   PO4 8522  15.798   9.467   5.969  0.0082 -0.2210 -0.1863
  756POPS   GL1 8523  16.113   9.353   6.307  0.0437  0.0416  0.0204
  756POPS   GL2 8524  16.472   9.114   6.255  0.2596  0.1526  0.0912
  756POPS   C1A 8525  16.023   8.862   6.557 -0.0518  0.0319 -0.0255
  756POPS   D2A 8526  16.029   8.641   7.023 -0.1245 -0.1041 -0.1212
  756POPS   C3A 8527  15.815   8.334   7.195 -0.1266 -0.2790 -0.0383
  756POPS   C4A 8528  15.686   7.971   7.361  0.2102  0.2402 -0.1285
  756POPS   C1B 8529  16.437   9.078   6.691  0.4106  0.3062 -0.2418
  756POPS   C2B 8530  16.586   9.026   7.142 -0.0250  0.2382 -0.0025
  756POPS   C3B 8531  16.583   8.686   7.642 -0.0059 -0.0182  0.0239
  756POPS   C4B 8532  16.418   8.509   7.991 -0.3523  0.3035 -0.3896
  757POPS   CNO 8533   9.365  14.484   5.781 -0.0865 -0.0860  0.3155
  757POPS   PO4 8534   9.435  14.529   6.105  0.1511 -0.1362  0.6036
  757POPS   GL1 8535   9.447  14.425   6.562 -0.1676  0.2746 -0.3168
  757POPS   GL2 8536   9.694  14.275   6.494  0.1641  0.0545 -0.6987
  757POPS   C1A 8537   9.382  14.455   6.973  0.4198 -0.1977  0.3801
  757POPS   D2A 8538   9.421  14.357   7.352 -0.1636 -0.3362  0.0079
  757POPS   C3A 8539   9.813  14.354   7.533 -0.0605  0.0528  0.1905
  757POPS   C4A 8540  10.142  14.189   7.685 -0.1442  0.0767 -0.0435
  757POPS   C1B 8541   9.828  14.310   6.886 -0.0361 -0.1106  0.4105
  757POPS   C2B 8542   9.759  14.034   7.150  0.0709  0.0289  0.0295
  757POPS   C3B 8543   9.680  13.871   7.564  0.0231 -0.0729 -0.0467
  757POPS   C4B 8544   9.655  13.650   7.972 -0.0461  0.0081  0.2062
  758POPS   CNO 8545   0.233   0.649   5.933 -0.0375  0.3531  0.2324
  758POPS   PO4 8546   0.114   0.850   6.215 -0.4858 -0.1095 -0.1864
  758POPS   GL1 8547   0.222   0.752   6.576  0.2448  0.0987  0.1624
  758POPS   GL2 8548   0.414   0.528   6.594  0.0619  0.0395  0.0493
  758POPS   C1A 8549   0.015   0.842   6.971 -0.0862  0.2218 -0.0992
  758POPS   D2A 8550  -0.118   0.893   7.342 -0.1522 -0.1139  0.0086
  758POPS   C3A 8551  -0.493   0.991   7.508 -0.1969  0.2011  0.1218
  758POPS   C4A 8552  -0.592   0.945   7.823 -0.1008 -0.1255  0.2300
  758POPS   C1B 8553   0.627   0.927   6.797  0.0235 -0.1648 -0.2905
  758POPS   C2B 8554   0.418   0.940   7.196 -0.3749 -0.0562 -0.1648
  758POPS   C3B 8555   0.344   1.056   7.616  0.0276  0.1666 -0.0313
  758POPS   C4B 8556   0.371   1.086   8.073 -0.0096  0.0526 -0.0242
  759POPS   CNO 8557  17.790   4.767   5.145  0.1872  0.1400  0.0658
  759POPS   PO4 8558  18.114   5.137   5.210  0.0014  0.1233 -0.0844
  759POPS   GL1 8559  17.987   5.229   5.652 -0.0602  0.1068 -0.3274
  759POPS   GL2 8560  17.596   5.426   5.705  0.0366 -0.0962 -0.2110
  759POPS   C1A 8561  17.978   5.523   6.081  0.0330  0.0326  0.4550
  759POPS   D2A 8562  18.003   5.683   6.515 -0.2557 -0.0806 -0.0341
  759POPS   C3A 8563  17.892   5.659   6.937 -0.0552  0.3143 -0.1013
  759POPS   C4A 8564  17.621   5.217   7.091 -0.2256  0.0257 -0.3656
  759POPS   C1B 8565  17.293   5.614   5.996  0.1885 -0.1167  0.0949
  759POPS   C2B 8566  17.011   5.803   6.357  0.1945  0.1040  0.1500
  759POPS   C3B 8567  17.007   5.641   6.802 -0.4433 -0.0871 -0.4803
  759POPS   C4B 8568  17.233   5.480   7.166  0.1655 -0.0328 -0.2426
  760POPS   CNO 8569   4.051   3.459   6.428  0.2700 -0.2179 -0.0666
  760POPS   PO4 8570   4.122   3.784   6.187 -0.0291 -0.1180 -0.1898
  760POPS   GL1 8571   4.103   3.979   6.594  0.2042 -0.0097  0.2405
  760POPS   GL2 8572   4.371   3.895   6.768  0.1546  0.0933 -0.1937
  760POPS   C1A 8573   3.798   3.812   6.897 -0.2534 -0.2355  0.2964
  760POPS   D2A 8574   3.600   3.596   7.293  0.1577  0.0169  0.1691
  760POPS   C3A 8575   3.630   3.205   7.282 -0.0546 -0.0471  0.1354
  760POPS   C4A 8576   3.508   2.917   6.909 -0.0410  0.0667  0.1191
  760POPS   C1B 8577   4.653   3.693   7.053  0.2192  0.0161 -0.0430
  760POPS   C2B 8578   4.595   3.673   7.518 -0.0385 -0.0158 -0.0170
  760POPS   C3B 8579   4.759   3.601   7.980  0.1570 -0.3498 -0.0968
  760POPS   C4B 8580   5.077   3.795   8.381  0.0569 -0.0988  0.0968
  761POPS   CNO 8581  10.132   4.064   6.270 -0.1945  0.1042  0.0090
  761POPS   PO4 8582   9.769   4.013   6.627  0.2148 -0.4896 -0.3243
  761POPS   GL1 8583   9.387   4.212   6.855 -0.1530 -0.2427 -0.0867
  761POPS   GL2 8584   9.214   3.921   6.973 -0.2580  0.0718  0.3949
  761POPS   C1A 8585   9.368   4.278   7.199 -0.3335 -0.1806 -0.0501
  761POPS   D2A 8586   9.412   4.303   7.626  0.0281 -0.2799 -0.0042
  761POPS   C3A 8587   9.209   4.448   7.809 -0.1465  0.1469  0.1167
  761POPS   C4A 8588   9.065   4.830   7.951  0.1721  0.1608 -0.0013
  761POPS   C1B 8589   8.949   4.068   7.256  0.0590  0.0347  0.2756
  761POPS   C2B 8590   9.012   4.019   7.757  0.0710 -0.1153  0.0336
  761POPS   C3B 8591   8.729   3.888   8.095 -0.1567 -0.0738 -0.3106
  761POPS   C4B 8592   8.486   3.716   8.412 -0.0716 -0.0378 -0.0874
  762POPS   CNO 8593  11.476   6.504   5.900  0.0865  0.0557 -0.2478
  762POPS   PO4 8594  11.840   6.523   5.880 -0.0950 -0.2040 -0.2392
  762POPS   GL1 8595  11.856   6.441   6.333 -0.0136 -0.4169 -0.1181
  762POPS   GL2 8596  12.164   6.307   6.490  0.0428 -0.2212 -0.0839
  762POPS   C1A 8597  11.667   6.311   6.684  0.1921 -0.0552 -0.4606
  762POPS   D2A 8598  11.701   6.232   7.119 -0.0556  0.2131  0.2292
  762POPS   C3A 8599  11.612   6.265   7.555  0.4644  0.0957  0.1151
  762POPS   C4A 8600  11.459   6.215   7.933 -0.2235 -0.0010  0.2454
  762POPS   C1B 8601  12.099   6.502   6.878 -0.0622 -0.2278  0.2263
  762POPS   C2B 8602  12.215   6.718   7.220  0.2645  0.1522 -0.1572
  762POPS   C3B 8603  12.391   6.810   7.645  0.2153 -0.5130 -0.1167
  762POPS   C4B 8604  12.204   7.030   8.073 -0.3670  0.0100  0.2475
  763POPS   CNO 8605   1.874   9.361   6.362  0.3553  0.1765  0.0810
  763POPS   PO4 8606   1.971   9.685   6.285  0.1472  0.1374 -0.0731
  763POPS   GL1 8607   1.793   9.753   6.654 -0.0113  0.1636 -0.0351
  763POPS   GL2 8608   1.466   9.517   6.741  0.3202 -0.0868 -0.1642
  763POPS   C1A 8609   1.887   9.593   7.099  0.1895  0.1545  0.1122
  763POPS   D2A 8610   1.953   9.657   7.626 -0.2021  0.3361  0.4497
  763POPS   C3A 8611   1.770   9.255   7.776 -0.0346 -0.2778  0.4979
  763POPS   C4A 8612   2.143   9.091   7.921 -0.1969 -0.1303 -0.0243
  763POPS   C1B 8613   1.270   9.324   7.097  0.0822 -0.3071  0.1077
  763POPS   C2B 8614   1.137   9.239   7.555  0.0891  0.5694 -0.0803
  763POPS   C3B 8615   1.313   9.036   7.809  0.1543  0.0741 -0.2415
  763POPS   C4B 8616   1.382   8.741   8.174 -0.0460 -0.2897  0.2798
  764POPS   CNO 8617  15.752  16.250   6.200  0.3474 -0.0277  0.2114
  764POPS   PO4 8618  15.979  16.620   6.277  0.1617  0.1507 -0.1095
  764POPS   GL1 8619  15.735  16.749   6.627  0.0969 -0.0027 -0.0363
  764POPS   GL2 8620  15.962  16.911   6.824  0.1548 -0.2153  0.0501
  764POPS   C1A 8621  15.417  16.802   6.932  0.1743 -0.2669  0.0318
  764POPS   D2A 8622  15.260  17.078   7.303 -0.4438  0.2064  0.0094
  764POPS   C3A 8623  15.503  17.099   7.556 -0.0221  0.0617 -0.0773
  764POPS   C4A 8624  15.820  17.085   7.834  0.2284  0.1352 -0.1241
  764POPS   C1B 8625  15.869  17.001   7.221 -0.2401  0.0140 -0.1983
  764POPS   C2B 8626  15.891  17.438   7.395  0.0241 -0.0426 -0.0446
  764POPS   C3B 8627  15.976  17.780   7.517 -0.0911 -0.0189  0.0132
  764POPS   C4B 8628  16.021  18.149   7.702 -0.0491 -0.0704 -0.0532
  765POPS   CNO 8629   3.175  10.836   6.359  0.0142  0.0481 -0.2009
  765POPS   PO4 8630   2.791  10.814   6.560 -0.1425  0.1017  0.0816
  765POPS   GL1 8631   3.137  10.653   6.925  0.0681 -0.0972  0.1491
  765POPS   GL2 8632   3.486  10.659   6.837 -0.0943  0.1658 -0.2126
  765POPS   C1A 8633   3.077  10.393   7.281 -0.0476  0.1767  0.4032
  765POPS   D2A 8634   3.113  10.191   7.607 -0.1765 -0.0182 -0.0138
  765POPS   C3A 8635   3.246  10.188   7.946  0.0591 -0.5135  0.1039
  765POPS   C4A 8636   3.226   9.859   8.170  0.1890  0.1760  0.0147
  765POPS   C1B 8637   3.598  10.970   7.159 -0.1498  0.0255 -0.3171
  765POPS   C2B 8638   3.781  11.184   7.465  0.0690 -0.3350  0.0749
  765POPS   C3B 8639   3.601  11.038   7.910  0.1155 -0.1312  0.1103
  765POPS   C4B 8640   3.399  10.992   8.160  0.0769 -0.1674 -0.2637
  766POPS   CNO 8641  16.857  11.287   6.358  0.0680  0.3122  0.1065
  766POPS   PO4 8642  17.145  11.701   6.486 -0.0640 -0.0030 -0.1226
  766POPS   GL1 8643  17.375  11.464   6.826 -0.1908  0.3647  0.0476
  766POPS   GL2 8644  17.211  11.356   6.918  0.1208  0.5582 -0.0288
  766POPS   C1A 8645  17.604  11.504   7.177 -0.1257  0.1681 -0.2263
  766POPS   D2A 8646  17.607  11.454   7.750  0.0668 -0.4592  0.1046
  766POPS   C3A 8647  17.701  11.056   7.827  0.1502 -0.1383  0.0730
  766POPS   C4A 8648  17.977  10.828   8.026 -0.1364 -0.2439 -0.1793
  766POPS   C1B 8649  16.936  11.650   7.056 -0.0632 -0.1865  0.1199
  766POPS   C2B 8650  16.556  11.777   7.124  0.1268  0.0076  0.0963
  766POPS   C3B 8651  16.423  11.760   7.537  0.2158  0.2281  0.3231
  766POPS   C4B 8652  16.286  11.559   7.935 -0.0955  0.2633 -0.2278
  767POPS   CNO 8653  16.269  13.259   6.703  0.1476  0.1736  0.0061
  767POPS   PO4 8654  16.023  13.642   6.641  0.0671  0.0494  0.0487
  767POPS   GL1 8655  16.118  13.585   7.038  0.1724 -0.0984  0.1846
  767POPS   GL2 8656  16.014  13.297   7.111 -0.0566 -0.2041 -0.1699
  767POPS   C1A 8657  16.416  13.592   7.381 -0.1608  0.0460  0.0827
  767POPS   D2A 8658  16.586  13.325   7.677 -0.1831 -0.1871  0.0400
  767POPS   C3A 8659  16.375  13.247   8.156 -0.0965  0.0472  0.0643
  767POPS   C4A 8660  16.455  12.927   8.526 -0.0198  0.0853 -0.3291
  767POPS   C1B 8661  16.096  13.216   7.573  0.0761  0.2704  0.0875
  767POPS   C2B 8662  15.949  13.135   7.874 -0.1480 -0.1900 -0.0993
  767POPS   C3B 8663  16.048  12.831   8.240 -0.1140 -0.1428 -0.1807
  767POPS   C4B 8664  15.991  12.613   8.647  0.0871 -0.1308 -0.0666
  768POPS   CNO 8665   2.815  13.054   6.118  0.0626  0.0374  0.2424
  768POPS   PO4 8666   2.838  12.728   6.394  0.2139 -0.2085 -0.0637
  768POPS   GL1 8667   2.606  12.559   6.722 -0.3766  0.1509 -0.1420
  768POPS   GL2 8668   2.812  12.307   6.918  0.0555  0.0582 -0.1096
  768POPS   C1A 8669   2.517  12.683   7.137  0.1039 -0.0081 -0.2040
  768POPS   D2A 8670   2.548  12.872   7.589 -0.0202 -0.1861 -0.2982
  768POPS   C3A 8671   2.851  12.761   7.881 -0.0363 -0.0751  0.0943
  768POPS   C4A 8672   3.147  12.937   8.145 -0.2322 -0.0295  0.0335
  768POPS   C1B 8673   2.831  12.082   7.224  0.0846 -0.1938 -0.1165
  768POPS   C2B 8674   2.951  11.761   7.551 -0.1355 -0.0910  0.0346
  768POPS   C3B 8675   3.000  11.485   7.840 -0.0950 -0.2381  0.3989
  768POPS   C4B 8676   2.969  11.183   8.112  0.1817  0.1898 -0.0072
  769POPS   CNO 8677   4.487   5.912   5.795  0.3443  0.3536  0.0564
  769POPS   PO4 8678   4.151   5.772   5.971  0.0429  0.0503  0.2260
  769POPS   GL1 8679   4.004   6.014   6.458  0.1791 -0.1076  0.0167
  769POPS   GL2 8680   4.226   6.179   6.580 -0.1721  0.1675  0.1972
  769POPS   C1A 8681   3.835   6.047   6.828  0.3439  0.1022  0.1392
  769POPS   D2A 8682   3.594   5.702   7.070 -0.0011 -0.0728  0.2243
  769POPS   C3A 8683   3.224   5.827   7.283  0.2264 -0.1452 -0.1175
  769POPS   C4A 8684   2.867   5.576   7.527  0.1423 -0.0519  0.1696
  769POPS   C1B 8685   4.404   6.117   6.971 -0.1866  0.0095  0.2371
  769POPS   C2B 8686   4.700   6.045   7.183 -0.2430  0.1658 -0.0598
  769POPS   C3B 8687   4.978   5.857   7.639 -0.1434  0.3086 -0.1814
  769POPS   C4B 8688   5.081   5.927   8.035 -0.1273  0.0031  0.0818
  770POPS   CNO 8689   4.832   6.192   5.670 -0.2409  0.2756 -0.0557
  770POPS   PO4 8690   4.785   6.173   6.145  0.0086 -0.1068 -0.0502
  770POPS   GL1 8691   5.198   6.105   6.388  0.1860  0.2899 -0.0817
  770POPS   GL2 8692   5.452   6.348   6.572  0.0054 -0.2704 -0.3034
  770POPS   C1A 8693   5.389   5.849   6.781  0.1913  0.0139 -0.0436
  770POPS   D2A 8694   5.179   5.830   7.119 -0.3169  0.4849 -0.1331
  770POPS   C3A 8695   5.299   5.552   7.430 -0.0838  0.0842  0.1172
  770POPS   C4A 8696   5.310   5.427   7.824 -0.1172 -0.2127 -0.1271
  770POPS   C1B 8697   5.267   6.309   6.976  0.1409  0.2476  0.1138
  770POPS   C2B 8698   5.147   6.396   7.372  0.0212 -0.0117 -0.2638
  770POPS   C3B 8699   4.920   6.408   7.648  0.0201 -0.1934 -0.0164
  770POPS   C4B 8700   4.586   6.210   7.875 -0.1703 -0.0400 -0.1732
  771POPS   CNO 8701   0.918  16.482   6.559  0.1941  0.0110  0.1928
  771POPS   PO4 8702   1.292  16.338   6.517  0.2638  0.1731 -0.1197
  771POPS   GL1 8703   1.430  16.592   6.848  0.0570 -0.2063 -0.1009
  771POPS   GL2 8704   1.238  16.906   6.870 -0.4313 -0.0332 -0.1240
  771POPS   C1A 8705   1.294  16.525   7.290 -0.3424  0.2642  0.0337
  771POPS   D2A 8706   1.275  16.532   7.755 -0.1992  0.1116  0.2677
  771POPS   C3A 8707   1.095  16.223   7.995  0.3758  0.0485 -0.2156
  771POPS   C4A 8708   0.836  15.908   8.299  0.0177 -0.1402  0.0353
  771POPS   C1B 8709   1.497  16.994   7.199 -0.0768  0.1313 -0.4581
  771POPS   C2B 8710   1.629  16.928   7.629 -0.1980 -0.2583 -0.1543
  771POPS   C3B 8711   1.363  17.057   8.079 -0.3367 -0.2955  0.0752
  771POPS   C4B 8712   1.222  17.013   8.408 -0.2882 -0.0159 -0.1869
  772POPS   CNO 8713   5.312   2.481   6.014 -0.0364  0.1681 -0.2795
  772POPS   PO4 8714   5.016   2.664   6.235 -0.0528  0.0846 -0.2361
  772POPS   GL1 8715   5.086   2.946   6.518  0.1524 -0.1065  0.1714
  772POPS   GL2 8716   4.938   2.787   6.880  0.1776 -0.1328  0.0530
  772POPS   C1A 8717   5.280   3.165   6.845  0.2994  0.1491  0.0325
  772POPS   D2A 8718   5.388   3.056   7.237  0.0052 -0.3562 -0.0902
  772POPS   C3A 8719   5.524   2.694   7.320 -0.1966  0.0660  0.0296
  772POPS   C4A 8720   5.702   2.253   7.239 -0.0846  0.1356  0.1274
  772POPS   C1B 8721   4.921   2.780   7.351 -0.1621 -0.4073 -0.4769
  772POPS   C2B 8722   5.056   2.723   7.825  0.2404  0.2850 -0.4740
  772POPS   C3B 8723   5.180   2.830   8.132  0.1363  0.0558 -0.0486
  772POPS   C4B 8724   5.138   3.026   8.465  0.0614  0.1473  0.0338
  773POPS   CNO 8725   8.947   1.446   6.681 -0.1938  0.0362 -0.1080
  773POPS   PO4 8726   9.103   1.029   6.640 -0.1812 -0.1438 -0.1193
  773POPS   GL1 8727   9.106   0.972   7.155 -0.4438  0.1597 -0.1913
  773POPS   GL2 8728   9.351   0.790   7.385  0.0233  0.1724 -0.0915
  773POPS   C1A 8729   8.918   1.035   7.555 -0.1930  0.2061 -0.1948
  773POPS   D2A 8730   8.622   0.987   7.824  0.1135  0.2946  0.2139
  773POPS   C3A 8731   8.584   1.026   8.202 -0.2201  0.4599 -0.2911
  773POPS   C4A 8732   8.443   1.204   8.604  0.2731  0.0517 -0.0602
  773POPS   C1B 8733   9.343   0.600   7.753  0.2132  0.3729  0.0788
  773POPS   C2B 8734   9.422   0.669   8.186  0.0032 -0.1529  0.0115
  773POPS   C3B 8735   9.596   0.568   8.548 -0.0717  0.0246  0.0209
  773POPS   C4B 8736   9.926   0.252   8.769  0.0141 -0.1380  0.2453
  774POPS   CNO 8737  14.800   1.805   6.089  0.0386 -0.1476  0.2425
  774POPS   PO4 8738  14.763   2.252   6.099 -0.0742 -0.0807  0.0212
  774POPS   GL1 8739  14.814   2.088   6.538  0.2915 -0.0174 -0.1157
  774POPS   GL2 8740  14.696   1.779   6.569 -0.1009 -0.0844 -0.2385
  774POPS   C1A 8741  14.989   2.136   6.884 -0.1813 -0.0188  0.0225
  774POPS   D2A 8742  15.419   2.249   7.084 -0.0482  0.0703 -0.0887
  774POPS   C3A 8743  15.665   2.604   7.292 -0.0624 -0.1502 -0.3304
  774POPS   C4A 8744  15.701   2.876   7.540 -0.1392 -0.0704  0.3082
  774POPS   C1B 8745  14.733   1.758   7.040 -0.3527 -0.2995  0.0938
  774POPS   C2B 8746  14.843   1.634   7.480  0.0648  0.2481 -0.2083
  774POPS   C3B 8747  14.761   1.336   7.837 -0.0539 -0.0649  0.0412
  774POPS   C4B 8748  14.499   0.994   7.985  0.3145 -0.1166 -0.1838
  775POPS   CNO 8749  16.003   2.086   5.949 -0.1805  0.3438  0.1098
  775POPS   PO4 8750  15.897   1.756   6.026  0.0279  0.2430 -0.0487
  775POPS   GL1 8751  15.629   1.790   6.498 -0.0059  0.2026  0.4484
  775POPS   GL2 8752  15.404   1.998   6.655 -0.3181  0.1713 -0.0236
  775POPS   C1A 8753  15.746   1.896   7.027 -0.0539  0.0289 -0.2694
  775POPS   D2A 8754  15.961   2.066   7.266  0.3055  0.1746  0.0369
  775POPS   C3A 8755  16.238   2.034   7.475 -0.4552 -0.1616 -0.2723
  775POPS   C4A 8756  16.445   2.169   7.765  0.3581  0.2327 -0.1188
  775POPS   C1B 8757  15.766   2.295   6.742  0.0065 -0.1792  0.1414
  775POPS   C2B 8758  15.859   2.735   6.818 -0.1614  0.0535 -0.1124
  775POPS   C3B 8759  15.986   3.002   7.030  0.1043  0.1646 -0.2017
  775POPS   C4B 8760  16.100   3.279   7.286 -0.1264  0.0025  0.0456
  776POPS   CNO 8761   4.009  16.469   6.161 -0.2711  0.0903  0.1887
  776POPS   PO4 8762   4.208  16.678   6.565 -0.0839  0.0060  0.4084
  776POPS   GL1 8763   4.119  16.861   6.889 -0.2040 -0.2289 -0.0827
  776POPS   GL2 8764   4.395  16.770   6.999  0.3770 -0.1334 -0.2449
  776POPS   C1A 8765   3.879  16.711   7.213 -0.0289  0.2190  0.0481
  776POPS   D2A 8766   3.933  16.514   7.659 -0.1052  0.5586  0.2843
  776POPS   C3A 8767   4.088  16.749   7.938  0.0297 -0.2273  0.0521
  776POPS   C4A 8768   4.055  16.685   8.304  0.0142 -0.0056 -0.3146
  776POPS   C1B 8769   4.326  16.997   7.353 -0.0750  0.2862 -0.1196
  776POPS   C2B 8770   4.144  17.145   7.676  0.2342 -0.4013 -0.2561
  776POPS   C3B 8771   4.256  17.270   8.111 -0.0920  0.1038 -0.1161
  776POPS   C4B 8772   4.326  17.510   8.484 -0.1534 -0.0494  0.0606
  777POPS   CNO 8773  11.117  15.466   6.288 -0.2566  0.1684 -0.0057
  777POPS   PO4 8774  11.230  15.868   6.371  0.1304 -0.1002 -0.1152
  777POPS   GL1 8775  11.205  16.075   6.789  0.2792  0.0531  0.3651
  777POPS   GL2 8776  11.021  16.364   6.865  0.3860 -0.1458  0.1063
  777POPS   C1A 8777  11.269  16.142   7.222  0.0123 -0.2493 -0.0327
  777POPS   D2A 8778  11.189  16.159   7.575 -0.2583 -0.0759  0.0438
  777POPS   C3A 8779  11.255  16.029   8.040 -0.1415  0.3724 -0.1715
  777POPS   C4A 8780  11.293  15.646   8.188 -0.2066  0.0866  0.2163
  777POPS   C1B 8781  10.978  16.586   7.294  0.0014 -0.1677  0.1562
  777POPS   C2B 8782  10.739  16.845   7.576  0.2665 -0.2009 -0.0765
  777POPS   C3B 8783  10.301  16.959   7.701  0.0826 -0.3713  0.0954
  777POPS   C4B 8784   9.962  16.935   7.935  0.4651  0.2636  0.0109
  778POPS   CNO 8785   4.261  16.094   6.473  0.0289  0.1801  0.0291
  778POPS   PO4 8786   4.177  15.614   6.298  0.2249 -0.1332 -0.0502
  778POPS   GL1 8787   4.487  15.661   6.699 -0.0278  0.1770  0.2390
  778POPS   GL2 8788   4.514  15.890   6.997 -0.0424  0.0186  0.3050
  778POPS   C1A 8789   4.300  15.397   7.027  0.3172  0.1426 -0.1456
  778POPS   D2A 8790   4.208  15.313   7.403  0.2133 -0.2559  0.0562
  778POPS   C3A 8791   4.016  15.443   7.672  0.1283  0.1837  0.2450
  778POPS   C4A 8792   3.983  15.663   8.017 -0.0630  0.2594  0.0555
  778POPS   C1B 8793   4.529  15.826   7.401 -0.3067  0.0605 -0.1173
  778POPS   C2B 8794   4.453  15.756   7.836 -0.0466  0.1608  0.1633
  778POPS   C3B 8795   4.398  15.506   8.206  0.0784  0.0930  0.0175
  778POPS   C4B 8796   3.966  15.247   8.301 -0.2124  0.1326 -0.0642
  779POPS   CNO 8797   1.664   1.855   6.041  0.3111 -0.2156 -0.3717
  779POPS   PO4 8798   1.884   2.352   6.067 -0.0716 -0.0596  0.1836
  779POPS   GL1 8799   1.896   2.502   6.414  0.2706  0.0214  0.1247
  779POPS   GL2 8800   2.187   2.679   6.552 -0.0828  0.0494  0.0738
  779POPS   C1A 8801   1.732   2.706   6.787 -0.0378  0.2488 -0.5996
  779POPS   D2A 8802   1.727   2.626   7.252  0.1208 -0.0844  0.0144
  779POPS   C3A 8803   1.723   2.891   7.606 -0.1721  0.0336 -0.0435
  779POPS   C4A 8804   1.395   2.925   7.920  0.0319  0.1365 -0.0040
  779POPS   C1B 8805   2.087   2.356   6.982 -0.4890  0.2061 -0.0999
  779POPS   C2B 8806   2.094   2.083   7.314  0.2023  0.1227 -0.2323
  779POPS   C3B 8807   2.091   2.046   7.753 -0.1803  0.1511  0.3719
  779POPS   C4B 8808   2.344   1.970   8.170 -0.0168 -0.4062 -0.1372
  780POPS   CNO 8809  12.513  15.191   6.468  0.0360 -0.0493  0.0887
  780POPS   PO4 8810  12.687  15.480   6.767  0.0229  0.1370  0.1291
  780POPS   GL1 8811  12.579  15.764   7.085 -0.0153  0.0640 -0.2201
  780POPS   GL2 8812  12.181  15.682   7.171 -0.0575  0.0791  0.3452
  780POPS   C1A 8813  12.550  15.879   7.441 -0.5379 -0.1244  0.0905
  780POPS   D2A 8814  12.724  15.985   7.810 -0.0771 -0.2147 -0.3004
  780POPS   C3A 8815  12.585  15.778   8.286  0.0673  0.1153 -0.3074
  780POPS   C4A 8816  12.513  15.791   8.672  0.0306 -0.2109 -0.1979
  780POPS   C1B 8817  12.212  15.539   7.535 -0.1855  0.0505  0.0502
  780POPS   C2B 8818  12.226  15.851   7.928 -0.2032  0.0021  0.0560
  780POPS   C3B 8819  12.196  16.110   8.339  0.1549 -0.1215 -0.1731
  780POPS   C4B 8820  12.315  16.280   8.767  0.1477  0.2711  0.2103
  781POPS   CNO 8821   2.200   6.207   5.971 -0.0238 -0.0737  0.1426
  781POPS   PO4 8822   1.856   6.407   6.068  0.1011  0.2027 -0.0472
  781POPS   GL1 8823   1.987   6.465   6.433 -0.0776 -0.1843  0.0014
  781POPS   GL2 8824   2.011   6.168   6.683  0.1623  0.0683 -0.0166
  781POPS   C1A 8825   2.024   6.633   6.854 -0.0857  0.0764  0.2205
  781POPS   D2A 8826   1.852   6.843   7.242  0.3454  0.2344 -0.5062
  781POPS   C3A 8827   1.979   6.846   7.568 -0.0469 -0.1365 -0.1138
  781POPS   C4A 8828   2.160   7.105   7.816 -0.0369 -0.1045  0.0637
  781POPS   C1B 8829   2.215   6.127   7.021  0.3895 -0.0688  0.3269
  781POPS   C2B 8830   2.104   5.928   7.498 -0.0307 -0.0033 -0.0819
  781POPS   C3B 8831   2.313   5.559   7.712  0.0792  0.2703 -0.0812
  781POPS   C4B 8832   2.296   5.140   7.859  0.2193  0.0048  0.2180
  782POPS   CNO 8833  13.892  14.140   6.240 -0.1867  0.0707  0.1974
  782POPS   PO4 8834  13.871  13.876   6.697  0.2191  0.1375 -0.0350
  782POPS   GL1 8835  13.966  13.718   7.100 -0.1674 -0.1862  0.0399
  782POPS   GL2 8836  13.761  13.750   7.260 -0.1582 -0.0876 -0.0939
  782POPS   C1A 8837  14.200  13.799   7.450 -0.2365 -0.0240  0.0999
  782POPS   D2A 8838  14.199  13.779   7.899 -0.4179 -0.0801  0.3125
  782POPS   C3A 8839  14.512  14.040   8.174  0.1904  0.2195  0.3548
  782POPS   C4A 8840  14.885  14.342   8.156 -0.2514 -0.4004  0.1129
  782POPS   C1B 8841  13.692  13.797   7.746 -0.1199 -0.2000 -0.1046
  782POPS   C2B 8842  13.703  13.711   8.129  0.0709 -0.0855  0.3220
  782POPS   C3B 8843  13.547  13.491   8.396  0.0339  0.2391  0.0120
  782POPS   C4B 8844  13.237  13.217   8.477 -0.1778 -0.0867  0.0974
  783POPS   CNO 8845  11.243   9.186   5.642 -0.1138  0.0858 -0.0674
  783POPS   PO4 8846  11.413   8.751   5.555  0.5866  0.1910 -0.2008
  783POPS   GL1 8847  11.550   8.801   5.953  0.0324 -0.2126  0.1677
  783POPS   GL2 8848  11.360   8.513   6.192 -0.1221  0.1084  0.4381
  783POPS   C1A 8849  11.745   8.862   6.319 -0.0995  0.0659  0.1275
  783POPS   D2A 8850  11.831   8.913   6.784 -0.0409 -0.0938 -0.3354
  783POPS   C3A 8851  11.692   8.940   7.198  0.2185  0.0318 -0.0354
  783POPS   C4A 8852  11.721   9.081   7.583  0.3007 -0.2343  0.1743
  783POPS   C1B 8853  11.333   8.746   6.540 -0.2110  0.2107  0.2798
  783POPS   C2B 8854  11.359   8.891   6.814  0.0642  0.1972 -0.3366
  783POPS   C3B 8855  11.217   9.096   7.130 -0.0847  0.0230 -0.2678
  783POPS   C4B 8856  10.995   9.332   7.487 -0.2485 -0.0721  0.2750
  784POPS   CNO 8857  13.193  14.950   7.024 -0.1824 -0.1887 -0.0375
  784POPS   PO4 8858  12.787  14.805   6.956 -0.2516 -0.0460  0.1508
  784POPS   GL1 8859  12.608  14.888   7.299 -0.2211 -0.0096 -0.2491
  784POPS   GL2 8860  12.475  15.149   7.176 -0.1843  0.2566  0.2917
  784POPS   C1A 8861  12.680  14.727   7.689 -0.1006  0.2090  0.0529
  784POPS   D2A 8862  12.590  14.807   8.070 -0.1366 -0.1287 -0.2363
  784POPS   C3A 8863  12.692  15.037   8.319  0.0255 -0.0171 -0.5202
  784POPS   C4A 8864  12.834  15.392   8.413  0.0226  0.3206 -0.1119
  784POPS   C1B 8865  12.293  15.009   7.649 -0.0693 -0.1337  0.2400
  784POPS   C2B 8866  12.054  15.129   7.953 -0.1924 -0.1515  0.2109
  784POPS   C3B 8867  12.128  14.989   8.335 -0.6031  0.0469 -0.1487
  784POPS   C4B 8868  12.242  14.904   8.622  0.2399 -0.0710 -0.0004
  785POPS   CNO 8869   4.557  15.939   6.118  0.1240  0.1083 -0.0664
  785POPS   PO4 8870   4.726  16.032   6.491  0.0074  0.2301  0.1347
  785POPS   GL1 8871   4.963  15.705   6.761  0.0974  0.0999 -0.0640
  785POPS   GL2 8872   5.266  15.670   6.698  0.1768  0.0296  0.0940
  785POPS   C1A 8873   4.996  15.827   7.210  0.0752  0.0142 -0.2690
  785POPS   D2A 8874   5.107  15.797   7.670 -0.1247  0.0386  0.1195
  785POPS   C3A 8875   4.889  15.610   8.011  0.3377  0.1364  0.1506
  785POPS   C4A 8876   4.895  15.665   8.441 -0.2884 -0.0316  0.1507
  785POPS   C1B 8877   5.355  15.457   7.052 -0.1360  0.0066  0.2861
  785POPS   C2B 8878   5.306  15.448   7.389 -0.0219  0.0562 -0.2222
  785POPS   C3B 8879   5.299  15.324   7.765 -0.1322 -0.0507  0.2444
  785POPS   C4B 8880   5.282  15.385   8.128 -0.0142 -0.2846 -0.2320
  786POPS   CNO 8881   8.413   2.259   6.294  0.0529  0.1503 -0.1628
  786POPS   PO4 8882   8.820   2.147   6.453 -0.1445 -0.3357 -0.1483
  786POPS   GL1 8883   8.752   2.305   6.859  0.0494  0.5146 -0.0059
  786POPS   GL2 8884   8.965   2.449   7.136 -0.1004 -0.0150 -0.1089
  786POPS   C1A 8885   8.495   2.148   7.215 -0.1147  0.3666  0.1279
  786POPS   D2A 8886   8.424   2.166   7.698 -0.0673  0.0595 -0.4583
  786POPS   C3A 8887   8.533   2.344   8.029  0.4810 -0.0749  0.0168
  786POPS   C4A 8888   8.728   2.540   8.351  0.0114  0.3324  0.0290
  786POPS   C1B 8889   9.009   2.722   7.433 -0.0063 -0.1656 -0.0401
  786POPS   C2B 8890   8.921   2.643   7.879 -0.1313 -0.2001 -0.0680
  786POPS   C3B 8891   9.137   2.726   8.285 -0.2621 -0.1044 -0.1272
  786POPS   C4B 8892   9.580   2.723   8.354  0.1757  0.3638 -0.1349
  787POPS   CNO 8893   1.403  14.899   6.807  0.2160 -0.2337  0.1729
  787POPS   PO4 8894   1.188  15.192   6.679  0.2527  0.2181  0.0419
  787POPS   GL1 8895   0.993  15.089   7.062 -0.1331  0.0544 -0.0177
  787POPS   GL2 8896   0.794  14.765   7.131 -0.1660 -0.1209 -0.0805
  787POPS   C1A 8897   0.996  15.295   7.412  0.0148 -0.2962  0.1121
  787POPS   D2A 8898   1.059  15.674   7.580  0.0311  0.1269  0.1502
  787POPS   C3A 8899   1.188  15.739   7.979 -0.0670 -0.2870  0.3706
  787POPS   C4A 8900   1.211  15.589   8.352 -0.0551  0.1507  0.0440
  787POPS   C1B 8901   0.983  14.769   7.549 -0.2204  0.1313 -0.0655
  787POPS   C2B 8902   0.859  14.780   7.935  0.2039 -0.1903 -0.0568
  787POPS   C3B 8903   0.869  14.585   8.336  0.0159 -0.0356 -0.0818
  787POPS   C4B 8904   0.685  14.229   8.656 -0.2889  0.1392  0.1998
  788POPS   CNO 8905  12.706   3.809   5.957 -0.1438  0.0108  0.0800
  788POPS   PO4 8906  12.796   4.116   6.192 -0.0864 -0.1687  0.1845
  788POPS   GL1 8907  13.102   4.180   6.427 -0.1254 -0.2147  0.1320
  788POPS   GL2 8908  13.290   4.385   6.404  0.1560 -0.1681  0.3231
  788POPS   C1A 8909  13.214   3.877   6.733  0.1806 -0.1001 -0.3131
  788POPS   D2A 8910  13.538   3.522   7.008  0.0128 -0.0901 -0.2095
  788POPS   C3A 8911  13.522   3.548   7.391 -0.0842 -0.4335 -0.1175
  788POPS   C4A 8912  13.729   3.686   7.754  0.3983 -0.1906 -0.1572
  788POPS   C1B 8913  13.266   4.325   6.874 -0.0623 -0.0809 -0.1809
  788POPS   C2B 8914  13.311   4.492   7.287  0.3326 -0.0982 -0.1153
  788POPS   C3B 8915  13.050   4.517   7.704 -0.1889  0.2814 -0.1601
  788POPS   C4B 8916  13.079   4.643   8.059 -0.1476 -0.0139  0.4805
  789POPS   CNO 8917   5.495   7.434   5.928  0.2681 -0.2175  0.0449
  789POPS   PO4 8918   5.628   7.092   6.094 -0.2547 -0.4657  0.0194
  789POPS   GL1 8919   5.562   7.166   6.439  0.0462  0.0780  0.1892
  789POPS   GL2 8920   5.734   7.507   6.393 -0.0622  0.0939 -0.2588
  789POPS   C1A 8921   5.276   7.228   6.819 -0.3035 -0.1560  0.0452
  789POPS   D2A 8922   4.904   7.205   7.050 -0.1030  0.2132 -0.0100
  789POPS   C3A 8923   4.549   6.982   6.945  0.2042 -0.2127 -0.0979
  789POPS   C4A 8924   4.464   6.701   6.741  0.0534 -0.1040 -0.2178
  789POPS   C1B 8925   5.772   7.445   6.890  0.4158  0.0252 -0.3450
  789POPS   C2B 8926   5.740   7.148   7.167  0.0390 -0.0754  0.1640
  789POPS   C3B 8927   5.601   7.050   7.612  0.0331  0.1494 -0.0156
  789POPS   C4B 8928   5.422   7.169   8.031  0.0235  0.1132 -0.0278
  790POPS   CNO 8929   8.392   9.963   5.860 -0.0860 -0.0635 -0.0534
  790POPS   PO4 8930   8.253  10.210   6.186  0.0205 -0.1133 -0.0345
  790POPS   GL1 8931   7.925  10.059   6.274  0.0276  0.2991 -0.2107
  790POPS   GL2 8932   7.586  10.176   6.277  0.2298  0.1849 -0.2750
  790POPS   C1A 8933   7.802   9.764   6.682  0.1612 -0.1331 -0.0001
  790POPS   D2A 8934   7.987   9.802   7.148 -0.0860  0.0766 -0.0979
  790POPS   C3A 8935   7.872   9.804   7.619  0.0102 -0.1750 -0.1693
  790POPS   C4A 8936   7.743   9.890   7.975 -0.0311  0.6528 -0.1444
  790POPS   C1B 8937   7.664  10.294   6.676  0.3598 -0.3881 -0.1662
  790POPS   C2B 8938   7.944  10.193   6.915 -0.2347 -0.1586 -0.2608
  790POPS   C3B 8939   8.198  10.541   7.130 -0.1162 -0.0416 -0.0076
  790POPS   C4B 8940   8.253  10.734   7.511  0.5190 -0.2002  0.2062
  791POPS   CNO 8941   0.056  13.999   6.467 -0.0305  0.2248  0.3258
  791POPS   PO4 8942   0.402  14.176   6.483  0.1372  0.2566 -0.2237
  791POPS   GL1 8943   0.390  14.325   6.932 -0.0706 -0.3969 -0.0476
  791POPS   GL2 8944   0.731  14.290   7.025 -0.1600 -0.0249  0.0690
  791POPS   C1A 8945   0.357  14.537   7.311 -0.0209  0.3009  0.1522
  791POPS   D2A 8946   0.427  14.642   7.709  0.1714 -0.1192 -0.0586
  791POPS   C3A 8947   0.387  14.451   8.185 -0.1654 -0.0380 -0.0227
  791POPS   C4A 8948   0.199  14.485   8.560  0.2626  0.1958 -0.2526
  791POPS   C1B 8949   0.763  14.248   7.568 -0.2817 -0.0011  0.1348
  791POPS   C2B 8950   0.749  14.162   7.981  0.1396 -0.0730 -0.0560
  791POPS   C3B 8951   0.859  13.950   8.311  0.1864  0.1750 -0.2130
  791POPS   C4B 8952   1.107  13.901   8.763 -0.0830 -0.1487 -0.0892
  792POPS   CNO 8953  11.763   2.935   6.109 -0.1763  0.1586  0.2293
  792POPS   PO4 8954  12.236   2.792   6.140  0.1097 -0.2968 -0.4689
  792POPS   GL1 8955  12.397   2.967   6.541  0.0459  0.1951  0.2496
  792POPS   GL2 8956  12.550   2.751   6.700 -0.3786  0.4557  0.2428
  792POPS   C1A 8957  12.496   3.303   6.675  0.1889 -0.0646  0.3305
  792POPS   D2A 8958  12.494   3.639   6.957  0.1370 -0.1589 -0.0529
  792POPS   C3A 8959  12.598   3.634   7.354 -0.2419  0.4305 -0.1133
  792POPS   C4A 8960  12.971   3.469   7.592 -0.1783  0.1240  0.0875
  792POPS   C1B 8961  12.671   3.006   7.030  0.2784  0.0637  0.0240
  792POPS   C2B 8962  12.841   3.016   7.474  0.5015 -0.1045 -0.1932
  792POPS   C3B 8963  13.148   2.973   7.678 -0.3087  0.0797  0.0447
  792POPS   C4B 8964  13.512   2.833   7.568  0.1004 -0.2580  0.1003
  793POPS   CNO 8965   6.333   8.317   5.647 -0.1790  0.1605 -0.0805
  793POPS   PO4 8966   6.250   8.534   6.116 -0.1234  0.1496 -0.0375
  793POPS   GL1 8967   6.145   8.448   6.540 -0.1470 -0.1087 -0.3403
  793POPS   GL2 8968   5.957   8.162   6.588  0.2011  0.0141 -0.2210
  793POPS   C1A 8969   5.843   8.608   6.720 -0.0281 -0.3475  0.0144
  793POPS   D2A 8970   5.813   8.908   7.053 -0.3566 -0.2509 -0.1517
  793POPS   C3A 8971   5.743   8.771   7.482  0.1985 -0.1522  0.1928
  793POPS   C4A 8972   5.468   8.899   7.855  0.2632 -0.0692  0.2103
  793POPS   C1B 8973   6.002   7.903   6.914  0.2368 -0.2459  0.0884
  793POPS   C2B 8974   5.718   7.793   7.230  0.0313 -0.2332  0.0011
  793POPS   C3B 8975   5.400   7.524   7.235  0.1684  0.1958  0.0295
  793POPS   C4B 8976   5.200   7.404   7.513 -0.2497  0.3254 -0.0979
  794POPS   CNO 8977   0.626  15.111   6.625  0.0443  0.2101  0.0504
  794POPS   PO4 8978   0.339  15.428   6.673  0.0093  0.0329  0.1077
  794POPS   GL1 8979   0.210  15.447   7.098 -0.3409  0.1681  0.1461
  794POPS   GL2 8980   0.591  15.334   7.176  0.3067 -0.3485 -0.2499
  794POPS   C1A 8981   0.004  15.332   7.458 -0.0967  0.1114 -0.0967
  794POPS   D2A 8982   0.263  15.614   7.761 -0.2274  0.1302  0.1975
  794POPS   C3A 8983   0.758  15.478   7.908 -0.1399 -0.0097  0.0345
  794POPS   C4A 8984   1.068  15.222   7.993 -0.0299  0.0481 -0.1897
  794POPS   C1B 8985   0.573  15.087   7.580  0.0418 -0.1360 -0.0389
  794POPS   C2B 8986   0.432  15.096   7.931 -0.0461 -0.0256 -0.0161
  794POPS   C3B 8987   0.462  14.921   8.361 -0.1597  0.1266  0.1968
  794POPS   C4B 8988   0.626  14.830   8.676 -0.3614  0.1880  0.2152
  795POPS   CNO 8989   4.687   0.221   6.319  0.4230 -0.0072 -0.0584
  795POPS   PO4 8990   4.370  -0.079   6.316 -0.0566 -0.0496  0.1667
  795POPS   GL1 8991   4.238   0.304   6.711  0.1400 -0.1503  0.1629
  795POPS   GL2 8992   3.975   0.275   6.836 -0.1305 -0.0178 -0.1395
  795POPS   C1A 8993   4.385   0.210   7.107 -0.3781  0.2593 -0.1749
  795POPS   D2A 8994   4.122   0.088   7.518 -0.5453 -0.0268 -0.1106
  795POPS   C3A 8995   4.156   0.224   7.950  0.0755 -0.0492  0.3038
  795POPS   C4A 8996   4.030   0.368   8.389 -0.0451 -0.2177  0.1830
  795POPS   C1B 8997   3.757   0.487   7.103 -0.3940 -0.0943 -0.2459
  795POPS   C2B 8998   3.690   0.470   7.595 -0.0322 -0.0536 -0.1563
  795POPS   C3B 8999   3.587   0.470   8.043  0.1942 -0.0298  0.1273
  795POPS   C4B 9000   3.453   0.353   8.438  0.3240 -0.3362 -0.0071
  796POPS   CNO 9001   5.264  12.031   5.762  0.2649 -0.0664 -0.2035
  796POPS   PO4 9002   5.476  11.787   6.015 -0.1942 -0.0802 -0.0720
  796POPS   GL1 9003   5.351  11.776   6.397  0.2947  0.2036 -0.1729
  796POPS   GL2 9004   5.578  11.558   6.556 -0.3041 -0.1475 -0.2776
  796POPS   C1A 9005   5.243  11.936   6.803  0.1721 -0.2044  0.0222
  796POPS   D2A 9006   5.210  12.008   7.234 -0.0921 -0.2698 -0.0725
  796POPS   C3A 9007   5.364  11.825   7.572 -0.2874 -0.2462  0.0062
  796POPS   C4A 9008   5.732  11.635   7.882 -0.0303 -0.1932 -0.0702
  796POPS   C1B 9009   5.299  11.454   6.871  0.0873 -0.3400  0.0835
  796POPS   C2B 9010   5.263  11.453   7.269 -0.0310 -0.0454 -0.0225
  796POPS   C3B 9011   5.449  11.294   7.671 -0.1732 -0.3633 -0.0003
  796POPS   C4B 9012   5.608  11.182   8.167  0.0846  0.0806  0.1132
  797POPS   CNO 9013   7.440   5.238   5.690  0.2882  0.1232 -0.0913
  797POPS   PO4 9014   7.694   5.547   5.943 -0.3860 -0.2506  0.0361
  797POPS   GL1 9015   7.657   5.533   6.367  0.2113 -0.2923 -0.1415
  797POPS   GL2 9016   7.971   5.536   6.449  0.2810  0.3104 -0.4077
  797POPS   C1A 9017   7.611   5.701   6.809  0.1411  0.0802 -0.2329
  797POPS   D2A 9018   7.881   5.543   7.198 -0.0300 -0.5787 -0.0198
  797POPS   C3A 9019   7.721   5.269   7.537 -0.0717  0.1250 -0.0980
  797POPS   C4A 9020   7.782   4.807   7.801 -0.0190  0.1134  0.0528
  797POPS   C1B 9021   7.747   5.210   6.699  0.1676 -0.0732 -0.3700
  797POPS   C2B 9022   7.566   5.094   7.106 -0.0693  0.0160 -0.0295
  797POPS   C3B 9023   7.317   4.925   7.520 -0.2720  0.4116 -0.2954
  797POPS   C4B 9024   7.056   4.618   7.674  0.0176 -0.1017  0.0178
  798POPS   CNO 9025   6.774  13.744   6.280 -0.0051  0.4223  0.0212
  798POPS   PO4 9026   7.212  13.640   6.284  0.1678  0.1689  0.2918
  798POPS   GL1 9027   7.201  13.937   6.571 -0.0676  0.0762  0.1337
  798POPS   GL2 9028   6.868  13.937   6.780 -0.1248 -0.1764  0.3461
  798POPS   C1A 9029   7.317  13.893   7.029  0.2883 -0.2382  0.0161
  798POPS   D2A 9030   7.209  13.823   7.435 -0.0844  0.1275 -0.0284
  798POPS   C3A 9031   7.315  13.571   7.781 -0.1948 -0.3232 -0.3926
  798POPS   C4A 9032   7.685  13.560   8.123 -0.1723 -0.1195  0.0076
  798POPS   C1B 9033   6.813  13.871   7.210 -0.0854 -0.3751 -0.2231
  798POPS   C2B 9034   6.719  13.847   7.689  0.2009 -0.2454  0.1758
  798POPS   C3B 9035   6.932  13.902   7.928  0.0582  0.0662  0.1096
  798POPS   C4B 9036   7.353  14.126   7.914 -0.1427  0.0584  0.2656
  799POPS   CNO 9037   1.952  11.747   6.172 -0.0345  0.0181 -0.0490
  799POPS   PO4 9038   2.107  11.735   6.532 -0.1085 -0.0955 -0.2289
  799POPS   GL1 9039   2.044  11.670   6.922  0.0655 -0.0310 -0.2144
  799POPS   GL2 9040   1.823  11.498   7.152  0.2996  0.1099  0.0499
  799POPS   C1A 9041   2.386  11.631   7.249 -0.3784 -0.1736 -0.0686
  799POPS   D2A 9042   2.723  11.323   7.440 -0.0465  0.0934 -0.3101
  799POPS   C3A 9043   2.588  11.103   7.847  0.1431 -0.1656 -0.1210
  799POPS   C4A 9044   2.589  10.835   8.275 -0.2074 -0.4372 -0.2605
  799POPS   C1B 9045   1.408  11.695   7.201  0.2192  0.0648 -0.0172
  799POPS   C2B 9046   1.203  11.682   7.661 -0.2170  0.0944  0.1170
  799POPS   C3B 9047   1.153  11.335   7.943  0.2367  0.0858  0.0950
  799POPS   C4B 9048   0.726  11.113   8.004 -0.0007  0.1301 -0.1143
  800POPS   CNO 9049  11.486  18.283   6.642 -0.0758 -0.1943 -0.2514
  800POPS   PO4 9050  11.339  18.074   6.927  0.1188 -0.0265  0.0954
  800POPS   GL1 9051  11.663  18.015   7.227 -0.1094  0.2103 -0.2897
  800POPS   GL2 9052  11.771  17.732   7.348 -0.0224  0.2427  0.3251
  800POPS   C1A 9053  11.734  18.130   7.611  0.0942  0.1489 -0.4895
  800POPS   D2A 9054  11.592  18.511   7.908 -0.1210 -0.0672 -0.2126
  800POPS   C3A 9055  11.646  18.536   8.364 -0.2093  0.2371 -0.0428
  800POPS   C4A 9056  11.941  18.575   8.661  0.2777 -0.0095  0.2645
  800POPS   C1B 9057  11.884  17.694   7.698 -0.2495 -0.0182 -0.3153
  800POPS   C2B 9058  11.998  17.737   8.109 -0.0236  0.1388 -0.2132
  800POPS   C3B 9059  11.826  18.039   8.528 -0.2274 -0.0572  0.2553
  800POPS   C4B 9060  11.588  18.221   8.924  0.0820 -0.1631  0.2236
  801POPS   CNO 9061   9.989  17.747   6.283  0.3571 -0.4348  0.1310
  801POPS   PO4 9062  10.268  17.681   6.478 -0.1142 -0.0024 -0.1881
  801POPS   GL1 9063  10.448  17.527   6.928 -0.1125 -0.0501 -0.0700
  801POPS   GL2 9064  10.221  17.322   6.916  0.0667 -0.0690  0.0743
  801POPS   C1A 9065  10.516  17.321   7.370 -0.1513 -0.3261 -0.0598
  801POPS   D2A 9066  10.452  17.455   7.835 -0.0229  0.0769  0.0629
  801POPS   C3A 9067  10.140  17.326   8.113 -0.0123  0.0942  0.0775
  801POPS   C4A 9068   9.841  17.237   8.381 -0.3008 -0.2381 -0.1126
  801POPS   C1B 9069   9.746  17.340   7.162  0.0561  0.1195  0.1029
  801POPS   C2B 9070   9.797  17.378   7.591  0.2587  0.0697 -0.2657
  801POPS   C3B 9071   9.562  17.397   7.960 -0.3849 -0.0816  0.1215
  801POPS   C4B 9072   9.413  17.057   8.228  0.1676 -0.1125 -0.0587
  802POPS   CNO 9073  11.984  17.227   6.335 -0.0665  0.1573  0.0584
  802POPS   PO4 9074  11.804  17.478   6.791 -0.1109  0.1725  0.2016
  802POPS   GL1 9075  11.515  17.283   7.118  0.3485 -0.1354  0.0534
  802POPS   GL2 9076  11.316  17.590   7.181 -0.3255 -0.2159 -0.3326
  802POPS   C1A 9077  11.504  17.116   7.592  0.1313  0.0690 -0.0054
  802POPS   D2A 9078  11.522  16.977   7.986  0.3335 -0.3539  0.0022
  802POPS   C3A 9079  11.305  17.203   8.344 -0.2708 -0.1759 -0.0204
  802POPS   C4A 9080  11.212  17.687   8.360 -0.1058  0.0777  0.4541
  802POPS   C1B 9081  11.370  17.577   7.641 -0.2450  0.1478 -0.1296
  802POPS   C2B 9082  11.556  17.479   7.970 -0.0146 -0.1529  0.0950
  802POPS   C3B 9083  11.682  17.539   8.480  0.1030 -0.0488  0.1588
  802POPS   C4B 9084  11.609  17.582   8.830  0.0016 -0.1496  0.6239
  803POPS   CNO 9085   7.369  10.712   5.853  0.1954 -0.3197 -0.0289
  803POPS   PO4 9086   7.369  10.944   6.181 -0.3319  0.0620  0.2725
  803POPS   GL1 9087   6.987  10.854   6.478 -0.1811 -0.3017  0.1628
  803POPS   GL2 9088   6.707  10.987   6.465  0.0071  0.0404  0.1173
  803POPS   C1A 9089   6.709  10.633   6.822  0.1999  0.5246  0.2549
  803POPS   D2A 9090   6.576  10.445   7.235  0.4189 -0.1808  0.0506
  803POPS   C3A 9091   6.434  10.633   7.502 -0.2415  0.0674 -0.1883
  803POPS   C4A 9092   6.090  10.617   7.749 -0.1711  0.1987 -0.3203
  803POPS   C1B 9093   6.816  11.165   6.844  0.0055 -0.2728  0.1090
  803POPS   C2B 9094   6.838  11.013   7.234  0.1486  0.1115  0.4880
  803POPS   C3B 9095   6.741  10.992   7.557  0.0117  0.0147  0.0009
  803POPS   C4B 9096   6.486  10.897   7.995  0.2633  0.2075 -0.2319
  804POPS   CNO 9097  13.223   0.575   6.201 -0.0433  0.1156  0.4122
  804POPS   PO4 9098  13.683   0.599   6.381 -0.3003  0.1032  0.0211
  804POPS   GL1 9099  13.491   0.666   6.796  0.1047  0.1504  0.3598
  804POPS   GL2 9100  13.342   0.363   6.717 -0.0723 -0.1430 -0.0733
  804POPS   C1A 9101  13.524   0.745   7.277 -0.0993  0.1600 -0.0705
  804POPS   D2A 9102  13.648   0.585   7.639 -0.0055 -0.2710 -0.0986
  804POPS   C3A 9103  13.799   0.268   7.659  0.1685  0.0745  0.1450
  804POPS   C4A 9104  13.890  -0.108   7.494 -0.0367  0.1683 -0.0607
  804POPS   C1B 9105  13.524  -0.023   6.800  0.0196  0.1003 -0.0285
  804POPS   C2B 9106  13.602  -0.319   7.082 -0.1663  0.0486 -0.1333
  804POPS   C3B 9107  13.600  -0.469   7.436 -0.2069  0.0105 -0.2304
  804POPS   C4B 9108  13.621  -0.406   7.888  0.0610  0.3849  0.0966
  805POPS   CNO 9109   9.071   7.347   6.126 -0.2793 -0.2163  0.2264
  805POPS   PO4 9110   9.560   7.298   6.259 -0.0227  0.1463 -0.1012
  805POPS   GL1 9111   9.292   7.279   6.561  0.1274 -0.2204 -0.0018
  805POPS   GL2 9112   8.968   7.541   6.568 -0.2468 -0.2639  0.0679
  805POPS   C1A 9113   9.147   7.181   6.910  0.1337  0.0348  0.0220
  805POPS   D2A 9114   9.139   7.287   7.266 -0.2952 -0.1845 -0.2283
  805POPS   C3A 9115   9.443   7.500   7.464 -0.1097  0.0839 -0.1864
  805POPS   C4A 9116   9.826   7.365   7.736  0.2681  0.0306  0.0715
  805POPS   C1B 9117   8.966   7.667   6.947  0.1399  0.2701  0.1566
  805POPS   C2B 9118   9.059   7.746   7.368  0.1713  0.1072 -0.2263
  805POPS   C3B 9119   8.893   7.729   7.780 -0.2905 -0.0404  0.3303
  805POPS   C4B 9120   9.141   7.997   8.090  0.1005 -0.2894 -0.1717
  806POPS   CNO 9121  14.838  10.660   5.923 -0.1776  0.0159 -0.1171
  806POPS   PO4 9122  15.163  10.481   5.625  0.0025  0.1956  0.1287
  806POPS   GL1 9123  15.241  10.400   6.118 -0.1857 -0.4422 -0.1801
  806POPS   GL2 9124  15.115  10.171   6.293  0.2875  0.2863 -0.2553
  806POPS   C1A 9125  15.114  10.776   6.370  0.1348 -0.0718  0.0911
  806POPS   D2A 9126  15.407  10.839   6.721 -0.0001 -0.0193 -0.1294
  806POPS   C3A 9127  15.419  10.578   7.134  0.0177 -0.2984  0.1435
  806POPS   C4A 9128  15.464  10.371   7.643  0.0489  0.2660  0.1698
  806POPS   C1B 9129  15.277  10.254   6.655  0.1763 -0.1670 -0.1352
  806POPS   C2B 9130  15.459  10.057   7.070 -0.1218  0.3677  0.0022
  806POPS   C3B 9131  15.521   9.883   7.448  0.0224  0.0121  0.0082
  806POPS   C4B 9132  15.221   9.628   7.738  0.0355 -0.3566 -0.1582
  807POPS   CNO 9133  10.359  15.915   6.074  0.1336  0.1490  0.2922
  807POPS   PO4 9134  10.188  15.985   6.490 -0.0186  0.1161  0.0653
  807POPS   GL1 9135  10.118  15.722   6.747 -0.2763 -0.0649  0.0383
  807POPS   GL2 9136  10.348  15.559   6.781  0.1414 -0.0156 -0.1596
  807POPS   C1A 9137  10.052  15.931   7.154  0.0746 -0.0985 -0.1241
  807POPS   D2A 9138  10.286  15.867   7.425  0.2202 -0.0204 -0.0641
  807POPS   C3A 9139  10.128  15.814   7.794 -0.2473 -0.1115 -0.0217
  807POPS   C4A 9140  10.164  15.973   8.134 -0.1546 -0.0625 -0.0328
  807POPS   C1B 9141  10.372  15.436   7.186 -0.3201 -0.2393 -0.3357
  807POPS   C2B 9142  10.438  15.432   7.638  0.0865  0.0533  0.0608
  807POPS   C3B 9143  10.404  15.480   8.053  0.2091 -0.2268  0.1533
  807POPS   C4B 9144  10.456  15.400   8.490  0.1925 -0.1900  0.1495
  808POPS   CNO 9145  15.123   0.166   5.756 -0.2900 -0.1021 -0.1070
  808POPS   PO4 9146  15.181  -0.236   5.903 -0.1416 -0.0162 -0.2397
  808POPS   GL1 9147  15.087  -0.003   6.219  0.1112 -0.0438  0.3190
  808POPS   GL2 9148  15.230   0.278   6.314  0.1272 -0.1404  0.0814
  808POPS   C1A 9149  14.774  -0.042   6.450 -0.3140  0.1325  0.1654
  808POPS   D2A 9150  14.544  -0.115   6.789  0.0195 -0.0924  0.0524
  808POPS   C3A 9151  14.734  -0.029   7.217 -0.0183  0.0826  0.3619
  808POPS   C4A 9152  14.762  -0.014   7.691  0.1797  0.3781  0.3096
  808POPS   C1B 9153  15.429   0.113   6.634 -0.2536 -0.0090  0.1195
  808POPS   C2B 9154  15.702   0.132   6.826  0.1361 -0.0604  0.0326
  808POPS   C3B 9155  16.123   0.379   6.795  0.1982  0.0145  0.2320
  808POPS   C4B 9156  16.090   0.862   6.842 -0.1956 -0.0166  0.3349
  809YOPS   CNO 9157   9.501  11.261   6.478 -0.0856  0.3065 -0.1167
  809YOPS   PO4 9158   9.658  10.855   6.253  0.1747 -0.1822 -0.0467
  809YOPS   GL1 9159   9.494  10.688   6.549 -0.0073  0.0727 -0.0167
  809YOPS   GL2 9160   9.764  10.626   6.685  0.5372 -0.0632  0.0742
  809YOPS   C1A 9161   9.197  10.809   6.796  0.0898 -0.2144  0.2049
  809YOPS   D2A 9162   9.086  10.760   7.304  0.2020  0.2109  0.0029
  809YOPS   C3A 9163   9.018  10.876   7.694 -0.1656 -0.0999 -0.0944
  809YOPS   C4A 9164   8.663  10.691   7.921 -0.1416 -0.0181  0.2029
  809YOPS   C1B 9165   9.490  10.537   7.099  0.1928  0.0385 -0.1189
  809YOPS   C2B 9166   9.478  10.289   7.474 -0.0591 -0.1670  0.2039
  809YOPS   D3B 9167   9.793  10.301   7.765 -0.2723  0.0869 -0.2223
  809YOPS   C4B 9168   9.656  10.325   8.114  0.0989  0.0176 -0.0745
  810YOPS   CNO 9169  13.671   8.874   5.770  0.0364  0.2088 -0.3190
  810YOPS   PO4 9170  13.747   8.423   5.802 -0.0611 -0.0109 -0.4425
  810YOPS   GL1 9171  13.808   8.371   6.261  0.0385  0.2209 -0.0116
  810YOPS   GL2 9172  13.581   8.073   6.366 -0.5424  0.1834  0.2054
  810YOPS   C1A 9173  13.919   8.442   6.664  0.1475 -0.2208 -0.0270
  810YOPS   D2A 9174  13.854   8.394   7.111  0.0033 -0.0321  0.0734
  810YOPS   C3A 9175  13.959   8.729   7.456  0.0714  0.1093  0.1528
  810YOPS   C4A 9176  13.754   8.739   7.923  0.0235  0.0856  0.2461
  810YOPS   C1B 9177  13.490   8.108   6.774  0.0965  0.0278  0.0041
  810YOPS   C2B 9178  13.305   8.086   7.146  0.0785 -0.1369  0.2727
  810YOPS   D3B 9179  13.196   7.899   7.392  0.1075  0.0463 -0.0429
  810YOPS   C4B 9180  13.041   8.114   7.825  0.1031  0.2873 -0.3026
  811YOPS   CNO 9181   7.999   8.442   5.867  0.1062  0.0740 -0.2488
  811YOPS   PO4 9182   8.025   8.396   6.230 -0.1040 -0.2078 -0.0831
  811YOPS   GL1 9183   7.942   8.735   6.470  0.0398  0.0042 -0.0980
  811YOPS   GL2 9184   7.686   8.767   6.643 -0.3471 -0.0087 -0.1122
  811YOPS   C1A 9185   7.952   9.165   6.774  0.1266  0.0508  0.0271
  811YOPS   D2A 9186   7.946   9.305   7.164 -0.0274  0.1519 -0.1637
  811YOPS   C3A 9187   8.159   9.377   7.577  0.0287  0.1031  0.0080
  811YOPS   C4A 9188   8.603   9.330   7.670 -0.0408  0.3082 -0.0129
  811YOPS   C1B 9189   7.604   8.924   7.075  0.3648  0.0993 -0.0855
  811YOPS   C2B 9190   7.679   9.101   7.569 -0.3958 -0.0541  0.1529
  811YOPS   D3B 9191   7.792   9.149   7.915  0.1432  0.4092  0.3579
  811YOPS   C4B 9192   7.592   9.361   8.217 -0.0289  0.1337  0.0660
  812YOPS   CNO 9193  10.713  12.465   6.205  0.0412  0.3035 -0.0310
  812YOPS   PO4 9194  10.944  12.313   6.585  0.3039 -0.2161  0.3499
  812YOPS   GL1 9195  10.864  12.371   6.995  0.0660  0.0565 -0.5566
  812YOPS   GL2 9196  10.819  12.578   7.071  0.0308 -0.1144 -0.2207
  812YOPS   C1A 9197  11.051  12.392   7.491  0.2102  0.1784  0.2617
  812YOPS   D2A 9198  11.199  12.309   7.979  0.0040  0.0493  0.2095
  812YOPS   C3A 9199  11.326  12.593   8.300  0.0468 -0.0722  0.3048
  812YOPS   C4A 9200  11.290  12.902   8.668 -0.0566 -0.0296  0.2554
  812YOPS   C1B 9201  10.578  12.748   7.445 -0.1144 -0.4089 -0.0926
  812YOPS   C2B 9202  10.508  12.879   7.892  0.1138 -0.0919 -0.3466
  812YOPS   D3B 9203  10.170  12.737   8.275 -0.0485  0.0537 -0.4762
  812YOPS   C4B 9204   9.691  12.839   8.235  0.1341 -0.2715  0.3655
  813YOPS   CNO 9205  11.489   1.681   6.493 -0.0829  0.0416  0.0424
  813YOPS   PO4 9206  11.742   2.038   6.605 -0.0771 -0.2719 -0.0749
  813YOPS   GL1 9207  11.600   1.959   7.016 -0.1893 -0.0256 -0.1869
  813YOPS   GL2 9208  11.345   2.223   7.160 -0.0101  0.4365 -0.1423
  813YOPS   C1A 9209  11.449   1.814   7.467  0.0345  0.2617 -0.1210
  813YOPS   D2A 9210  11.475   2.026   7.817 -0.1133 -0.0170 -0.1671
  813YOPS   C3A 9211  11.350   1.924   8.193 -0.0902  0.1403  0.2645
  813YOPS   C4A 9212  11.392   1.487   8.434  0.2188  0.1368 -0.1581
  813YOPS   C1B 9213  11.356   2.417   7.556 -0.0613  0.1449  0.0093
  813YOPS   C2B 9214  11.465   2.529   7.999  0.0339  0.1474  0.1027
  813YOPS   D3B 9215  11.277   2.408   8.453  0.4101 -0.1975 -0.1520
  813YOPS   C4B 9216  11.242   1.990   8.667  0.0570 -0.2249  0.2499
  814YOPS   CNO 9217   4.079   1.697   5.763  0.2043 -0.0944 -0.0907
  814YOPS   PO4 9218   4.085   1.838   6.213  0.0151  0.3445 -0.0963
  814YOPS   GL1 9219   3.901   1.966   6.579 -0.2590 -0.2454 -0.1732
  814YOPS   GL2 9220   4.055   2.017   6.861  0.1443 -0.1823  0.3371
  814YOPS   C1A 9221   3.620   2.401   6.814 -0.3498  0.0043 -0.0082
  814YOPS   D2A 9222   3.512   2.580   7.310 -0.2774 -0.3008 -0.0374
  814YOPS   C3A 9223   3.518   2.792   7.631 -0.3017  0.0498 -0.1677
  814YOPS   C4A 9224   3.859   2.589   7.955  0.3010 -0.0139 -0.0835
  814YOPS   C1B 9225   3.975   2.219   7.178  0.0028 -0.1933  0.2089
  814YOPS   C2B 9226   3.946   2.305   7.493  0.1761 -0.1617  0.1498
  814YOPS   D3B 9227   4.206   2.242   7.904 -0.1095  0.0908 -0.2503
  814YOPS   C4B 9228   4.011   2.176   8.246  0.1071  0.1859  0.0576
  815YOPS   CNO 9229  11.765  14.499   6.897 -0.2601  0.2440  0.1392
  815YOPS   PO4 9230  12.179  14.337   6.641 -0.1864 -0.0054  0.1125
  815YOPS   GL1 9231  12.210  14.327   7.079  0.0674 -0.1898  0.1184
  815YOPS   GL2 9232  12.529  14.429   7.202 -0.2041 -0.1508  0.3501
  815YOPS   C1A 9233  11.947  14.129   7.376 -0.0816  0.0563  0.1840
  815YOPS   D2A 9234  11.821  14.131   7.812  0.0741  0.0028  0.0958
  815YOPS   C3A 9235  11.780  14.000   8.320 -0.1243 -0.0320 -0.0997
  815YOPS   C4A 9236  11.636  14.132   8.573  0.1441  0.2158  0.0361
  815YOPS   C1B 9237  12.830  14.301   7.531  0.1470  0.0450 -0.0981
  815YOPS   C2B 9238  13.014  14.427   7.959 -0.0076  0.1395 -0.1257
  815YOPS   D3B 9239  13.213  14.724   8.290 -0.0341  0.0122 -0.0463
  815YOPS   C4B 9240  13.587  14.791   8.589  0.2551 -0.2804  0.2871
  816YOPS   CNO 9241  12.751  10.701   5.537 -0.2342  0.0004 -0.0034
  816YOPS   PO4 9242  12.926  10.889   5.738 -0.1022  0.0658 -0.0086
  816YOPS   GL1 9243  12.903  10.994   6.135 -0.2670 -0.0841  0.0583
  816YOPS   GL2 9244  13.047  11.247   6.302 -0.0526  0.0960 -0.0847
  816YOPS   C1A 9245  12.689  11.133   6.599  0.2225 -0.0845  0.1590
  816YOPS   D2A 9246  12.655  11.171   6.967  0.2976 -0.0198 -0.2825
  816YOPS   C3A 9247  13.001  11.150   7.132 -0.0024  0.4366  0.1225
  816YOPS   C4A 9248  12.865  10.860   7.433 -0.1167 -0.1998 -0.0347
  816YOPS   C1B 9249  13.157  11.388   6.639  0.1902 -0.0389  0.2298
  816YOPS   C2B 9250  13.357  11.489   7.087  0.3735  0.0460 -0.1015
  816YOPS   D3B 9251  13.218  11.371   7.573 -0.3163  0.3758  0.1400
  816YOPS   C4B 9252  13.324  11.159   7.931 -0.2549  0.1387 -0.0674
  817YOPS   CNO 9253  17.875  16.390   6.697  0.2347 -0.0577  0.1483
  817YOPS   PO4 9254  17.923  15.956   6.662  0.4932  0.0508 -0.2531
  817YOPS   GL1 9255  17.908  15.941   7.047  0.1062  0.1247 -0.0335
  817YOPS   GL2 9256  17.716  16.222   7.202 -0.1875  0.0941  0.2575
  817YOPS   C1A 9257  18.141  16.017   7.460 -0.0308  0.2153 -0.1880
  817YOPS   D2A 9258  18.270  16.034   7.911  0.0593  0.0549  0.0275
  817YOPS   C3A 9259  18.421  16.132   8.317  0.1382  0.1398 -0.1982
  817YOPS   C4A 9260  18.654  15.804   8.589  0.1739  0.0014 -0.0091
  817YOPS   C1B 9261  17.481  16.404   7.376 -0.0349 -0.1639 -0.1695
  817YOPS   C2B 9262  17.400  16.298   7.871  0.0361  0.0358 -0.3358
  817YOPS   D3B 9263  17.461  16.092   8.208 -0.2773 -0.1596 -0.2510
  817YOPS   C4B 9264  17.893  15.899   8.296 -0.2311  0.2962  0.2691
  818YOPS   CNO 9265  10.583  12.871   6.441  0.2488 -0.0010 -0.0605
  818YOPS   PO4 9266  10.394  12.766   6.818 -0.1864 -0.0292  0.0495
  818YOPS   GL1 9267  10.203  12.638   7.200 -0.4586 -0.1193  0.0520
  818YOPS   GL2 9268  10.376  12.339   7.166  0.1825 -0.2136  0.1854
  818YOPS   C1A 9269  10.206  12.496   7.598  0.5306 -0.0970  0.1135
  818YOPS   D2A 9270  10.258  12.237   7.912 -0.1111  0.3074  0.0030
  818YOPS   C3A 9271  10.532  11.942   8.344  0.1228  0.0797  0.2333
  818YOPS   C4A 9272  10.455  11.469   8.277 -0.0649  0.3454 -0.0474
  818YOPS   C1B 9273  10.610  12.278   7.416  0.1361 -0.0402 -0.0797
  818YOPS   C2B 9274  10.754  12.426   7.863 -0.3487 -0.1486  0.0443
  818YOPS   D3B 9275  10.655  12.442   8.198 -0.1417 -0.1672 -0.0749
  818YOPS   C4B 9276  10.841  12.527   8.606 -0.1356 -0.3140  0.1700
  819YOPS   CNO 9277   0.726   5.689   5.891  0.2503 -0.2755 -0.0633
  819YOPS   PO4 9278   0.995   6.033   5.812 -0.2383  0.0913  0.0390
  819YOPS   GL1 9279   0.913   6.001   6.305 -0.0707  0.1294  0.1826
  819YOPS   GL2 9280   1.082   6.270   6.472  0.1495 -0.1883 -0.0879
  819YOPS   C1A 9281   0.801   5.923   6.689  0.1644  0.0168 -0.0634
  819YOPS   D2A 9282   0.848   5.490   6.875  0.1101 -0.1056 -0.1910
  819YOPS   C3A 9283   0.767   5.022   6.908  0.0360 -0.1080  0.4499
  819YOPS   C4A 9284   0.637   4.729   6.740 -0.2232 -0.2522 -0.0907
  819YOPS   C1B 9285   1.068   6.193   6.966  0.0053 -0.1051  0.2849
  819YOPS   C2B 9286   1.162   5.768   7.249  0.0702  0.0517 -0.2569
  819YOPS   D3B 9287   1.261   5.585   7.638 -0.0294 -0.1221  0.1806
  819YOPS   C4B 9288   1.355   5.723   7.980  0.0965  0.3850  0.2245
  820YOPS   CNO 9289   4.701  12.868   5.717 -0.1722  0.0133 -0.1038
  820YOPS   PO4 9290   4.823  12.727   6.082  0.0213 -0.3287  0.1848
  820YOPS   GL1 9291   4.958  12.591   6.487 -0.1375 -0.1171 -0.0898
  820YOPS   GL2 9292   4.852  12.319   6.723 -0.0491  0.3003 -0.1361
  820YOPS   C1A 9293   5.097  12.770   6.802  0.1820  0.0221  0.2185
  820YOPS   D2A 9294   5.025  12.734   7.222 -0.1820  0.0194 -0.1152
  820YOPS   C3A 9295   5.026  12.844   7.603 -0.3740  0.0351  0.0335
  820YOPS   C4A 9296   4.963  12.570   7.976  0.3849  0.1761  0.3366
  820YOPS   C1B 9297   4.772  12.278   7.138 -0.0794  0.2041  0.2058
  820YOPS   C2B 9298   4.913  12.286   7.547  0.1145 -0.0551 -0.2897
  820YOPS   D3B 9299   5.184  12.121   7.927  0.0859  0.0276  0.1712
  820YOPS   C4B 9300   5.601  12.110   7.908 -0.2085  0.2319 -0.0144
  821YOPS   CNO 9301   8.722  11.611   6.310 -0.1673 -0.4699  0.1184
  821YOPS   PO4 9302   9.140  11.581   6.321 -0.0487 -0.4385  0.2263
  821YOPS   GL1 9303   9.185  11.533   6.727 -0.0616  0.1600  0.0704
  821YOPS   GL2 9304   8.908  11.770   6.799 -0.2540 -0.2110 -0.2679
  821YOPS   C1A 9305   9.268  11.416   7.161 -0.1327  0.0686 -0.1107
  821YOPS   D2A 9306   9.272  11.397   7.681 -0.1019 -0.0618 -0.1048
  821YOPS   C3A 9307   9.636  11.608   7.840 -0.1628 -0.0785  0.0121
  821YOPS   C4A 9308   9.526  11.781   8.318  0.0375 -0.3953  0.2550
  821YOPS   C1B 9309   8.760  11.427   6.973  0.0809  0.0022  0.0119
  821YOPS   C2B 9310   8.633  11.035   7.152  0.0678 -0.1040 -0.2275
  821YOPS   D3B 9311   8.804  11.213   7.502  0.0372 -0.2183  0.0471
  821YOPS   C4B 9312   8.884  11.599   7.401 -0.1175 -0.2120 -0.0129
  822YOPS   CNO 9313  10.174   5.811   6.224  0.1854 -0.0995  0.0096
  822YOPS   PO4 9314  10.483   6.094   5.973 -0.0322  0.0955 -0.2285
  822YOPS   GL1 9315  10.619   6.073   6.397 -0.0052  0.0503 -0.3735
  822YOPS   GL2 9316  10.934   5.915   6.374  0.0354  0.0832  0.0926
  822YOPS   C1A 9317  10.673   6.271   6.868  0.1512 -0.0899  0.2135
  822YOPS   D2A 9318  10.331   6.410   7.145 -0.1638  0.1128 -0.0566
  822YOPS   C3A 9319  10.277   6.382   7.560 -0.0304  0.0502 -0.1106
  822YOPS   C4A 9320  10.375   5.949   7.646  0.0467  0.1493  0.1851
  822YOPS   C1B 9321  11.147   6.271   6.559  0.0014 -0.2063 -0.0198
  822YOPS   C2B 9322  11.281   6.414   6.959 -0.0511  0.1244 -0.1120
  822YOPS   D3B 9323  11.032   6.512   7.217  0.3522 -0.1121 -0.0078
  822YOPS   C4B 9324  11.098   6.493   7.664  0.1270  0.3879 -0.1022
  823YOPS   CNO 9325   5.736  17.072   5.872 -0.0405  0.0403 -0.1038
  823YOPS   PO4 9326   5.730  17.111   6.274  0.0832 -0.1278  0.0252
  823YOPS   GL1 9327   5.756  16.989   6.729 -0.2329 -0.2965 -0.3081
  823YOPS   GL2 9328   5.510  16.714   6.788 -0.3205 -0.0087  0.0882
  823YOPS   C1A 9329   5.780  17.142   7.076 -0.0845 -0.1438  0.1583
  823YOPS   D2A 9330   5.853  16.991   7.470  0.0554  0.2932 -0.1776
  823YOPS   C3A 9331   5.627  16.776   7.794 -0.0841 -0.0386  0.3006
  823YOPS   C4A 9332   5.839  16.874   8.249 -0.1340  0.1472  0.2104
  823YOPS   C1B 9333   5.458  16.713   7.161  0.0243  0.2010  0.1266
  823YOPS   C2B 9334   5.166  16.683   7.539 -0.1303  0.0996  0.0139
  823YOPS   D3B 9335   4.856  16.640   7.811 -0.1637  0.1855  0.3655
  823YOPS   C4B 9336   4.587  16.867   7.770 -0.1871 -0.0980  0.0070
  824YOPS   CNO 9337   4.510  13.111   6.086  0.1772  0.0906 -0.0204
  824YOPS   PO4 9338   4.446  12.915   6.464  0.3682  0.0353 -0.2450
  824YOPS   GL1 9339   4.394  13.191   6.769  0.2235 -0.2883 -0.3914
  824YOPS   GL2 9340   4.170  13.134   6.952  0.4982 -0.0881  0.2802
  824YOPS   C1A 9341   4.395  13.574   7.018 -0.0796  0.2727  0.0369
  824YOPS   D2A 9342   4.141  13.598   7.396 -0.1125 -0.2617 -0.1397
  824YOPS   C3A 9343   3.762  13.392   7.517 -0.0206 -0.1741 -0.3094
  824YOPS   C4A 9344   3.256  13.447   7.248  0.0173 -0.0397  0.1477
  824YOPS   C1B 9345   4.122  13.083   7.353  0.2549 -0.1291 -0.0807
  824YOPS   C2B 9346   4.010  13.061   7.727 -0.1587 -0.2156  0.3803
  824YOPS   D3B 9347   4.180  13.052   8.113  0.0755  0.0917  0.1860
  824YOPS   C4B 9348   3.977  13.023   8.496  0.0863  0.0661  0.2038
  825YOPS   CNO 9349   9.039   9.294   6.351 -0.0656 -0.1555  0.0257
  825YOPS   PO4 9350   9.293   9.623   6.292  0.0256 -0.1542 -0.0758
  825YOPS   GL1 9351   9.431   9.428   6.644 -0.0183 -0.0085  0.1317
  825YOPS   GL2 9352   9.718   9.581   6.647  0.0925  0.2077 -0.1279
  825YOPS   C1A 9353   9.479   9.228   7.008 -0.0593 -0.0883 -0.2703
  825YOPS   D2A 9354   9.712   9.142   7.308  0.0718  0.2384  0.0696
  825YOPS   C3A 9355   9.605   8.872   7.654 -0.0648  0.1545  0.2025
  825YOPS   C4A 9356   9.806   8.766   8.009  0.2093  0.2806 -0.0132
  825YOPS   C1B 9357   9.847   9.564   7.068  0.1234 -0.2163  0.0806
  825YOPS   C2B 9358  10.132   9.382   7.486 -0.0379  0.0927  0.0190
  825YOPS   D3B 9359  10.472   9.460   7.737 -0.0379  0.0501 -0.4098
  825YOPS   C4B 9360  10.549   9.795   8.048 -0.2504 -0.0097  0.0502
  826YOPS   CNO 9361   1.693   4.832   5.399  0.1841 -0.3124 -0.1144
  826YOPS   PO4 9362   2.007   4.699   5.657 -0.2082  0.0827  0.0596
  826YOPS   GL1 9363   2.026   4.735   6.082 -0.0061 -0.1115  0.2214
  826YOPS   GL2 9364   1.734   4.708   6.401  0.1477 -0.1191  0.1032
  826YOPS   C1A 9365   2.177   4.568   6.499 -0.0179  0.0403 -0.1962
  826YOPS   D2A 9366   2.154   4.638   6.760 -0.1297 -0.1140 -0.2479
  826YOPS   C3A 9367   2.154   4.791   7.255 -0.0683  0.2534 -0.0460
  826YOPS   C4A 9368   2.176   4.475   7.646  0.1213  0.0290  0.0228
  826YOPS   C1B 9369   1.689   4.727   6.821 -0.1004 -0.0752  0.1828
  826YOPS   C2B 9370   1.632   5.000   7.173 -0.2189 -0.0538 -0.0897
  826YOPS   D3B 9371   1.485   5.101   7.546 -0.2046  0.0317 -0.2553
  826YOPS   C4B 9372   1.188   5.023   7.696  0.0173  0.3252  0.2152
  827YOPS   CNO 9373  16.102   9.984   5.262  0.1814 -0.0082 -0.1827
  827YOPS   PO4 9374  15.905   9.985   5.690 -0.1879  0.1185 -0.2307
  827YOPS   GL1 9375  15.848   9.893   6.206 -0.0596  0.0925  0.0980
  827YOPS   GL2 9376  15.620  10.017   6.294  0.1150 -0.0924  0.1051
  827YOPS   C1A 9377  15.958   9.735   6.698 -0.0362  0.1617  0.1508
  827YOPS   D2A 9378  16.029   9.726   7.042  0.1681 -0.1698 -0.0268
  827YOPS   C3A 9379  16.059   9.623   7.446  0.0273  0.0812 -0.1203
  827YOPS   C4A 9380  15.718   9.426   7.607 -0.0870 -0.0224 -0.1558
  827YOPS   C1B 9381  15.498   9.756   6.661 -0.0691 -0.0346  0.5305
  827YOPS   C2B 9382  15.594   9.524   7.076 -0.0717 -0.1078 -0.2328
  827YOPS   D3B 9383  15.297   9.221   7.337 -0.1040 -0.1064 -0.2133
  827YOPS   C4B 9384  15.146   8.847   7.483  0.1755 -0.2529 -0.0710
  828YOPS   CNO 9385  14.485  16.871   6.593  0.0566  0.1427  0.2647
  828YOPS   PO4 9386  14.382  16.510   6.373 -0.1242 -0.1967  0.1571
  828YOPS   GL1 9387  14.630  16.416   6.615  0.1150 -0.0841 -0.1233
  828YOPS   GL2 9388  14.921  16.605   6.739  0.0712  0.0398 -0.0612
  828YOPS   C1A 9389  14.603  16.348   7.104 -0.1494 -0.0631 -0.0780
  828YOPS   D2A 9390  14.572  16.478   7.518 -0.2502  0.3973  0.1072
  828YOPS   C3A 9391  14.246  16.263   7.769 -0.0766 -0.0550  0.0187
  828YOPS   C4A 9392  13.989  16.403   8.089  0.1340 -0.2214  0.2796
  828YOPS   C1B 9393  14.937  16.788   7.095  0.2141  0.1734 -0.4231
  828YOPS   C2B 9394  14.819  16.906   7.390  0.0557  0.1547  0.1104
  828YOPS   D3B 9395  14.653  16.900   7.812  0.0378  0.2428  0.0755
  828YOPS   C4B 9396  14.945  16.778   8.236  0.3266 -0.1515  0.0958
  829YOPS   CNO 9397  17.773   7.931   5.852  0.1603 -0.2930  0.2833
  829YOPS   PO4 9398  17.893   8.381   5.954  0.1105  0.0958  0.0902
  829YOPS   GL1 9399  17.879   8.438   6.380  0.1892 -0.0431 -0.0473
  829YOPS   GL2 9400  18.080   8.619   6.584 -0.2003 -0.1626  0.1907
  829YOPS   C1A 9401  18.052   8.111   6.781  0.5709 -0.0823  0.1619
  829YOPS   D2A 9402  17.778   8.099   7.105  0.1674  0.1554  0.1288
  829YOPS   C3A 9403  17.304   8.002   7.418 -0.0210  0.0696  0.1454
  829YOPS   C4A 9404  17.044   7.779   7.231 -0.1437 -0.0334  0.3116
  829YOPS   C1B 9405  17.967   8.547   7.045  0.0111 -0.0424  0.1386
  829YOPS   C2B 9406  17.873   8.729   7.374 -0.0518  0.2679  0.2528
  829YOPS   D3B 9407  17.732   8.928   7.693 -0.1125 -0.2454 -0.1074
  829YOPS   C4B 9408  17.495   8.852   8.149 -0.0189  0.1327  0.3590
  830YOPS   CNO 9409   1.166   9.267   6.387 -0.1215 -0.0552  0.3261
  830YOPS   PO4 9410   0.836   9.245   6.027 -0.1150 -0.0261 -0.0516
  830YOPS   GL1 9411   0.631   9.283   6.466  0.0495 -0.3944 -0.4245
  830YOPS   GL2 9412   0.320   9.288   6.579 -0.1198 -0.2325  0.2302
  830YOPS   C1A 9413   0.796   9.315   6.840  0.0561  0.0339  0.1961
  830YOPS   D2A 9414   0.794   9.243   7.211 -0.1691 -0.0156  0.0792
  830YOPS   C3A 9415   0.606   9.012   7.494  0.1752  0.1380 -0.0030
  830YOPS   C4A 9416   0.728   9.045   7.913 -0.3538 -0.1152  0.2414
  830YOPS   C1B 9417   0.448   8.992   6.943 -0.3780  0.0012  0.1225
  830YOPS   C2B 9418   0.546   8.605   7.223 -0.0001 -0.1376  0.0799
  830YOPS   D3B 9419   0.612   8.533   7.577 -0.0509  0.2991  0.0070
  830YOPS   C4B 9420   0.427   8.715   7.929  0.0451  0.4167 -0.0363
  831YOPS   CNO 9421  16.650  15.990   6.464 -0.0366 -0.1468  0.0930
  831YOPS   PO4 9422  17.021  16.045   6.649 -0.0151 -0.0509  0.1548
  831YOPS   GL1 9423  17.029  16.173   7.065  0.2912  0.1875  0.2615
  831YOPS   GL2 9424  16.897  15.850   7.249 -0.0664 -0.2135 -0.0182
  831YOPS   C1A 9425  16.967  16.308   7.497  0.1712 -0.1409 -0.2027
  831YOPS   D2A 9426  16.857  16.372   7.925 -0.1011 -0.1507  0.0177
  831YOPS   C3A 9427  17.052  16.576   8.280 -0.1534 -0.0855 -0.0948
  831YOPS   C4A 9428  16.980  16.383   8.625  0.1468 -0.0161  0.2774
  831YOPS   C1B 9429  16.824  15.826   7.551 -0.1573 -0.1058  0.1945
  831YOPS   C2B 9430  16.696  15.644   7.964 -0.0942 -0.2365  0.2618
  831YOPS   D3B 9431  16.599  15.521   8.398  0.1653  0.1197 -0.1336
  831YOPS   C4B 9432  16.886  15.196   8.630 -0.0059 -0.1628 -0.0823
  832YOPS   CNO 9433   1.885   0.934   5.887  0.1259 -0.4404  0.1353
  832YOPS   PO4 9434   1.592   0.776   6.210  0.1829  0.3403 -0.2706
  832YOPS   GL1 9435   1.467   0.844   6.622 -0.1385  0.3153  0.0773
  832YOPS   GL2 9436   1.595   0.470   6.750  0.3133 -0.0628  0.1240
  832YOPS   C1A 9437   1.339   1.333   6.826  0.1415  0.2110  0.1667
  832YOPS   D2A 9438   1.413   1.519   7.134 -0.1201  0.0898  0.1380
  832YOPS   C3A 9439   1.230   1.686   7.459 -0.1457  0.0973 -0.0061
  832YOPS   C4A 9440   1.167   1.594   7.943 -0.1481  0.3824  0.3338
  832YOPS   C1B 9441   1.268   0.537   6.966  0.0275 -0.1427  0.0236
  832YOPS   C2B 9442   1.071   0.912   7.031  0.1384  0.0124  0.1844
  832YOPS   D3B 9443   1.058   1.244   7.355  0.3185  0.1261 -0.0286
  832YOPS   C4B 9444   1.545   1.305   7.553  0.1177  0.1267 -0.0033
  833YOPS   CNO 9445   5.446   4.163   5.524 -0.1531  0.0027  0.2777
  833YOPS   PO4 9446   5.495   3.893   5.741  0.0386 -0.0178  0.2440
  833YOPS   GL1 9447   5.628   4.120   6.053  0.2380 -0.3660  0.3150
  833YOPS   GL2 9448   5.356   4.271   6.186  0.0801 -0.5962 -0.1504
  833YOPS   C1A 9449   5.841   4.203   6.448  0.2290 -0.0662 -0.0106
  833YOPS   D2A 9450   5.648   4.367   6.810  0.2546 -0.3062 -0.3379
  833YOPS   C3A 9451   5.635   4.256   7.175  0.2587  0.2164  0.1218
  833YOPS   C4A 9452   5.752   3.936   7.210  0.2488 -0.0754 -0.3612
  833YOPS   C1B 9453   5.517   4.648   6.339  0.2662  0.0568  0.1346
  833YOPS   C2B 9454   5.789   4.853   6.624 -0.2498 -0.1951  0.2475
  833YOPS   D3B 9455   5.948   5.202   6.868 -0.3555 -0.0221  0.1480
  833YOPS   C4B 9456   6.375   5.307   7.041 -0.0414  0.0364 -0.2057
  834YOPS   CNO 9457   2.711   3.583   6.024 -0.0811  0.2743  0.0622
  834YOPS   PO4 9458   2.521   3.259   6.093  0.2391 -0.1015  0.0150
  834YOPS   GL1 9459   2.612   3.382   6.516  0.0444  0.2173 -0.0382
  834YOPS   GL2 9460   2.848   3.774   6.477  0.4155 -0.1373 -0.1391
  834YOPS   C1A 9461   2.623   3.089   6.815  0.0622 -0.0320  0.1605
  834YOPS   D2A 9462   2.414   2.714   6.985 -0.1753  0.0467  0.1709
  834YOPS   C3A 9463   2.248   2.596   7.352  0.1831 -0.1973  0.1345
  834YOPS   C4A 9464   2.357   2.780   7.664  0.0690  0.1154  0.1459
  834YOPS   C1B 9465   2.784   3.803   6.914  0.0019 -0.1603 -0.0881
  834YOPS   C2B 9466   2.628   3.541   7.329 -0.2655 -0.0825  0.0917
  834YOPS   D3B 9467   2.516   3.216   7.622  0.0671 -0.1938 -0.0234
  834YOPS   C4B 9468   2.514   3.197   8.070  0.3240  0.3097  0.1219
  835YOPS   CNO 9469   5.496  15.428   6.302  0.1442  0.0128 -0.4295
  835YOPS   PO4 9470   5.648  15.788   6.363 -0.2345 -0.3623 -0.0326
  835YOPS   GL1 9471   5.809  15.577   6.655 -0.0627  0.0106 -0.0598
  835YOPS   GL2 9472   6.016  15.342   6.577 -0.1406  0.2803  0.0244
  835YOPS   C1A 9473   5.829  15.565   7.089  0.1248 -0.1485 -0.1993
  835YOPS   D2A 9474   5.750  15.650   7.496 -0.1651 -0.1223 -0.3276
  835YOPS   C3A 9475   5.651  15.657   7.881  0.1310 -0.3236  0.0490
  835YOPS   C4A 9476   5.876  15.520   8.152 -0.0671 -0.0658 -0.0137
  835YOPS   C1B 9477   6.205  15.253   6.959  0.2184 -0.1456 -0.0375
  835YOPS   C2B 9478   6.177  15.342   7.339  0.0085  0.0823 -0.0547
  835YOPS   D3B 9479   6.090  15.377   7.722 -0.0057 -0.1401  0.1999
  835YOPS   C4B 9480   6.186  15.105   8.001 -0.0909  0.0722  0.0142
  836YOPS   CNO 9481   6.224   0.970   6.249  0.2034  0.1644  0.0626
  836YOPS   PO4 9482   6.243   0.802   6.786 -0.0580 -0.0479  0.0044
  836YOPS   GL1 9483   6.285   1.081   7.186  0.0152 -0.1078 -0.1118
  836YOPS   GL2 9484   5.998   1.284   7.264 -0.2708 -0.0928  0.1816
  836YOPS   C1A 9485   6.291   1.040   7.569  0.0665 -0.0916  0.0510
  836YOPS   D2A 9486   6.044   1.007   7.998  0.2044 -0.5189 -0.2383
  836YOPS   C3A 9487   6.124   1.028   8.442 -0.0575 -0.1329  0.1186
  836YOPS   C4A 9488   5.964   0.693   8.599 -0.0570 -0.0098  0.0973
  836YOPS   C1B 9489   5.965   1.460   7.601 -0.0071  0.2695 -0.1352
  836YOPS   C2B 9490   6.014   1.580   7.999  0.3007  0.1023 -0.1365
  836YOPS   D3B 9491   5.853   1.740   8.350  0.3628  0.2844  0.0696
  836YOPS   C4B 9492   5.659   1.466   8.613 -0.0860 -0.1579 -0.2873
  837YOPS   CNO 9493  16.602  11.715   6.611 -0.0382 -0.1131  0.2627
  837YOPS   PO4 9494  16.360  11.548   6.303  0.1896 -0.1049  0.3002
  837YOPS   GL1 9495  16.391  11.261   6.545 -0.2040 -0.0862 -0.0222
  837YOPS   GL2 9496  16.095  11.021   6.522  0.0202 -0.0506 -0.0731
  837YOPS   C1A 9497  16.650  11.243   6.909 -0.3071 -0.2390 -0.0244
  837YOPS   D2A 9498  16.628  11.360   7.342 -0.0391  0.0210  0.2734
  837YOPS   C3A 9499  16.690  11.022   7.687  0.2109 -0.0664 -0.3850
  837YOPS   C4A 9500  16.328  11.049   7.962 -0.3169 -0.0189  0.0027
  837YOPS   C1B 9501  15.860  10.969   6.862  0.0580  0.0396  0.0840
  837YOPS   C2B 9502  15.905  10.689   7.204  0.1239 -0.0398  0.0350
  837YOPS   D3B 9503  16.007  10.710   7.695  0.3132 -0.1734  0.2762
  837YOPS   C4B 9504  15.863  10.363   7.972  0.3214 -0.0162  0.0869
  838YOPS   CNO 9505   3.611   3.042   6.424 -0.1564 -0.0330 -0.0545
  838YOPS   PO4 9506   4.006   2.936   6.280  0.1229 -0.0292  0.0812
  838YOPS   GL1 9507   4.106   2.792   6.670  0.0508 -0.1944  0.0159
  838YOPS   GL2 9508   4.369   2.570   6.808  0.2478 -0.3648  0.0953
  838YOPS   C1A 9509   3.960   2.723   7.122  0.0692 -0.0018  0.2555
  838YOPS   D2A 9510   4.038   2.811   7.513 -0.1014 -0.1030  0.1101
  838YOPS   C3A 9511   4.460   2.833   7.659 -0.4217 -0.0550  0.1878
  838YOPS   C4A 9512   4.340   2.793   8.079  0.1945  0.1500 -0.0633
  838YOPS   C1B 9513   4.459   2.839   7.181 -0.0761 -0.3892  0.0939
  838YOPS   C2B 9514   4.411   3.178   7.346  0.1999 -0.1185 -0.1945
  838YOPS   D3B 9515   4.392   3.294   7.818  0.2010  0.3399  0.1031
  838YOPS   C4B 9516   4.215   3.598   7.956  0.0667 -0.1572  0.0792
  839POPE   NH3 9517  13.336   9.269   5.746 -0.0764 -0.1155 -0.3526
  839POPE   PO4 9518  13.238   9.747   5.758 -0.1765 -0.0491 -0.2020
  839POPE   GL1 9519  13.041   9.653   6.093 -0.0725 -0.1616  0.1486
  839POPE   GL2 9520  12.985   9.441   6.234 -0.1085  0.2099 -0.1103
  839POPE   C1A 9521  12.756   9.986   6.323  0.2433  0.0596 -0.0024
  839POPE   D2A 9522  12.904  10.111   6.704 -0.2544  0.3879  0.1245
  839POPE   C3A 9523  12.622  10.186   6.909 -0.1986 -0.2427 -0.0630
  839POPE   C4A 9524  12.211  10.325   7.004 -0.2108 -0.1247  0.0494
  839POPE   C1B 9525  12.642   9.538   6.565 -0.2130 -0.0022  0.3365
  839POPE   C2B 9526  12.696   9.624   7.001  0.0520 -0.5270 -0.0999
  839POPE   C3B 9527  12.523   9.381   7.356  0.0641 -0.2095  0.0565
  839POPE   C4B 9528  12.102   9.373   7.498  0.2509  0.2915 -0.2858
  840POPE   NH3 9529  12.033  17.902   6.895 -0.0794  0.1357  0.0985
  840POPE   PO4 9530  12.493  17.958   6.859  0.1885  0.0984 -0.1817
  840POPE   GL1 9531  12.745  17.888   7.236  0.0793  0.0645  0.0473
  840POPE   GL2 9532  12.967  17.660   7.156 -0.1014  0.1085 -0.2051
  840POPE   C1A 9533  12.659  17.644   7.662  0.1890  0.2844 -0.1816
  840POPE   D2A 9534  12.656  17.737   8.054  0.1492  0.0333 -0.0299
  840POPE   C3A 9535  12.361  17.535   8.428 -0.1069  0.1969 -0.0006
  840POPE   C4A 9536  12.381  17.067   8.506  0.0182  0.1038 -0.4526
  840POPE   C1B 9537  13.121  17.782   7.538 -0.0664 -0.1388 -0.4052
  840POPE   C2B 9538  13.116  17.899   7.950  0.3419 -0.1841 -0.0686
  840POPE   C3B 9539  13.054  18.047   8.247  0.0194  0.0959  0.2217
  840POPE   C4B 9540  13.228  18.278   8.567  0.4344 -0.0572  0.2919
  841POPE   NH3 9541  11.847   3.674   6.661  0.3051  0.2031 -0.2168
  841POPE   PO4 9542  11.917   4.064   6.652 -0.4739 -0.1959  0.1618
  841POPE   GL1 9543  12.006   3.938   7.116  0.2201 -0.0801  0.1202
  841POPE   GL2 9544  12.305   4.054   7.142  0.2708 -0.1444  0.3359
  841POPE   C1A 9545  12.149   3.741   7.491 -0.5033 -0.0901  0.4287
  841POPE   D2A 9546  12.007   3.906   7.852 -0.0257  0.0584 -0.1585
  841POPE   C3A 9547  12.047   4.189   8.259  0.0505 -0.1170  0.0725
  841POPE   C4A 9548  11.964   4.421   8.643 -0.0301  0.1776 -0.2160
  841POPE   C1B 9549  12.454   4.106   7.536 -0.1889  0.0363  0.0792
  841POPE   C2B 9550  12.517   3.788   7.826  0.0504  0.2317  0.1124
  841POPE   C3B 9551  12.353   3.733   8.220  0.1622  0.1779  0.2814
  841POPE   C4B 9552  12.117   3.441   8.524 -0.5309 -0.0142  0.0664
  842POPE   NH3 9553   3.249  12.853   6.164  0.1053 -0.0833 -0.1228
  842POPE   PO4 9554   3.615  12.906   6.399  0.1643 -0.3534 -0.0723
  842POPE   GL1 9555   3.860  12.689   6.603  0.0311  0.1353  0.1749
  842POPE   GL2 9556   4.083  12.686   6.668  0.0569 -0.4110 -0.0210
  842POPE   C1A 9557   3.504  12.575   6.992  0.2957  0.0156  0.0501
  842POPE   D2A 9558   3.165  12.516   7.342  0.1999 -0.3378 -0.0632
  842POPE   C3A 9559   3.073  12.276   7.666 -0.1264 -0.0789 -0.1734
  842POPE   C4A 9560   2.767  12.065   7.977  0.2465  0.1504 -0.1236
  842POPE   C1B 9561   3.965  12.678   7.096  0.3130 -0.1248  0.0029
  842POPE   C2B 9562   4.074  12.590   7.499  0.0127 -0.0993 -0.0197
  842POPE   C3B 9563   4.081  12.589   7.862 -0.3354 -0.0340  0.0354
  842POPE   C4B 9564   3.775  12.543   8.227 -0.1741 -0.0726 -0.1843
  843POPE   NH3 9565  16.356   2.827   5.883  0.0479  0.0435 -0.0264
  843POPE   PO4 9566  15.964   2.595   5.941 -0.1497  0.2343  0.0720
  843POPE   GL1 9567  16.096   2.548   6.363 -0.0641  0.0659  0.0979
  843POPE   GL2 9568  16.393   2.670   6.338 -0.3622  0.1138 -0.1004
  843POPE   C1A 9569  16.240   2.380   6.803  0.1794 -0.0899  0.1816
  843POPE   D2A 9570  16.247   2.459   7.119 -0.1961 -0.0906 -0.0902
  843POPE   C3A 9571  16.176   2.615   7.432 -0.2123 -0.2194 -0.2504
  843POPE   C4A 9572  16.192   2.954   7.641 -0.0882 -0.0770  0.3064
  843POPE   C1B 9573  16.510   2.831   6.700 -0.2412  0.1474 -0.1364
  843POPE   C2B 9574  16.522   2.854   7.204  0.0967  0.0413 -0.0145
  843POPE   C3B 9575  16.754   2.994   7.537  0.2436 -0.2363  0.2503
  843POPE   C4B 9576  16.911   3.308   7.874  0.1495 -0.1653  0.2545
  844POPE   NH3 9577  15.731  13.233   6.632 -0.1259 -0.0304 -0.2274
  844POPE   PO4 9578  15.966  12.906   6.476  0.0811 -0.1926  0.0850
  844POPE   GL1 9579  15.949  12.827   6.824  0.1429  0.3334  0.0226
  844POPE   GL2 9580  15.995  12.472   6.937  0.0608  0.0177 -0.0102
  844POPE   C1A 9581  15.865  12.854   7.216  0.0193  0.0522  0.0558
  844POPE   D2A 9582  15.579  13.063   7.512  0.1926 -0.1635 -0.0122
  844POPE   C3A 9583  15.509  12.959   8.014  0.1337 -0.0560  0.2804
  844POPE   C4A 9584  15.554  12.732   8.367 -0.1101 -0.0610  0.2765
  844POPE   C1B 9585  15.853  12.395   7.320 -0.0804 -0.2214  0.0130
  844POPE   C2B 9586  15.998  12.168   7.695 -0.3778  0.3342 -0.2594
  844POPE   C3B 9587  16.300  12.130   8.026  0.2700 -0.0387 -0.0703
  844POPE   C4B 9588  16.619  11.901   8.187  0.0093 -0.0017  0.1586
  845POPE   NH3 9589   9.948   9.055   5.788 -0.1156 -0.0706  0.2419
  845POPE   PO4 9590   9.604   9.189   6.010  0.1246 -0.2384  0.2573
  845POPE   GL1 9591   9.819   9.109   6.265 -0.1471  0.3092 -0.2180
  845POPE   GL2 9592  10.170   8.996   6.253 -0.2062  0.1694 -0.1054
  845POPE   C1A 9593   9.841   9.100   6.656 -0.1766 -0.1284 -0.0410
  845POPE   D2A 9594   9.969   8.821   7.061  0.0407  0.1123 -0.0097
  845POPE   C3A 9595  10.102   8.866   7.460  0.0501  0.1117 -0.1371
  845POPE   C4A 9596  10.186   9.112   7.891  0.3616  0.4827  0.0118
  845POPE   C1B 9597  10.190   8.630   6.566 -0.0532  0.1034 -0.0230
  845POPE   C2B 9598  10.373   8.567   6.898 -0.2254 -0.0462  0.1882
  845POPE   C3B 9599  10.363   8.420   7.346  0.0972 -0.2391 -0.0492
  845POPE   C4B 9600  10.367   8.161   7.719 -0.2086  0.1048 -0.1532
  846POPE   NH3 9601   0.578   3.287   5.730  0.0528 -0.2086  0.2200
  846POPE   PO4 9602   0.407   3.610   5.389  0.1465  0.3472 -0.0353
  846POPE   GL1 9603   0.472   3.810   5.659  0.2230  0.0064  0.1252
  846POPE   GL2 9604   0.663   3.752   5.924  0.2342 -0.0380  0.3410
  846POPE   C1A 9605   0.259   4.218   5.972 -0.1447 -0.0769  0.0152
  846POPE   D2A 9606   0.265   4.241   6.436  0.0792  0.0041 -0.1584
  846POPE   C3A 9607   0.219   4.466   6.830 -0.1555 -0.1606  0.3026
  846POPE   C4A 9608  -0.020   4.530   7.116  0.0755  0.2510  0.2315
  846POPE   C1B 9609   0.776   3.701   6.300 -0.1001  0.1717 -0.2035
  846POPE   C2B 9610   0.901   3.757   6.792 -0.0970 -0.2228  0.0161
  846POPE   C3B 9611   0.750   3.885   7.310 -0.5452  0.0479 -0.0170
  846POPE   C4B 9612   0.605   4.056   7.668 -0.0031 -0.2378 -0.2233
  847POPE   NH3 9613  12.174  10.501   5.631 -0.0620  0.1446 -0.3589
  847POPE   PO4 9614  11.799  10.184   5.811  0.0970 -0.1597 -0.2790
  847POPE   GL1 9615  12.030  10.461   6.141 -0.0349  0.0969  0.0035
  847POPE   GL2 9616  11.926  10.333   6.428  0.1443  0.0633  0.0726
  847POPE   C1A 9617  12.430  10.435   6.387  0.0680 -0.1000 -0.2283
  847POPE   D2A 9618  12.705  10.646   6.595  0.1270 -0.0313  0.4196
  847POPE   C3A 9619  12.706  10.679   7.013  0.0182 -0.1326 -0.1623
  847POPE   C4A 9620  12.705  10.370   7.419  0.0868 -0.2445 -0.0249
  847POPE   C1B 9621  11.812  10.453   6.776 -0.0177 -0.1359 -0.0771
  847POPE   C2B 9622  11.576  10.482   7.220 -0.1025 -0.3790  0.1489
  847POPE   C3B 9623  11.606  10.599   7.650  0.3693 -0.0351 -0.0367
  847POPE   C4B 9624  11.983  10.587   7.931 -0.0255 -0.2714  0.0071
  848POPE   NH3 9625   3.556  14.426   6.064  0.3777  0.0892 -0.1677
  848POPE   PO4 9626   3.776  14.269   6.490  0.1070 -0.0518  0.2692
  848POPE   GL1 9627   3.904  14.406   6.869 -0.3072  0.0900 -0.0941
  848POPE   GL2 9628   4.275  14.491   6.982 -0.0249  0.2156  0.1060
  848POPE   C1A 9629   3.898  14.622   7.299 -0.0108  0.1741 -0.3614
  848POPE   D2A 9630   3.737  15.058   7.532  0.1299 -0.4390 -0.1288
  848POPE   C3A 9631   3.698  14.987   7.908 -0.1830  0.0330 -0.1566
  848POPE   C4A 9632   3.455  14.690   8.143  0.0506 -0.2813 -0.0703
  848POPE   C1B 9633   4.303  14.427   7.407 -0.0161 -0.6056 -0.0903
  848POPE   C2B 9634   4.206  14.849   7.595 -0.0961  0.1406  0.0824
  848POPE   C3B 9635   4.215  14.857   7.978  0.1477 -0.0405 -0.1892
  848POPE   C4B 9636   4.364  14.937   8.372  0.0449 -0.2645  0.4351
  849POPE   NH3 9637  17.993   6.615   5.761 -0.0983  0.0998 -0.0064
  849POPE   PO4 9638  17.958   7.099   5.736  0.1858  0.1650  0.0406
  849POPE   GL1 9639  17.585   6.978   6.076 -0.1220  0.1989  0.0092
  849POPE   GL2 9640  17.284   7.207   6.110 -0.0646 -0.0628  0.1399
  849POPE   C1A 9641  17.549   6.569   6.401 -0.2377 -0.0272 -0.4512
  849POPE   D2A 9642  17.433   6.531   6.854 -0.0021  0.0666  0.0953
  849POPE   C3A 9643  17.281   6.874   7.111 -0.2201 -0.2060 -0.1787
  849POPE   C4A 9644  17.463   6.966   7.403  0.0846 -0.1599 -0.0456
  849POPE   C1B 9645  17.054   7.454   6.359 -0.0221 -0.0504 -0.1621
  849POPE   C2B 9646  16.628   7.596   6.470  0.1629 -0.1875  0.0469
  849POPE   C3B 9647  16.274   7.559   6.724  0.2001 -0.0897  0.2182
  849POPE   C4B 9648  15.864   7.725   6.753  0.0855 -0.3011  0.0616
  850POPE   NH3 9649  14.396  10.426   5.864  0.1213 -0.1369  0.1585
  850POPE   PO4 9650  14.795  10.149   5.868 -0.2952  0.0537 -0.0942
  850POPE   GL1 9651  14.641  10.243   6.318 -0.2568  0.0873  0.3755
  850POPE   GL2 9652  14.467   9.860   6.198 -0.2249 -0.0759  0.3162
  850POPE   C1A 9653  14.809  10.354   6.636 -0.0119 -0.2206 -0.1664
  850POPE   D2A 9654  14.944  10.323   7.028  0.0737 -0.2254  0.2587
  850POPE   C3A 9655  15.024  10.151   7.461 -0.0926 -0.0952 -0.2399
  850POPE   C4A 9656  14.773  10.200   7.877  0.0446  0.2674 -0.1996
  850POPE   C1B 9657  14.406   9.856   6.601  0.0332  0.1877  0.0289
  850POPE   C2B 9658  14.538  10.006   6.924 -0.0106 -0.0570  0.0713
  850POPE   C3B 9659  14.521   9.998   7.321  0.2384 -0.0918  0.1365
  850POPE   C4B 9660  14.693   9.754   7.664 -0.0553 -0.1905 -0.0431
  851POPE   NH3 9661   9.895  14.702   6.357  0.0815  0.0553  0.2980
  851POPE   PO4 9662  10.313  14.949   6.285 -0.1519  0.0686  0.0581
  851POPE   GL1 9663  10.141  15.054   6.679  0.1613  0.0569  0.1573
  851POPE   GL2 9664  10.426  15.059   6.897 -0.0005  0.3039  0.1628
  851POPE   C1A 9665   9.974  14.811   7.004  0.3868 -0.0048 -0.0579
  851POPE   D2A 9666  10.182  14.517   7.261 -0.0942  0.1288 -0.3005
  851POPE   C3A 9667  10.351  14.122   7.251 -0.3377 -0.0981  0.1648
  851POPE   C4A 9668  10.566  13.784   7.129 -0.0923 -0.2267 -0.1383
  851POPE   C1B 9669  10.278  14.997   7.385 -0.2969 -0.0137  0.0379
  851POPE   C2B 9670  10.194  14.926   7.702  0.1113 -0.2855 -0.2176
  851POPE   C3B 9671  10.026  14.585   7.937  0.3922  0.0546 -0.1170
  851POPE   C4B 9672  10.173  14.325   8.279  0.1795  0.3300  0.2781
  852POPE   NH3 9673  14.325   7.792   5.586  0.0041  0.2230  0.1863
  852POPE   PO4 9674  14.197   7.469   5.892 -0.2387  0.0903  0.0848
  852POPE   GL1 9675  14.323   7.347   6.289 -0.0921  0.0591 -0.0677
  852POPE   GL2 9676  14.286   7.018   6.395  0.1024  0.0462 -0.3290
  852POPE   C1A 9677  14.506   7.448   6.668  0.0156 -0.1786 -0.1049
  852POPE   D2A 9678  14.608   7.549   7.116 -0.0740 -0.2533 -0.1984
  852POPE   C3A 9679  14.782   7.214   7.523 -0.2471 -0.1574 -0.2783
  852POPE   C4A 9680  15.060   7.225   7.726  0.0811  0.2061 -0.0840
  852POPE   C1B 9681  13.980   7.233   6.693  0.0118 -0.2206  0.1540
  852POPE   C2B 9682  14.069   7.481   7.046 -0.0596 -0.2308  0.0093
  852POPE   C3B 9683  14.254   7.609   7.418 -0.2303  0.0999 -0.5750
  852POPE   C4B 9684  14.271   7.414   7.773 -0.0807 -0.0643  0.0751
  853POPE   NH3 9685   8.341  16.116   6.436 -0.0040  0.2682  0.0210
  853POPE   PO4 9686   8.384  16.590   6.416 -0.2594 -0.1433  0.2778
  853POPE   GL1 9687   8.149  16.722   6.728 -0.3636 -0.1421 -0.2468
  853POPE   GL2 9688   8.022  16.434   6.817  0.0403 -0.2677 -0.1122
  853POPE   C1A 9689   8.304  16.786   7.115  0.3269  0.0663  0.0485
  853POPE   D2A 9690   8.304  16.845   7.452 -0.3871  0.0315 -0.0415
  853POPE   C3A 9691   8.554  16.607   7.654  0.1519  0.2628  0.0526
  853POPE   C4A 9692   8.701  16.280   7.892 -0.3011 -0.3299  0.0269
  853POPE   C1B 9693   7.996  16.404   7.337  0.0868  0.0518 -0.2194
  853POPE   C2B 9694   7.859  16.421   7.864 -0.1224 -0.3912  0.1436
  853POPE   C3B 9695   7.558  16.280   8.215 -0.0735 -0.2008  0.3025
  853POPE   C4B 9696   7.539  16.109   8.531 -0.2502 -0.4277  0.0852
  854POPE   NH3 9697  13.242   5.231   6.232 -0.1264  0.1453  0.2220
  854POPE   PO4 9698  12.810   5.447   6.240  0.1437 -0.1512 -0.0747
  854POPE   GL1 9699  13.047   5.558   6.641  0.2299 -0.0064 -0.0646
  854POPE   GL2 9700  13.051   5.310   6.775  0.0024  0.0210  0.1249
  854POPE   C1A 9701  13.008   5.758   7.096 -0.0688  0.3520  0.2624
  854POPE   D2A 9702  12.994   5.850   7.518 -0.1224  0.0148 -0.3150
  854POPE   C3A 9703  12.798   6.212   7.840 -0.2988 -0.2618 -0.0680
  854POPE   C4A 9704  12.627   6.670   8.074 -0.2445 -0.0288  0.0104
  854POPE   C1B 9705  13.122   4.939   7.063 -0.0016  0.1747  0.0476
  854POPE   C2B 9706  13.323   4.909   7.498 -0.0463 -0.1097 -0.0645
  854POPE   C3B 9707  13.611   4.815   7.872  0.1343 -0.1645  0.1918
  854POPE   C4B 9708  13.411   4.824   8.359  0.1125  0.0693 -0.4005
  855POPE   NH3 9709   8.019  14.865   6.192 -0.0712 -0.0845  0.1558
  855POPE   PO4 9710   7.620  14.788   6.174 -0.0785 -0.0714  0.1632
  855POPE   GL1 9711   7.596  14.682   6.654  0.1409 -0.2200  0.1373
  855POPE   GL2 9712   8.055  14.745   6.686 -0.1876 -0.1259  0.0179
  855POPE   C1A 9713   7.715  14.854   7.037 -0.0452 -0.0126  0.1166
  855POPE   D2A 9714   7.458  14.747   7.498  0.5554 -0.0077 -0.0330
  855POPE   C3A 9715   7.460  15.162   7.838  0.0464 -0.1080 -0.3366
  855POPE   C4A 9716   7.310  15.340   8.220  0.4294  0.0924 -0.4643
  855POPE   C1B 9717   8.158  14.559   7.067  0.2484 -0.0724  0.1329
  855POPE   C2B 9718   7.991  14.621   7.431 -0.1908 -0.1476  0.0211
  855POPE   C3B 9719   7.843  14.438   7.780 -0.0644 -0.0449  0.0784
  855POPE   C4B 9720   7.563  14.693   8.029 -0.2407 -0.0431 -0.2160
  856POPE   NH3 9721  11.196  13.648   6.555 -0.1396 -0.0990  0.2231
  856POPE   PO4 9722  11.596  13.664   6.393  0.1478 -0.1311  0.1236
  856POPE   GL1 9723  11.511  13.526   6.920 -0.1325 -0.3566  0.0395
  856POPE   GL2 9724  11.486  13.702   7.057 -0.3004 -0.1822  0.3007
  856POPE   C1A 9725  11.552  13.304   7.314  0.0665  0.1802 -0.0108
  856POPE   D2A 9726  11.518  13.359   7.727 -0.2579  0.1499 -0.1345
  856POPE   C3A 9727  11.372  13.199   8.184  0.2527 -0.1870 -0.4053
  856POPE   C4A 9728  11.601  13.268   8.542 -0.1973  0.2628 -0.2673
  856POPE   C1B 9729  11.498  13.841   7.478 -0.0873  0.0720 -0.0540
  856POPE   C2B 9730  11.453  13.808   7.947  0.4475 -0.1318  0.1920
  856POPE   C3B 9731  11.376  13.700   8.400  0.0362 -0.2257  0.0782
  856POPE   C4B 9732  11.621  13.738   8.836 -0.1423  0.2977  0.1509
  857POPE   NH3 9733   0.756  12.646   6.563 -0.1906  0.0741  0.1886
  857POPE   PO4 9734   0.661  12.136   6.584  0.1439 -0.0927 -0.2851
  857POPE   GL1 9735   0.789  12.365   6.989 -0.0646 -0.1013 -0.0431
  857POPE   GL2 9736   1.031  12.502   6.952  0.4200 -0.0267 -0.1053
  857POPE   C1A 9737   0.859  12.287   7.448  0.2077  0.1889  0.3346
  857POPE   D2A 9738   0.711  12.358   7.957 -0.0987  0.0726  0.4689
  857POPE   C3A 9739   0.922  12.241   8.254 -0.0240 -0.0819  0.1299
  857POPE   C4A 9740   1.139  11.884   8.163  0.1369 -0.0132 -0.5157
  857POPE   C1B 9741   1.055  12.704   7.242 -0.0970  0.2480  0.0849
  857POPE   C2B 9742   1.032  12.710   7.602  0.2033  0.1108  0.1525
  857POPE   C3B 9743   1.079  12.705   8.009  0.1017 -0.0204  0.1349
  857POPE   C4B 9744   1.130  12.798   8.335 -0.4637 -0.1045  0.0945
  858POPE   NH3 9745  16.678   8.181   5.862  0.4164  0.1204  0.0162
  858POPE   PO4 9746  16.325   8.508   5.773 -0.0210 -0.0207  0.2376
  858POPE   GL1 9747  16.252   8.299   6.175 -0.2234 -0.2182  0.1403
  858POPE   GL2 9748  15.981   8.332   6.106 -0.0503  0.1043 -0.0155
  858POPE   C1A 9749  16.220   7.928   6.381  0.2769  0.2459  0.1703
  858POPE   D2A 9750  16.075   7.530   6.299  0.0192  0.1778  0.0727
  858POPE   C3A 9751  15.695   7.452   6.365 -0.0106  0.0086  0.0275
  858POPE   C4A 9752  15.254   7.655   6.494 -0.2226  0.2993 -0.0559
  858POPE   C1B 9753  15.956   8.377   6.570 -0.1128 -0.0398 -0.0405
  858POPE   C2B 9754  16.122   8.178   6.916  0.1865 -0.0524 -0.0464
  858POPE   C3B 9755  16.117   7.812   7.190  0.1525 -0.2041  0.0558
  858POPE   C4B 9756  16.010   7.484   7.514 -0.0462 -0.2484 -0.1486
  859POPE   NH3 9757  17.913   0.730   6.211  0.0545 -0.2960 -0.0350
  859POPE   PO4 9758  17.590   1.042   5.967  0.0993 -0.2154 -0.0507
  859POPE   GL1 9759  17.422   0.902   6.362 -0.0123 -0.2095 -0.4024
  859POPE   GL2 9760  17.425   0.646   6.284 -0.2047 -0.3055  0.2012
  859POPE   C1A 9761  17.305   1.113   6.801  0.1772  0.3786  0.0105
  859POPE   D2A 9762  17.387   1.137   7.224  0.0302 -0.0437 -0.0839
  859POPE   C3A 9763  17.278   1.162   7.681 -0.3079  0.0883  0.2468
  859POPE   C4A 9764  17.382   1.407   7.944 -0.3066  0.1014  0.2681
  859POPE   C1B 9765  17.360   0.467   6.683 -0.1258 -0.0052 -0.0973
  859POPE   C2B 9766  17.334   0.623   7.104 -0.0517  0.1530  0.0501
  859POPE   C3B 9767  17.332   0.597   7.638 -0.2602  0.0079 -0.1114
  859POPE   C4B 9768  17.315   0.803   8.116  0.1556  0.3196 -0.0575
  860POPE   NH3 9769   7.131   1.756   6.578 -0.2450 -0.1973 -0.1702
  860POPE   PO4 9770   6.707   1.963   6.545  0.3466  0.0086 -0.0755
  860POPE   GL1 9771   6.956   2.078   6.896 -0.1942 -0.0417 -0.2257
  860POPE   GL2 9772   7.012   2.403   6.923 -0.0979 -0.0172 -0.1322
  860POPE   C1A 9773   7.121   2.121   7.287  0.0877 -0.1547  0.2837
  860POPE   D2A 9774   7.315   2.226   7.728 -0.3713 -0.1938 -0.2437
  860POPE   C3A 9775   7.213   2.042   8.062 -0.1946 -0.0893 -0.0901
  860POPE   C4A 9776   7.228   1.862   8.432  0.1050  0.0656 -0.2280
  860POPE   C1B 9777   6.980   2.659   7.283  0.1431 -0.0106 -0.2063
  860POPE   C2B 9778   6.668   2.872   7.466 -0.2929  0.1010  0.3291
  860POPE   C3B 9779   6.589   2.759   7.744 -0.0221 -0.2667  0.1801
  860POPE   C4B 9780   6.305   2.571   7.961 -0.1080 -0.1012 -0.0169
  861POPE   NH3 9781   6.478   8.083   6.306 -0.0114 -0.1482 -0.0962
  861POPE   PO4 9782   6.338   7.666   6.423 -0.0932  0.0886  0.0377
  861POPE   GL1 9783   6.300   7.552   6.824  0.0576  0.0178 -0.2397
  861POPE   GL2 9784   6.594   7.522   6.909 -0.1414  0.2298 -0.1967
  861POPE   C1A 9785   6.156   7.587   7.302  0.0612 -0.2256 -0.0424
  861POPE   D2A 9786   5.940   7.740   7.637  0.2154 -0.1311  0.1238
  861POPE   C3A 9787   5.594   7.615   7.783 -0.1088  0.1698  0.1724
  861POPE   C4A 9788   5.289   7.676   8.214 -0.0020  0.3266  0.0673
  861POPE   C1B 9789   6.599   7.462   7.375 -0.1283  0.2472 -0.0162
  861POPE   C2B 9790   6.580   7.157   7.764 -0.0740 -0.1095 -0.5162
  861POPE   C3B 9791   6.805   6.931   8.065 -0.2072 -0.0959 -0.0018
  861POPE   C4B 9792   6.759   6.465   8.131  0.1848  0.2846 -0.0934
  862POPE   NH3 9793   5.565  14.462   6.240 -0.1757 -0.0912 -0.2586
  862POPE   PO4 9794   5.422  14.031   6.404 -0.0646  0.0258 -0.1834
  862POPE   GL1 9795   5.573  13.966   6.848 -0.2079  0.1881  0.1181
  862POPE   GL2 9796   5.918  13.920   6.786  0.1444 -0.1733 -0.1634
  862POPE   C1A 9797   5.479  13.889   7.292 -0.0348  0.4021 -0.0737
  862POPE   D2A 9798   5.446  13.997   7.761 -0.2074  0.0418  0.0018
  862POPE   C3A 9799   5.451  13.939   8.156 -0.2269 -0.1972 -0.1646
  862POPE   C4A 9800   5.623  13.896   8.615 -0.0140 -0.3391  0.0775
  862POPE   C1B 9801   5.941  14.103   7.162 -0.1287  0.1575  0.0855
  862POPE   C2B 9802   6.011  14.224   7.615 -0.0459  0.0643 -0.1291
  862POPE   C3B 9803   5.971  14.146   8.025  0.0441  0.0794 -0.3783
  862POPE   C4B 9804   5.972  13.795   8.267  0.3996 -0.1214  0.0725
  863POPE   NH3 9805  16.343   1.426   5.816  0.1263 -0.3440  0.0401
  863POPE   PO4 9806  16.048   1.217   5.894 -0.0572  0.0891  0.0415
  863POPE   GL1 9807  15.791   1.369   6.357  0.0613  0.1520 -0.1148
  863POPE   GL2 9808  15.583   1.190   6.453 -0.1373 -0.0876 -0.2383
  863POPE   C1A 9809  15.950   1.437   6.779  0.1111 -0.6050 -0.0018
  863POPE   D2A 9810  16.090   1.575   7.231  0.1078 -0.1607  0.0502
  863POPE   C3A 9811  15.780   1.721   7.511  0.0553  0.3851  0.0135
  863POPE   C4A 9812  15.937   1.943   7.868  0.2105 -0.0081  0.2796
  863POPE   C1B 9813  15.591   1.100   6.850  0.3445 -0.2916 -0.4258
  863POPE   C2B 9814  15.767   1.139   7.360  0.0311 -0.1233  0.2520
  863POPE   C3B 9815  16.153   1.132   7.513 -0.0036  0.0638  0.4107
  863POPE   C4B 9816  16.328   1.532   7.717  0.0058  0.1307 -0.2888
  864POPE   NH3 9817  16.400  16.384   6.295  0.0509 -0.0756  0.3206
  864POPE   PO4 9818  16.801  16.707   6.234 -0.0928 -0.0531 -0.0232
  864POPE   GL1 9819  16.749  16.520   6.663 -0.0007 -0.2885 -0.4137
  864POPE   GL2 9820  16.625  16.311   6.879  0.0816  0.0421 -0.1242
  864POPE   C1A 9821  16.792  16.738   7.043  0.2023 -0.0290 -0.2918
  864POPE   D2A 9822  16.614  16.736   7.553 -0.0721 -0.0154  0.0718
  864POPE   C3A 9823  16.756  17.072   7.726 -0.1008 -0.2704  0.0952
  864POPE   C4A 9824  16.586  17.452   7.908  0.0544 -0.4510  0.1598
  864POPE   C1B 9825  16.513  16.254   7.287  0.1141  0.1656  0.0412
  864POPE   C2B 9826  16.425  16.242   7.705 -0.3756  0.0226  0.3047
  864POPE   C3B 9827  16.377  16.114   8.167 -0.0288  0.1542  0.0316
  864POPE   C4B 9828  16.121  16.228   8.517  0.2355  0.2817 -0.0966
  865POPE   NH3 9829  11.107  18.027   6.455  0.2799  0.0372  0.3522
  865POPE   PO4 9830  10.884  17.892   6.767 -0.1434 -0.1779  0.3070
  865POPE   GL1 9831  10.868  17.907   7.240 -0.0009  0.0242  0.0184
  865POPE   GL2 9832  10.616  18.141   7.350  0.1883 -0.1710 -0.1547
  865POPE   C1A 9833  10.878  17.657   7.659  0.0338 -0.3596 -0.0014
  865POPE   D2A 9834  10.842  17.756   8.010  0.1355  0.1501 -0.1615
  865POPE   C3A 9835  10.803  18.043   8.377  0.3621 -0.0793  0.0921
  865POPE   C4A 9836  10.857  18.471   8.555  0.2969  0.1866  0.1834
  865POPE   C1B 9837  10.525  17.967   7.658 -0.3259 -0.0910  0.1181
  865POPE   C2B 9838  10.380  17.990   8.102  0.1332 -0.1274  0.0678
  865POPE   C3B 9839  10.462  17.714   8.423 -0.1308  0.0073 -0.0619
  865POPE   C4B 9840  10.431  17.281   8.559  0.0825 -0.3085  0.0558
  866POPE   NH3 9841  13.370  11.136   5.958  0.3692  0.2361 -0.1592
  866POPE   PO4 9842  13.731  10.990   5.742  0.2239  0.2120  0.3892
  866POPE   GL1 9843  13.831  11.115   6.150  0.0560 -0.2828  0.1507
  866POPE   GL2 9844  13.874  10.792   6.289 -0.1306 -0.3830 -0.1270
  866POPE   C1A 9845  13.812  11.248   6.507  0.1864  0.0308  0.0548
  866POPE   D2A 9846  13.538  11.115   6.842 -0.0179 -0.0030  0.1325
  866POPE   C3A 9847  13.662  10.972   7.340  0.2208  0.2704  0.0520
  866POPE   C4A 9848  13.438  10.791   7.646 -0.0195 -0.0120  0.0288
  866POPE   C1B 9849  13.762  10.666   6.712 -0.1615 -0.3246  0.1560
  866POPE   C2B 9850  13.757  10.531   7.163 -0.1269 -0.0360 -0.1959
  866POPE   C3B 9851  14.075  10.704   7.461  0.0043 -0.0383  0.3355
  866POPE   C4B 9852  14.236  10.825   7.738  0.1686 -0.1619 -0.2637
  867POPE   NH3 9853   1.848   0.043   6.577 -0.0417 -0.0288  0.1062
  867POPE   PO4 9854   1.943  -0.399   6.452  0.0827 -0.2860  0.1392
  867POPE   GL1 9855   2.059  -0.350   6.845  0.1590  0.1413  0.0706
  867POPE   GL2 9856   1.894  -0.403   6.974 -0.2931 -0.1410  0.1547
  867POPE   C1A 9857   2.366  -0.257   7.169 -0.0267 -0.1722  0.1549
  867POPE   D2A 9858   2.261  -0.411   7.595  0.1890 -0.3718  0.1574
  867POPE   C3A 9859   2.028  -0.238   7.965  0.0344  0.0618 -0.2157
  867POPE   C4A 9860   1.840  -0.326   8.404 -0.1161  0.1822  0.2665
  867POPE   C1B 9861   1.883  -0.277   7.340 -0.2623 -0.0639  0.1299
  867POPE   C2B 9862   2.059   0.046   7.549 -0.4000  0.0323  0.0303
  867POPE   C3B 9863   2.275   0.174   7.935 -0.2642  0.2046  0.2403
  867POPE   C4B 9864   2.674   0.128   8.071  0.0645 -0.2144  0.4055
  868POPE   NH3 9865   6.471  10.156   6.013 -0.0239  0.3428  0.0928
  868POPE   PO4 9866   6.148  10.433   6.011 -0.3186  0.1172 -0.1167
  868POPE   GL1 9867   5.840  10.461   6.405  0.0647 -0.0115 -0.1494
  868POPE   GL2 9868   5.524  10.366   6.487 -0.0177  0.0010  0.2069
  868POPE   C1A 9869   5.833  10.215   6.835  0.2351  0.1987 -0.1374
  868POPE   D2A 9870   5.897   9.841   7.105 -0.0930  0.2410 -0.1295
  868POPE   C3A 9871   6.035   9.717   7.601  0.1485  0.2764  0.0111
  868POPE   C4A 9872   6.066   9.866   8.006 -0.2396  0.1011  0.2497
  868POPE   C1B 9873   5.472   9.910   6.752 -0.0961  0.2608  0.0174
  868POPE   C2B 9874   5.433   9.743   7.192  0.0546  0.2124  0.0259
  868POPE   C3B 9875   5.535   9.823   7.567 -0.1340  0.1365  0.1098
  868POPE   C4B 9876   5.424   9.815   7.946 -0.0471 -0.1446 -0.2790
  869YOPE   NH3 9877   7.544  18.083   6.751  0.2591  0.1178 -0.1499
  869YOPE   PO4 9878   7.843  17.787   6.760 -0.2945  0.2476  0.1681
  869YOPE   GL1 9879   7.768  17.804   7.157  0.0323  0.2023 -0.0033
  869YOPE   GL2 9880   7.493  18.006   7.262  0.1432 -0.3048 -0.3214
  869YOPE   C1A 9881   7.838  17.713   7.579 -0.0511 -0.0979  0.1472
  869YOPE   D2A 9882   7.815  17.717   7.899  0.0430  0.2599 -0.1131
  869YOPE   C3A 9883   7.528  17.707   8.296 -0.4079 -0.1441  0.0686
  869YOPE   C4A 9884   7.223  17.619   8.584  0.0874 -0.2234  0.3127
  869YOPE   C1B 9885   7.559  18.116   7.679 -0.0139  0.0355  0.2117
  869YOPE   C2B 9886   7.305  18.236   8.067  0.3439  0.1969  0.0328
  869YOPE   D3B 9887   7.484  18.330   8.406  0.0171  0.0126  0.0210
  869YOPE   C4B 9888   7.807  18.354   8.705  0.0139 -0.1179  0.1212
  870YOPE   NH3 9889   7.261   4.770   5.788  0.2538 -0.2705  0.3157
  870YOPE   PO4 9890   6.999   5.099   5.917  0.2140 -0.0370 -0.0419
  870YOPE   GL1 9891   6.965   4.967   6.303  0.1390  0.1773  0.0582
  870YOPE   GL2 9892   6.712   4.995   6.532  0.0975  0.3505 -0.0986
  870YOPE   C1A 9893   7.238   4.807   6.720  0.0396 -0.0740  0.2457
  870YOPE   D2A 9894   7.275   4.663   7.100 -0.2543  0.0293  0.1572
  870YOPE   C3A 9895   7.682   4.450   7.243  0.0861  0.1252  0.0380
  870YOPE   C4A 9896   7.946   4.836   7.359 -0.0244 -0.0572 -0.0193
  870YOPE   C1B 9897   6.750   4.971   7.070 -0.1588 -0.0486  0.1676
  870YOPE   C2B 9898   6.836   5.028   7.431  0.0087 -0.0120 -0.1601
  870YOPE   D3B 9899   6.858   5.104   7.830 -0.2279  0.2242 -0.0063
  870YOPE   C4B 9900   6.737   5.198   8.233 -0.0965  0.0519  0.0116
  871YOPE   NH3 9901   6.445  10.848   5.975 -0.0991 -0.0719 -0.1080
  871YOPE   PO4 9902   6.835  10.620   6.033 -0.1150 -0.3276  0.0110
  871YOPE   GL1 9903   6.527  10.487   6.381  0.3087 -0.1233  0.2225
  871YOPE   GL2 9904   6.684  10.206   6.526  0.1423 -0.0661  0.1356
  871YOPE   C1A 9905   6.253  10.461   6.855  0.1514 -0.1323 -0.0220
  871YOPE   D2A 9906   6.161  10.198   7.293 -0.2890  0.2728  0.1937
  871YOPE   C3A 9907   5.926  10.166   7.594 -0.0270 -0.2654  0.0596
  871YOPE   C4A 9908   5.797  10.293   8.023 -0.3291  0.0345  0.1143
  871YOPE   C1B 9909   6.813  10.105   6.884 -0.0239 -0.0757  0.1223
  871YOPE   C2B 9910   7.052   9.940   7.207  0.2192 -0.1128 -0.1456
  871YOPE   D3B 9911   7.156  10.027   7.636  0.4421  0.2047 -0.1028
  871YOPE   C4B 9912   7.042  10.175   8.011 -0.3223  0.0868 -0.1439
  872YOPE   NH3 9913  10.058   0.850   6.854 -0.0199  0.0307  0.0367
  872YOPE   PO4 9914   9.823   1.351   6.813 -0.1358  0.1605  0.0315
  872YOPE   GL1 9915   9.907   1.198   7.271 -0.0400  0.0644 -0.0012
  872YOPE   GL2 9916   9.621   1.248   7.256 -0.2072  0.2263 -0.1805
  872YOPE   C1A 9917   9.870   1.276   7.736  0.0883  0.0460  0.1043
  872YOPE   D2A 9918   9.906   1.534   8.134 -0.2364  0.3227  0.3266
  872YOPE   C3A 9919  10.033   1.280   8.554  0.0180  0.1722  0.2975
  872YOPE   C4A 9920  10.032   0.800   8.663  0.2032 -0.0399  0.0139
  872YOPE   C1B 9921   9.366   1.294   7.622 -0.0566 -0.0838 -0.1070
  872YOPE   C2B 9922   9.157   1.098   7.989 -0.3053 -0.0981  0.2007
  872YOPE   D3B 9923   9.030   0.958   8.406 -0.3373 -0.3662 -0.3794
  872YOPE   C4B 9924   9.033   0.567   8.660 -0.1664  0.1825  0.3860
  873YOPE   NH3 9925  12.933   7.387   5.821 -0.5984 -0.0014 -0.0880
  873YOPE   PO4 9926  12.860   7.003   5.584  0.0958  0.2628 -0.0194
  873YOPE   GL1 9927  12.566   7.099   5.943  0.0412 -0.0070 -0.3121
  873YOPE   GL2 9928  12.688   6.844   6.053  0.0084  0.1968 -0.0935
  873YOPE   C1A 9929  12.271   7.254   6.316  0.3896 -0.0576 -0.3550
  873YOPE   D2A 9930  11.982   7.413   6.635  0.2464 -0.1277 -0.1810
  873YOPE   C3A 9931  11.697   7.780   6.709 -0.0566  0.0098 -0.1509
  873YOPE   C4A 9932  11.428   8.082   6.616 -0.1843  0.3601  0.0142
  873YOPE   C1B 9933  12.815   6.975   6.441 -0.1157  0.1967  0.0548
  873YOPE   C2B 9934  12.929   7.232   6.853 -0.0461  0.0606 -0.1367
  873YOPE   D3B 9935  12.917   7.520   7.170 -0.1080  0.4186 -0.0110
  873YOPE   C4B 9936  12.845   7.588   7.623 -0.0620 -0.2316 -0.1590
  874YOPE   NH3 9937   7.624  13.613   5.950  0.2791 -0.0900  0.3904
  874YOPE   PO4 9938   7.666  13.197   6.106  0.0899 -0.1291  0.3348
  874YOPE   GL1 9939   7.538  13.232   6.535  0.2735  0.5530 -0.2285
  874YOPE   GL2 9940   7.242  13.265   6.568 -0.4013  0.2936  0.0508
  874YOPE   C1A 9941   7.520  13.019   6.946 -0.0050 -0.1651  0.0144
  874YOPE   D2A 9942   7.404  12.886   7.318 -0.0798 -0.1512 -0.1671
  874YOPE   C3A 9943   7.441  12.617   7.719 -0.1011  0.0525 -0.0262
  874YOPE   C4A 9944   7.577  12.638   8.091 -0.0906  0.0263 -0.1524
  874YOPE   C1B 9945   7.192  13.411   6.951 -0.1094  0.0090  0.2037
  874YOPE   C2B 9946   7.178  13.294   7.397  0.0365  0.0275  0.1875
  874YOPE   D3B 9947   7.158  13.093   7.778 -0.0937  0.0401  0.0255
  874YOPE   C4B 9948   7.262  13.114   8.185 -0.3028  0.0337 -0.1210
  875YOPE   NH3 9949  14.861  15.276   6.589 -0.1380 -0.4064 -0.1066
  875YOPE   PO4 9950  14.476  15.145   6.743  0.0402  0.2619 -0.2404
  875YOPE   GL1 9951  14.794  14.900   6.995 -0.0738 -0.3699 -0.1277
  875YOPE   GL2 9952  15.127  14.986   7.074  0.1030 -0.1050  0.4174
  875YOPE   C1A 9953  14.818  14.798   7.517  0.1689  0.1263  0.0510
  875YOPE   D2A 9954  14.828  14.788   7.929  0.0417 -0.2263  0.1716
  875YOPE   C3A 9955  15.096  14.801   8.254 -0.3701 -0.1246  0.0556
  875YOPE   C4A 9956  15.403  14.905   8.610  0.1557  0.1865 -0.0037
  875YOPE   C1B 9957  15.169  15.442   7.327  0.1611  0.0269 -0.0917
  875YOPE   C2B 9958  15.142  15.561   7.702 -0.2393 -0.1902  0.1549
  875YOPE   D3B 9959  15.060  15.778   7.894  0.2766 -0.2496  0.0937
  875YOPE   C4B 9960  15.093  16.054   8.245  0.1330  0.0977  0.1866
  876YOPE   NH3 9961  15.601  14.137   6.658  0.0725 -0.1922 -0.1462
  876YOPE   PO4 9962  15.371  13.603   6.741 -0.2576  0.1937  0.2383
  876YOPE   GL1 9963  15.408  13.665   7.038  0.0739 -0.4713 -0.0176
  876YOPE   GL2 9964  15.579  13.487   7.234  0.1472  0.2416 -0.0994
  876YOPE   C1A 9965  15.467  13.929   7.528 -0.1193  0.2777  0.4382
  876YOPE   D2A 9966  15.395  14.022   7.828 -0.1368  0.0801  0.0086
  876YOPE   C3A 9967  15.376  14.220   8.238  0.1181 -0.0425  0.0109
  876YOPE   C4A 9968  15.189  14.415   8.542 -0.0350 -0.0759 -0.1189
  876YOPE   C1B 9969  15.586  13.543   7.751 -0.1818 -0.0810  0.0906
  876YOPE   C2B 9970  15.512  13.718   8.218 -0.0886 -0.0988  0.1663
  876YOPE   D3B 9971  15.353  13.566   8.577  0.4497  0.0154 -0.0614
  876YOPE   C4B 9972  15.193  13.583   8.992  0.2515  0.0945 -0.1465
  877YOPE   NH3 9973   5.559  17.950   6.336  0.5123  0.2068  0.1689
  877YOPE   PO4 9974   5.170  17.600   6.333  0.0401 -0.0531  0.1406
  877YOPE   GL1 9975   5.552  17.487   6.617 -0.0520  0.0902 -0.1796
  877YOPE   GL2 9976   5.860  17.639   6.786  0.1811 -0.0722 -0.2797
  877YOPE   C1A 9977   5.361  17.344   7.002  0.4071 -0.0850 -0.2299
  877YOPE   D2A 9978   5.366  17.146   7.357  0.4099  0.2598  0.0784
  877YOPE   C3A 9979   5.164  17.121   7.768 -0.0158 -0.2077 -0.0955
  877YOPE   C4A 9980   5.211  16.808   8.083 -0.1927 -0.3957 -0.3402
  877YOPE   C1B 9981   5.434  17.851   6.918  0.2857  0.1578 -0.3008
  877YOPE   C2B 9982   5.242  18.213   7.157 -0.1028  0.2863 -0.2247
  877YOPE   D3B 9983   4.833  18.166   7.323  0.1040  0.3278  0.1071
  877YOPE   C4B 9984   4.590  18.196   7.627 -0.1401 -0.1191  0.1942
  878YOPE   NH3 9985   9.731   6.720   5.877 -0.1936 -0.2137  0.0421
  878YOPE   PO4 9986   9.302   6.698   6.200 -0.1804  0.2406 -0.0362
  878YOPE   GL1 9987   9.040   6.465   6.480  0.1752 -0.1542  0.0833
  878YOPE   GL2 9988   9.010   6.079   6.385  0.1664  0.1951  0.2898
  878YOPE   C1A 9989   8.990   6.279   6.872 -0.1901  0.0728 -0.0569
  878YOPE   D2A 9990   9.023   6.207   7.402 -0.0716 -0.0124 -0.2956
  878YOPE   C3A 9991   9.221   6.184   7.709 -0.3108 -0.1102 -0.0754
  878YOPE   C4A 9992   9.362   6.231   8.084  0.0920 -0.0400  0.1325
  878YOPE   C1B 9993   8.577   6.101   6.682  0.0226  0.2320  0.3345
  878YOPE   C2B 9994   8.564   6.086   7.167 -0.1849 -0.1173  0.2324
  878YOPE   D3B 9995   8.615   5.906   7.519  0.0516 -0.1775 -0.1695
  878YOPE   C4B 9996   9.015   5.762   7.792  0.0331  0.1798  0.0130
  879YOPE   NH3 9997   4.362   2.161   6.514 -0.3374 -0.3642 -0.4112
  879YOPE   PO4 9998   4.725   2.276   6.265 -0.0197 -0.1912  0.0185
  879YOPE   GL1 9999   4.831   2.289   6.708 -0.2683  0.0021 -0.0582
  879YOPE   GL210000   5.062   2.138   6.878 -0.1332  0.1529 -0.0904
  879YOPE   C1A10001   4.725   2.414   7.112  0.0160  0.2976 -0.0180
  879YOPE   D2A10002   4.424   2.324   7.399 -0.0096  0.0544 -0.1134
  879YOPE   C3A10003   4.670   2.372   7.840  0.3036  0.2018  0.1026
  879YOPE   C4A10004   4.519   2.309   8.231  0.0678 -0.2236  0.0593
  879YOPE   C1B10005   5.187   2.321   7.225  0.2944  0.3615 -0.1258
  879YOPE   C2B10006   5.297   2.359   7.643 -0.2737  0.2962 -0.3997
  879YOPE   D3B10007   5.120   2.308   8.081  0.1389 -0.3793 -0.1151
  879YOPE   C4B10008   5.019   2.395   8.458 -0.1356 -0.0705  0.0099
  880YOPE   NH310009  10.481   7.411   5.845  0.3049 -0.0040  0.2024
  880YOPE   PO410010  10.763   7.591   5.989 -0.0865  0.0884 -0.0651
  880YOPE   GL110011  10.598   7.581   6.424  0.1834  0.1811 -0.1611
  880YOPE   GL210012  10.304   7.741   6.402 -0.1481 -0.0025  0.1701
  880YOPE   C1A10013  10.467   7.588   6.862 -0.0018  0.0856 -0.0073
  880YOPE   D2A10014  10.615   7.247   7.150 -0.0926 -0.1153 -0.0393
  880YOPE   C3A10015  10.926   7.130   7.625 -0.4079  0.2286 -0.0329
  880YOPE   C4A10016  11.225   7.295   8.023 -0.3964 -0.0076  0.3107
  880YOPE   C1B10017  10.434   8.053   6.692 -0.3222 -0.3020 -0.0868
  880YOPE   C2B10018  10.599   8.090   6.986 -0.0366 -0.0813 -0.0399
  880YOPE   D3B10019  10.830   8.151   7.396  0.0960 -0.0844  0.2417
  880YOPE   C4B10020  11.145   8.228   7.686  0.1677 -0.1038  0.0100
  881YOPE   NH310021   8.053   7.861   6.549  0.0579 -0.1218 -0.0531
  881YOPE   PO410022   8.352   7.742   6.263 -0.0016  0.1503 -0.1109
  881YOPE   GL110023   8.518   7.833   6.697  0.0419 -0.1212 -0.0321
  881YOPE   GL210024   8.422   8.140   6.756  0.2778 -0.1126 -0.0455
  881YOPE   C1A10025   8.562   7.832   7.196 -0.1465 -0.1091  0.0464
  881YOPE   D2A10026   8.459   7.781   7.518 -0.2462  0.0070 -0.2277
  881YOPE   C3A10027   8.466   7.930   7.858 -0.1886  0.0545 -0.1225
  881YOPE   C4A10028   8.543   8.111   8.237 -0.1629 -0.0410  0.0474
  881YOPE   C1B10029   8.498   8.331   7.086  0.4932  0.0884 -0.1754
  881YOPE   C2B10030   8.338   8.409   7.474  0.0267  0.2230  0.2209
  881YOPE   D3B10031   8.397   8.493   7.804 -0.0813  0.0988 -0.0406
  881YOPE   C4B10032   8.263   8.532   8.247  0.1504 -0.2614  0.2348
  882YOPE   NH310033   9.237   3.453   6.667 -0.1055 -0.1788 -0.2244
  882YOPE   PO410034   9.644   3.505   6.764  0.0107  0.2003 -0.2420
  882YOPE   GL110035   9.563   3.588   7.090  0.1084  0.0461 -0.1772
  882YOPE   GL210036   9.711   3.485   7.321  0.1016  0.0210  0.1427
  882YOPE   C1A10037   9.384   3.819   7.451 -0.1174  0.0609 -0.1376
  882YOPE   D2A10038   9.433   3.785   7.934 -0.1525  0.2550  0.1427
  882YOPE   C3A10039   9.197   3.968   8.243  0.0787 -0.0462 -0.1111
  882YOPE   C4A10040   8.952   4.322   8.321 -0.1383 -0.1789 -0.0498
  882YOPE   C1B10041   9.774   3.418   7.749 -0.2241  0.0901  0.0251
  882YOPE   C2B10042   9.911   3.295   8.220 -0.1129 -0.0763  0.1531
  882YOPE   D3B10043   9.935   3.036   8.468  0.3615 -0.2498  0.2623
  882YOPE   C4B10044   9.868   2.890   8.885  0.0281 -0.0531  0.0060
  883YOPE   NH310045  11.324  17.647   6.675  0.3465  0.2616 -0.0914
  883YOPE   PO410046  11.129  17.266   6.676  0.0551 -0.2329 -0.0049
  883YOPE   GL110047  10.926  17.280   6.971 -0.0001  0.0512 -0.0852
  883YOPE   GL210048  10.767  16.993   7.009  0.2852 -0.1057  0.0108
  883YOPE   C1A10049  11.033  17.227   7.362 -0.0432 -0.0816 -0.1445
  883YOPE   D2A10050  11.026  17.209   7.866  0.0896 -0.0456 -0.1704
  883YOPE   C3A10051  10.708  16.997   8.096 -0.2998 -0.0084  0.0520
  883YOPE   C4A10052  10.334  16.861   8.246 -0.0227  0.1563 -0.0620
  883YOPE   C1B10053  10.365  16.864   7.236 -0.1523  0.2081 -0.1696
  883YOPE   C2B10054   9.907  16.946   7.405 -0.1817 -0.1346 -0.0506
  883YOPE   D3B10055   9.473  17.011   7.475  0.0875 -0.0528  0.0261
  883YOPE   C4B10056   9.211  17.161   7.737 -0.1807  0.0067 -0.2939
  884YOPE   NH310057  14.975  12.046   6.146  0.0990  0.1236 -0.1973
  884YOPE   PO410058  15.400  12.213   6.384  0.4899 -0.1238  0.0452
  884YOPE   GL110059  15.432  12.209   6.780 -0.0010  0.1080 -0.1521
  884YOPE   GL210060  15.716  11.971   6.887 -0.2266  0.2685 -0.2127
  884YOPE   C1A10061  15.382  12.161   7.179 -0.0157  0.0800 -0.2540
  884YOPE   D2A10062  15.524  12.125   7.644  0.0844 -0.1400  0.0326
  884YOPE   C3A10063  15.278  12.017   7.863 -0.0854  0.0357  0.1778
  884YOPE   C4A10064  14.895  11.891   8.123  0.5126  0.3225 -0.2190
  884YOPE   C1B10065  15.581  11.637   7.183 -0.0598 -0.0062 -0.0550
  884YOPE   C2B10066  15.483  11.383   7.491  0.0498  0.0594 -0.1363
  884YOPE   D3B10067  15.422  11.498   8.044 -0.3572  0.1487 -0.1110
  884YOPE   C4B10068  15.194  11.473   8.452  0.0514 -0.0743 -0.0777
  885YOPE   NH310069   0.278  12.305   6.347  0.2124 -0.2270  0.1059
  885YOPE   PO410070  -0.007  12.074   6.570 -0.0707  0.1502  0.1384
  885YOPE   GL110071  -0.071  12.006   6.885  0.0102 -0.1501  0.2163
  885YOPE   GL210072  -0.361  11.816   6.911 -0.1022 -0.2049  0.2971
  885YOPE   C1A10073  -0.111  12.164   7.333 -0.0829 -0.0281  0.1505
  885YOPE   D2A10074  -0.072  12.039   7.729 -0.1242 -0.1711  0.4118
  885YOPE   C3A10075  -0.214  11.658   7.942 -0.2334 -0.0020  0.2221
  885YOPE   C4A10076  -0.131  11.281   8.192  0.2591  0.0413  0.1733
  885YOPE   C1B10077  -0.161  11.714   7.380 -0.0440  0.2136 -0.0816
  885YOPE   C2B10078   0.143  11.584   7.588 -0.0400 -0.0944  0.1893
  885YOPE   D3B10079   0.291  11.421   7.929  0.0640  0.2101  0.0639
  885YOPE   C4B10080   0.238  11.664   8.257 -0.1118 -0.0468 -0.1260
  886YOPE   NH310081  17.050   1.035   6.057 -0.1915  0.2092 -0.0540
  886YOPE   PO410082  16.752   1.430   6.069 -0.0963  0.2332 -0.0624
  886YOPE   GL110083  16.675   1.550   6.448 -0.0437  0.2545  0.0037
  886YOPE   GL210084  16.304   1.409   6.392 -0.4117  0.1760  0.3011
  886YOPE   C1A10085  16.880   1.489   6.746  0.2425 -0.0245 -0.1379
  886YOPE   D2A10086  16.982   1.486   7.109  0.1043  0.1746  0.0926
  886YOPE   C3A10087  17.219   1.638   7.479 -0.1094  0.1752 -0.2449
  886YOPE   C4A10088  17.618   1.534   7.520  0.0387  0.1794  0.2551
  886YOPE   C1B10089  16.458   1.156   6.707 -0.1495  0.1914  0.2437
  886YOPE   C2B10090  16.456   1.259   7.048 -0.0846  0.1128  0.1245
  886YOPE   D3B10091  16.585   1.294   7.420 -0.1526 -0.2232  0.2222
  886YOPE   C4B10092  16.792   1.310   7.703 -0.0182  0.1450  0.1823
  887YOPE   NH310093  10.743   1.137   6.791  0.1400 -0.3300 -0.0734
  887YOPE   PO410094  10.690   1.551   6.762 -0.2656 -0.1050  0.0231
  887YOPE   GL110095  10.431   1.826   7.166  0.3300  0.1313  0.0121
  887YOPE   GL210096  10.110   1.658   7.238  0.0024 -0.2053  0.1665
  887YOPE   C1A10097  10.362   2.137   7.478 -0.2977  0.3157  0.2517
  887YOPE   D2A10098  10.415   2.308   7.831  0.0106 -0.2415  0.1898
  887YOPE   C3A10099  10.040   2.654   7.901  0.0989 -0.1507  0.3993
  887YOPE   C4A10100   9.742   2.956   7.898  0.2201 -0.1866  0.2125
  887YOPE   C1B10101  10.135   1.778   7.670  0.0073  0.0100  0.3526
  887YOPE   C2B10102  10.237   1.870   8.069 -0.2776 -0.1906 -0.3141
  887YOPE   D3B10103  10.212   2.212   8.337  0.2944  0.4217  0.1560
  887YOPE   C4B10104  10.149   2.557   8.462 -0.1758  0.1338 -0.0609
  888YOPE   NH310105   8.534   8.222   6.244  0.1945 -0.1026  0.0488
  888YOPE   PO410106   8.878   8.517   6.298 -0.0035 -0.1136  0.0213
  888YOPE   GL110107   9.021   8.456   6.719 -0.0059  0.0208 -0.0053
  888YOPE   GL210108   8.944   8.156   7.023  0.1199 -0.1628 -0.0770
  888YOPE   C1A10109   9.263   8.690   6.967 -0.2178 -0.3145 -0.2226
  888YOPE   D2A10110   9.237   8.822   7.291 -0.0982  0.0080  0.1376
  888YOPE   C3A10111   9.198   8.541   7.555 -0.1025 -0.1603  0.0229
  888YOPE   C4A10112   9.223   8.755   7.972 -0.3751  0.1383 -0.1302
  888YOPE   C1B10113   8.776   8.173   7.499 -0.3795  0.2325  0.0598
  888YOPE   C2B10114   8.915   8.347   7.915  0.1953 -0.1089 -0.1177
  888YOPE   D3B10115   8.749   8.539   8.251 -0.0337 -0.3281 -0.1371
  888YOPE   C4B10116   8.604   8.821   8.521 -0.0048 -0.3274 -0.0135
  889YOPE   NH310117   8.337  10.703   6.151 -0.1388 -0.1167  0.1460
  889YOPE   PO410118   8.307  11.018   6.379  0.1596 -0.0371 -0.2266
  889YOPE   GL110119   8.288  11.108   6.833 -0.1770 -0.3173  0.0587
  889YOPE   GL210120   8.273  11.401   6.746 -0.1255 -0.2200  0.1177
  889YOPE   C1A10121   8.086  11.103   7.205 -0.1531  0.1095  0.3034
  889YOPE   D2A10122   7.845  11.096   7.584 -0.0683 -0.1606 -0.0851
  889YOPE   C3A10123   7.725  10.829   7.963  0.1232 -0.1029  0.1988
  889YOPE   C4A10124   7.657  10.844   8.363 -0.0718 -0.0239  0.0126
  889YOPE   C1B10125   8.284  11.526   7.211 -0.0843  0.0703 -0.2197
  889YOPE   C2B10126   8.232  11.397   7.754 -0.0493 -0.2653 -0.0540
  889YOPE   D3B10127   8.208  10.905   7.987 -0.1137  0.0674  0.1233
  889YOPE   C4B10128   8.306  10.653   8.252 -0.1221 -0.0691 -0.2625
  890YOPE   NH310129  14.925   1.292   6.036  0.1274  0.3739 -0.1024
  890YOPE   PO410130  15.098   0.999   6.176  0.1874  0.1988 -0.2676
  890YOPE   GL110131  15.170   0.845   6.498 -0.0581 -0.3612 -0.1746
  890YOPE   GL210132  15.475   0.699   6.439 -0.0288 -0.0586  0.4587
  890YOPE   C1A10133  15.088   0.927   6.904 -0.1209 -0.1066  0.1920
  890YOPE   D2A10134  15.279   0.862   7.331  0.0784  0.2622  0.0298
  890YOPE   C3A10135  15.432   0.882   7.729 -0.1975 -0.2359 -0.1387
  890YOPE   C4A10136  15.798   1.266   7.843 -0.2750  0.3835  0.0696
  890YOPE   C1B10137  15.666   0.600   6.933  0.1113  0.2365  0.2410
  890YOPE   C2B10138  15.966   0.580   7.264 -0.0869  0.1550 -0.2466
  890YOPE   D3B10139  15.952   0.689   7.702  0.1552 -0.2625 -0.1966
  890YOPE   C4B10140  15.983   0.334   7.984 -0.0476  0.1269  0.2598
  891YOPE   NH310141  15.658  18.265   5.824  0.0706 -0.0055 -0.1772
  891YOPE   PO410142  16.039  18.066   5.864 -0.4493  0.2137  0.0687
  891YOPE   GL110143  16.025  17.891   6.270 -0.0949  0.1011  0.0839
  891YOPE   GL210144  16.298  17.832   6.418 -0.0366  0.3090 -0.2400
  891YOPE   C1A10145  15.874  18.024   6.657  0.1430  0.1149  0.0728
  891YOPE   D2A10146  15.925  17.958   7.058  0.0895 -0.2073  0.3958
  891YOPE   C3A10147  15.711  18.139   7.297  0.0668  0.0208  0.0959
  891YOPE   C4A10148  15.501  18.049   7.769  0.0993 -0.2473  0.2250
  891YOPE   C1B10149  16.341  17.747   6.817  0.0430 -0.0603 -0.3350
  891YOPE   C2B10150  16.437  17.865   7.231 -0.0639 -0.2592  0.0723
  891YOPE   D3B10151  16.490  17.926   7.715  0.0903 -0.2429  0.0665
  891YOPE   C4B10152  16.267  18.062   8.142 -0.0918 -0.2904  0.0172
  892YOPE   NH310153   2.477   9.598   6.352  0.1119 -0.0475  0.0786
  892YOPE   PO410154   2.883   9.437   6.379  0.0687  0.0241 -0.1804
  892YOPE   GL110155   2.759   9.279   6.740  0.0727 -0.2142  0.0247
  892YOPE   GL210156   2.777   9.083   6.784  0.3050 -0.0459 -0.1619
  892YOPE   C1A10157   2.983   9.352   7.166  0.0409 -0.1123  0.0933
  892YOPE   D2A10158   3.061   9.130   7.580  0.2874 -0.1469 -0.3199
  892YOPE   C3A10159   3.166   9.001   7.930 -0.3609  0.1069  0.0457
  892YOPE   C4A10160   3.073   8.921   8.372  0.0064 -0.0312  0.0030
  892YOPE   C1B10161   3.054   8.858   7.113 -0.0273 -0.2137  0.0531
  892YOPE   C2B10162   3.479   8.648   7.436  0.0510  0.1257 -0.4839
  892YOPE   D3B10163   3.437   8.586   7.860 -0.1033  0.1270 -0.3434
  892YOPE   C4B10164   3.635   8.754   8.139  0.0304 -0.1720 -0.1280
  893YOPE   NH310165  14.962   8.224   5.702 -0.0817 -0.2096  0.2709
  893YOPE   PO410166  14.722   7.929   5.940  0.0551  0.0016  0.2056
  893YOPE   GL110167  14.583   7.872   6.377 -0.0677  0.0084  0.2831
  893YOPE   GL210168  14.659   8.165   6.384  0.2858  0.1156  0.0613
  893YOPE   C1A10169  14.835   7.803   6.798 -0.2365  0.1281 -0.0665
  893YOPE   D2A10170  14.916   7.917   7.179 -0.1133  0.3931 -0.0792
  893YOPE   C3A10171  14.782   7.744   7.498 -0.2761 -0.3069 -0.2159
  893YOPE   C4A10172  14.784   7.593   7.945  0.0309  0.1070  0.1139
  893YOPE   C1B10173  14.398   8.465   6.425  0.2625  0.0291 -0.0978
  893YOPE   C2B10174  14.603   8.803   6.607  0.0323 -0.1737  0.0555
  893YOPE   D3B10175  14.493   9.205   6.763 -0.1052  0.1147 -0.0274
  893YOPE   C4B10176  14.502   9.522   7.089  0.0480  0.0282  0.1328
  894YOPE   NH310177   2.572  14.784   6.420  0.0002  0.3810 -0.1358
  894YOPE   PO410178   2.823  15.161   6.344  0.1125  0.0677  0.0887
  894YOPE   GL110179   2.970  15.118   6.707 -0.0794 -0.0715  0.2158
  894YOPE   GL210180   3.004  14.830   6.746 -0.3234 -0.2247 -0.2505
  894YOPE   C1A10181   3.284  15.238   6.955 -0.1800  0.0734 -0.0625
  894YOPE   D2A10182   3.381  15.317   7.331 -0.0870  0.1653  0.1722
  894YOPE   C3A10183   3.400  15.307   7.746  0.0203  0.0864 -0.0849
  894YOPE   C4A10184   3.284  15.302   8.158 -0.1067 -0.0788 -0.1392
  894YOPE   C1B10185   3.049  14.479   6.997 -0.0723  0.1575  0.0230
  894YOPE   C2B10186   2.997  14.450   7.350 -0.2537 -0.0640  0.1485
  894YOPE   D3B10187   2.768  14.697   7.658  0.0268 -0.2249 -0.0226
  894YOPE   C4B10188   2.914  14.913   8.020 -0.0843 -0.1620 -0.0494
  895YOPE   NH310189  18.186  17.067   6.018  0.3994 -0.2530  0.3101
  895YOPE   PO410190  18.246  16.924   6.512 -0.1468 -0.1702  0.1455
  895YOPE   GL110191  17.920  16.960   6.852 -0.0536 -0.0687  0.3041
  895YOPE   GL210192  17.753  17.219   6.980 -0.0217 -0.1435 -0.0871
  895YOPE   C1A10193  17.792  16.749   7.217  0.3459  0.2008 -0.4713
  895YOPE   D2A10194  17.584  16.886   7.511 -0.0595 -0.2874  0.0897
  895YOPE   C3A10195  17.537  17.307   7.799  0.1543  0.2605  0.3677
  895YOPE   C4A10196  17.501  17.451   8.176  0.2413 -0.0542 -0.0680
  895YOPE   C1B10197  17.773  17.361   7.307  0.0345 -0.0632  0.0525
  895YOPE   C2B10198  17.940  17.522   7.588  0.0943 -0.3113  0.0043
  895YOPE   D3B10199  18.069  17.467   8.022 -0.0678  0.0889  0.1155
  895YOPE   C4B10200  18.410  17.463   8.113 -0.1964  0.0907  0.1639
  896YOPE   NH310201   7.637   7.626   6.251 -0.4171 -0.2044  0.0539
  896YOPE   PO410202   7.570   8.000   6.362  0.5722 -0.2502  0.1329
  896YOPE   GL110203   7.648   8.263   6.631 -0.3214 -0.0092 -0.1477
  896YOPE   GL210204   7.920   8.282   6.748 -0.1616 -0.3713 -0.1746
  896YOPE   C1A10205   7.518   8.140   7.126  0.1242  0.3508  0.4687
  896YOPE   D2A10206   7.348   7.955   7.584 -0.1510  0.0268  0.1134
  896YOPE   C3A10207   7.153   7.889   7.948 -0.3236 -0.0536 -0.0489
  896YOPE   C4A10208   6.759   8.026   8.043 -0.2668  0.2834  0.0569
  896YOPE   C1B10209   7.872   8.489   7.202  0.0387  0.1442  0.0557
  896YOPE   C2B10210   7.829   8.611   7.686 -0.1026  0.3489  0.2859
  896YOPE   D3B10211   7.759   8.508   8.067  0.1036 -0.0688  0.0772
  896YOPE   C4B10212   7.543   8.853   8.194 -0.1762  0.4144  0.0228
  897YOPE   NH310213   2.575   5.841   5.975  0.0828 -0.1591  0.0117
  897YOPE   PO410214   2.767   6.303   6.103 -0.0182 -0.3843 -0.0459
  897YOPE   GL110215   2.539   6.536   6.283 -0.4517 -0.1378 -0.0099
  897YOPE   GL210216   2.728   6.840   6.268  0.0411  0.0709 -0.2332
  897YOPE   C1A10217   2.477   6.579   6.725 -0.0372  0.1521 -0.1728
  897YOPE   D2A10218   2.556   6.469   7.171 -0.1366 -0.0706 -0.0827
  897YOPE   C3A10219   2.179   6.470   7.350 -0.0746 -0.2214 -0.1511
  897YOPE   C4A10220   1.982   6.357   7.704 -0.3731 -0.1190 -0.3447
  897YOPE   C1B10221   2.757   6.995   6.696  0.3198 -0.2367  0.1160
  897YOPE   C2B10222   2.935   6.913   6.938 -0.0446 -0.1434 -0.0376
  897YOPE   D3B10223   2.964   6.838   7.315  0.2201  0.0795 -0.0392
  897YOPE   C4B10224   3.178   6.985   7.679  0.1754  0.0943 -0.2134
  898YOPE   NH310225  16.918  13.088   6.629 -0.2145 -0.2124  0.1641
  898YOPE   PO410226  17.035  13.539   6.523  0.0926  0.1044 -0.1619
  898YOPE   GL110227  16.878  13.502   6.925 -0.0958 -0.2048 -0.3012
  898YOPE   GL210228  16.706  13.284   7.076 -0.2918 -0.0998 -0.1002
  898YOPE   C1A10229  16.895  13.640   7.333 -0.2105 -0.2735 -0.0446
  898YOPE   D2A10230  16.777  13.766   7.700  0.0050  0.3215 -0.0674
  898YOPE   C3A10231  16.556  13.684   8.085 -0.0741 -0.1444 -0.0771
  898YOPE   C4A10232  16.616  13.622   8.418 -0.1438 -0.2985  0.2735
  898YOPE   C1B10233  16.854  13.077   7.390 -0.0300 -0.0017 -0.0262
  898YOPE   C2B10234  16.925  12.882   7.809 -0.1100  0.0783  0.3111
  898YOPE   D3B10235  17.003  12.909   8.235 -0.1341  0.2428 -0.0194
  898YOPE   C4B10236  17.349  13.051   8.466 -0.0474 -0.0339 -0.0566
  899YOPE   NH310237  12.676  14.369   6.731  0.2014 -0.2283  0.0486
  899YOPE   PO410238  12.545  13.930   6.967  0.0023 -0.2451 -0.1234
  899YOPE   GL110239  12.477  13.729   7.332  0.1823 -0.0905  0.1036
  899YOPE   GL210240  12.357  13.967   7.527 -0.2051 -0.1825 -0.3510
  899YOPE   C1A10241  12.662  13.501   7.731 -0.0824  0.0666 -0.0201
  899YOPE   D2A10242  12.604  13.347   8.079 -0.3910 -0.0827  0.4106
  899YOPE   C3A10243  12.466  13.617   8.324 -0.0025  0.0345  0.2011
  899YOPE   C4A10244  12.238  13.930   8.079 -0.0818 -0.0529 -0.2748
  899YOPE   C1B10245  12.671  14.034   7.867 -0.0737  0.2778 -0.0365
  899YOPE   C2B10246  12.654  14.133   8.294 -0.2289 -0.3188  0.2923
  899YOPE   D3B10247  13.071  14.171   8.503 -0.3751  0.1542  0.0215
  899YOPE   C4B10248  13.347  13.878   8.547  0.0621 -0.3416 -0.4138
  900YOPE   NH310249   5.200   8.900   6.048 -0.0962  0.0534 -0.0100
  900YOPE   PO410250   4.878   8.546   5.876  0.0439  0.2147 -0.0086
  900YOPE   GL110251   4.609   8.626   6.177 -0.0108 -0.0486  0.1212
  900YOPE   GL210252   4.838   8.704   6.359 -0.2361  0.1613 -0.2347
  900YOPE   C1A10253   4.309   8.667   6.510  0.1389 -0.0896  0.1082
  900YOPE   D2A10254   4.282   8.658   7.005  0.1653 -0.2167 -0.0262
  900YOPE   C3A10255   4.315   8.305   7.371  0.1987 -0.0824  0.0723
  900YOPE   C4A10256   4.356   7.812   7.347  0.2499 -0.1355  0.0719
  900YOPE   C1B10257   4.784   8.870   6.751 -0.0166  0.1008 -0.1678
  900YOPE   C2B10258   4.975   9.066   7.132  0.0998 -0.1311  0.0654
  900YOPE   D3B10259   4.927   9.038   7.591 -0.0555  0.1674 -0.0336
  900YOPE   C4B10260   4.856   8.857   8.004  0.0044 -0.1766 -0.0101
  901YOPE   NH310261   1.405  13.178   6.476 -0.0981 -0.1469 -0.0151
  901YOPE   PO410262   1.449  12.754   6.651 -0.2875  0.1821  0.0100
  901YOPE   GL110263   1.516  12.886   7.046 -0.0976 -0.0998  0.3559
  901YOPE   GL210264   1.790  13.046   7.119  0.0273 -0.1966  0.0676
  901YOPE   C1A10265   1.542  12.800   7.493  0.1925 -0.2235 -0.2029
  901YOPE   D2A10266   1.611  12.782   7.954 -0.1655 -0.2967 -0.0457
  901YOPE   C3A10267   1.857  12.435   8.077 -0.2420  0.0625  0.2601
  901YOPE   C4A10268   1.962  12.143   8.068  0.5062  0.0773 -0.0687
  901YOPE   C1B10269   1.983  12.595   7.207  0.3664 -0.1668 -0.0334
  901YOPE   C2B10270   2.054  12.366   7.567  0.0509 -0.1761  0.0502
  901YOPE   D3B10271   2.227  11.927   7.665  0.3210 -0.0183  0.1666
  901YOPE   C4B10272   2.500  11.644   7.759  0.0104 -0.0902 -0.1614
  902YOPE   NH310273   0.347  11.640   6.466  0.1351  0.1047  0.1677
  902YOPE   PO410274   0.743  11.458   6.496 -0.2666 -0.3007  0.2638
  902YOPE   GL110275   0.663  11.680   6.896  0.2357 -0.0348  0.0542
  902YOPE   GL210276   0.460  11.862   6.960  0.1500 -0.5698  0.0035
  902YOPE   C1A10277   0.898  11.812   7.318  0.1332 -0.1869 -0.0001
  902YOPE   D2A10278   0.746  11.532   7.686  0.2268 -0.0621  0.0052
  902YOPE   C3A10279   0.683  11.667   8.082 -0.4770 -0.3074 -0.1890
  902YOPE   C4A10280   0.743  11.778   8.508  0.0714 -0.3272 -0.1223
  902YOPE   C1B10281   0.322  11.917   7.256 -0.2143 -0.0704  0.2597
  902YOPE   C2B10282   0.497  12.004   7.645  0.1580  0.3571  0.1122
  902YOPE   D3B10283   0.301  12.081   8.005 -0.0284 -0.2365 -0.0402
  902YOPE   C4B10284   0.399  12.167   8.428  0.1098 -0.0914  0.0259
  903YOPE   NH310285  15.967   4.535   5.620  0.3912  0.1643 -0.0687
  903YOPE   PO410286  16.482   4.588   5.504  0.0159 -0.0486  0.0995
  903YOPE   GL110287  16.398   4.664   5.891  0.1464 -0.1331  0.2093
  903YOPE   GL210288  16.227   4.548   6.198 -0.0586 -0.0745 -0.1013
  903YOPE   C1A10289  16.439   5.078   6.075  0.2486 -0.0860  0.1199
  903YOPE   D2A10290  16.199   5.421   6.373  0.2480 -0.0750  0.2318
  903YOPE   C3A10291  16.060   5.497   6.849 -0.0996 -0.1296  0.3137
  903YOPE   C4A10292  15.879   5.579   7.288  0.0435 -0.5039 -0.1721
  903YOPE   C1B10293  16.328   4.420   6.586 -0.0230  0.1746  0.1079
  903YOPE   C2B10294  16.392   4.421   7.051 -0.2318 -0.2077 -0.0941
  903YOPE   D3B10295  16.397   4.388   7.502  0.1522  0.0112 -0.0258
  903YOPE   C4B10296  16.227   4.411   7.853  0.0010  0.2259 -0.0881
  904YOPE   NH310297   4.285   6.261   6.057  0.3490  0.3065 -0.0768
  904YOPE   PO410298   4.083   6.653   5.887 -0.1486  0.1103 -0.0619
  904YOPE   GL110299   4.037   6.606   6.344 -0.0195  0.1222 -0.3098
  904YOPE   GL210300   4.108   6.923   6.321  0.3110  0.0187  0.1221
  904YOPE   C1A10301   3.950   6.643   6.823  0.1644  0.1554  0.1722
  904YOPE   D2A10302   4.104   6.469   7.127 -0.2062  0.0373  0.0212
  904YOPE   C3A10303   3.926   6.571   7.486 -0.0614 -0.2522 -0.2526
  904YOPE   C4A10304   3.695   6.973   7.663  0.0456 -0.0892 -0.0115
  904YOPE   C1B10305   4.110   7.101   6.819 -0.2729  0.1172  0.1932
  904YOPE   C2B10306   4.099   6.928   7.191  0.1231  0.2656 -0.1922
  904YOPE   D3B10307   4.217   6.987   7.613 -0.2256 -0.2804  0.2714
  904YOPE   C4B10308   4.348   6.700   7.903 -0.2007  0.1916  0.1182
  905YOPE   NH310309   0.208  13.344   6.758  0.0604  0.2613 -0.2118
  905YOPE   PO410310   0.181  12.855   6.567  0.4088  0.1148  0.0874
  905YOPE   GL110311   0.206  12.886   6.958 -0.1513 -0.0654  0.4122
  905YOPE   GL210312   0.515  12.961   7.010 -0.1222 -0.1672  0.1861
  905YOPE   C1A10313   0.151  13.091   7.367  0.0101  0.0907 -0.2203
  905YOPE   D2A10314  -0.065  12.942   7.733  0.0798  0.1470  0.0499
  905YOPE   C3A10315  -0.115  12.903   8.202 -0.0015  0.1450  0.0044
  905YOPE   C4A10316  -0.131  12.908   8.688  0.1757 -0.1439  0.0697
  905YOPE   C1B10317   0.615  12.949   7.422  0.2584  0.1313  0.1795
  905YOPE   C2B10318   0.623  12.916   7.860 -0.1876  0.0462 -0.1693
  905YOPE   D3B10319   0.675  13.048   8.215 -0.0646  0.0957 -0.0753
  905YOPE   C4B10320   0.837  13.076   8.630 -0.0671 -0.0702 -0.4745
  906YOPE   NH310321  13.810  12.292   5.871  0.2184 -0.1117  0.1990
  906YOPE   PO410322  13.677  12.606   6.158 -0.0069 -0.1786  0.2089
  906YOPE   GL110323  13.716  12.574   6.633 -0.0657 -0.1736 -0.0662
  906YOPE   GL210324  14.021  12.537   6.800 -0.1325  0.1530  0.0818
  906YOPE   C1A10325  13.714  12.164   6.880  0.0592  0.2529  0.1783
  906YOPE   D2A10326  13.925  11.886   7.217 -0.2462 -0.2538  0.0594
  906YOPE   C3A10327  14.106  11.794   7.704 -0.3657  0.0290  0.0839
  906YOPE   C4A10328  14.404  12.023   8.006  0.3054  0.1147  0.0784
  906YOPE   C1B10329  13.865  12.432   7.282  0.0642 -0.1013  0.4072
  906YOPE   C2B10330  13.664  12.095   7.558 -0.0293 -0.0402  0.0055
  906YOPE   D3B10331  13.638  11.760   7.938 -0.0939  0.0791  0.2469
  906YOPE   C4B10332  13.958  11.564   8.194 -0.1668 -0.0525  0.0766
  907YOPE   NH310333  18.197   2.517   5.626  0.3945 -0.2064  0.0002
  907YOPE   PO410334  18.296   2.535   5.978  0.3928  0.2476 -0.3039
  907YOPE   GL110335  17.977   2.431   6.245 -0.3939 -0.0442  0.0845
  907YOPE   GL210336  17.730   2.443   6.149 -0.0642 -0.2031  0.0229
  907YOPE   C1A10337  18.038   2.078   6.640 -0.0734  0.1260  0.1764
  907YOPE   D2A10338  17.998   1.806   6.902 -0.0920  0.0486  0.0353
  907YOPE   C3A10339  17.958   1.963   7.359  0.1887 -0.0573  0.0232
  907YOPE   C4A10340  18.097   1.909   7.728  0.2242 -0.1050 -0.1773
  907YOPE   C1B10341  17.480   2.278   6.579  0.0937 -0.0061 -0.3857
  907YOPE   C2B10342  17.252   2.443   6.957 -0.1549 -0.0064  0.1441
  907YOPE   D3B10343  17.190   2.598   7.289  0.0153 -0.1627  0.0615
  907YOPE   C4B10344  17.245   2.917   7.411 -0.0493 -0.2371  0.0511
  908YOPE   NH310345  11.177   3.106   6.774  0.2219  0.3020 -0.2031
  908YOPE   PO410346  11.584   3.255   6.636  0.1772  0.2508 -0.2667
  908YOPE   GL110347  11.771   3.319   7.005  0.0356  0.1805 -0.2545
  908YOPE   GL210348  12.095   3.282   6.988  0.2012  0.2480 -0.1233
  908YOPE   C1A10349  11.899   3.327   7.543  0.2342 -0.0479  0.0906
  908YOPE   D2A10350  12.022   3.390   7.944  0.1397 -0.2923 -0.2235
  908YOPE   C3A10351  12.187   3.056   8.170  0.0726 -0.0349  0.1197
  908YOPE   C4A10352  12.256   2.920   8.581  0.0430  0.2062  0.0497
  908YOPE   C1B10353  12.322   3.206   7.253 -0.2749  0.0063  0.1681
  908YOPE   C2B10354  12.449   3.289   7.691  0.2351 -0.1369  0.2530
  908YOPE   D3B10355  12.752   3.102   7.958 -0.0278  0.0551 -0.2247
  908YOPE   C4B10356  13.060   3.002   8.177  0.4267  0.1201  0.1192
  909YOPE   NH310357   7.252  16.560   6.273 -0.3717 -0.0748  0.1033
  909YOPE   PO410358   7.488  16.144   6.423 -0.0683  0.1388 -0.0015
  909YOPE   GL110359   7.784  16.007   6.788  0.1650 -0.1500  0.0057
  909YOPE   GL210360   7.671  15.904   7.069  0.3707 -0.0312  0.3082
  909YOPE   C1A10361   8.214  16.049   7.063 -0.1524 -0.3438 -0.2497
  909YOPE   D2A10362   8.479  15.821   6.983 -0.1214 -0.0654 -0.0992
  909YOPE   C3A10363   8.615  15.412   6.957  0.1788 -0.0779  0.2095
  909YOPE   C4A10364   8.947  15.202   7.097 -0.0103 -0.3586 -0.0347
  909YOPE   C1B10365   7.835  15.871   7.351 -0.0837  0.0172  0.0386
  909YOPE   C2B10366   7.992  15.993   7.745  0.1668  0.0946 -0.1004
  909YOPE   D3B10367   8.028  16.010   8.161  0.0795 -0.0071 -0.1840
  909YOPE   C4B10368   8.432  16.044   8.279 -0.0668 -0.2664 -0.0696
  910YOPE   NH310369   7.004  13.272   6.087 -0.1241  0.0666  0.1146
  910YOPE   PO410370   7.110  12.951   6.200 -0.1594  0.4391 -0.1784
  910YOPE   GL110371   6.800  12.745   6.523 -0.2877  0.0409 -0.0281
  910YOPE   GL210372   6.821  12.972   6.702 -0.0239 -0.1306 -0.1311
  910YOPE   C1A10373   6.802  12.403   6.666  0.3760  0.1167  0.3861
  910YOPE   D2A10374   7.187  12.069   6.607 -0.2749  0.1620  0.0034
  910YOPE   C3A10375   7.530  11.972   6.954  0.2179 -0.0925  0.0422
  910YOPE   C4A10376   7.406  11.861   7.369  0.2554  0.2147  0.0403
  910YOPE   C1B10377   7.028  12.948   6.993 -0.0877  0.2294 -0.1559
  910YOPE   C2B10378   6.960  12.748   7.461  0.0637  0.1076  0.1187
  910YOPE   D3B10379   6.744  12.647   7.826 -0.0312  0.1459  0.1124
  910YOPE   C4B10380   6.537  12.453   8.173  0.0021  0.1300 -0.2067
  911YOPE   NH310381  11.803  11.327   6.139  0.0755  0.1562  0.2966
  911YOPE   PO410382  11.527  11.621   6.326 -0.1069  0.0101  0.1127
  911YOPE   GL110383  11.582  11.750   6.790  0.0815 -0.1263 -0.0002
  911YOPE   GL210384  11.281  11.542   6.946  0.3226 -0.0441  0.2040
  911YOPE   C1A10385  11.771  11.627   7.164 -0.0860 -0.0750 -0.0849
  911YOPE   D2A10386  11.786  11.841   7.467 -0.1390 -0.0737 -0.0879
  911YOPE   C3A10387  11.864  11.616   7.811  0.1628 -0.1269  0.2112
  911YOPE   C4A10388  11.697  11.428   8.140 -0.2436 -0.4539 -0.1062
  911YOPE   C1B10389  11.302  11.582   7.390 -0.4163 -0.0411 -0.0351
  911YOPE   C2B10390  11.354  11.870   7.699  0.1897  0.0688 -0.1656
  911YOPE   D3B10391  11.378  11.880   8.116 -0.0526  0.1908 -0.0565
  911YOPE   C4B10392  11.211  12.155   8.467 -0.0085 -0.0573 -0.0103
  912YOPE   NH310393  15.282   4.116   5.573  0.0467 -0.0628  0.0019
  912YOPE   PO410394  15.662   4.023   5.510 -0.0940  0.0342  0.1781
  912YOPE   GL110395  15.827   4.055   5.855  0.1367 -0.0611 -0.4732
  912YOPE   GL210396  15.658   3.986   6.003 -0.3466 -0.0616  0.1450
  912YOPE   C1A10397  16.098   4.079   6.294  0.0142  0.1956 -0.2042
  912YOPE   D2A10398  16.590   4.232   6.195 -0.0887 -0.0796 -0.3425
  912YOPE   C3A10399  16.860   3.879   6.102 -0.1244 -0.0997  0.1252
  912YOPE   C4A10400  17.280   3.904   6.213 -0.3158 -0.1355  0.2750
  912YOPE   C1B10401  15.645   3.886   6.347 -0.1374 -0.3181 -0.1450
  912YOPE   C2B10402  15.603   3.941   6.697 -0.0007 -0.4549 -0.1076
  912YOPE   D3B10403  15.530   3.853   7.124  0.0561  0.0626  0.1117
  912YOPE   C4B10404  15.885   3.648   7.381  0.3645 -0.0737 -0.0303
  913YOPE   NH310405   7.291   8.429   6.258 -0.1225 -0.0016 -0.3414
  913YOPE   PO410406   6.969   8.128   6.290  0.3041 -0.0583 -0.0235
  913YOPE   GL110407   7.134   8.255   6.701 -0.1931 -0.0529  0.1087
  913YOPE   GL210408   7.060   8.060   6.876 -0.0377  0.1760  0.0402
  913YOPE   C1A10409   7.355   8.543   6.941  0.1487  0.1813 -0.3090
  913YOPE   D2A10410   7.342   8.560   7.384  0.1373  0.1317 -0.1004
  913YOPE   C3A10411   7.332   8.571   7.829  0.2177 -0.1095  0.0504
  913YOPE   C4A10412   7.280   8.353   8.045  0.0462  0.1391 -0.4039
  913YOPE   C1B10413   7.043   8.150   7.240  0.1836  0.2489 -0.0443
  913YOPE   C2B10414   6.931   8.240   7.643 -0.1212  0.0499  0.2534
  913YOPE   D3B10415   6.735   8.521   7.941  0.2419 -0.0834  0.0394
  913YOPE   C4B10416   6.994   8.811   8.183  0.0303 -0.0162 -0.0408
  914YOPE   NH310417  13.984  15.273   6.685  0.0591  0.1987 -0.0138
  914YOPE   PO410418  13.682  15.497   6.572  0.0766 -0.3269  0.1709
  914YOPE   GL110419  13.962  15.676   7.017 -0.0191 -0.0410  0.2267
  914YOPE   GL210420  14.189  15.415   7.130  0.2395  0.0090 -0.2579
  914YOPE   C1A10421  13.827  15.793   7.461  0.0894  0.0165  0.0741
  914YOPE   D2A10422  13.731  16.039   7.762 -0.0252 -0.0637  0.2669
  914YOPE   C3A10423  13.987  15.837   8.119 -0.0043  0.1669  0.0126
  914YOPE   C4A10424  14.244  15.600   8.499 -0.1574 -0.1829 -0.3022
  914YOPE   C1B10425  14.049  15.329   7.501  0.1088  0.1851  0.1592
  914YOPE   C2B10426  14.073  15.405   7.967 -0.0199  0.1293  0.1882
  914YOPE   D3B10427  14.279  15.173   8.244  0.2616 -0.0856 -0.0562
  914YOPE   C4B10428  14.038  14.974   8.532 -0.0251  0.3069 -0.4172
  915YOPE   NH310429   3.329  11.530   6.545 -0.1318 -0.3365  0.3003
  915YOPE   PO410430   3.529  11.172   6.404  0.2000 -0.0313  0.0728
  915YOPE   GL110431   3.814  11.415   6.667 -0.1963 -0.1856 -0.2747
  915YOPE   GL210432   3.747  11.767   6.835  0.3628 -0.1199  0.1232
  915YOPE   C1A10433   3.971  11.207   6.969  0.0808 -0.1394 -0.0744
  915YOPE   D2A10434   4.345  11.048   7.162 -0.0354 -0.2041 -0.3493
  915YOPE   C3A10435   4.202  10.770   7.411 -0.0669 -0.0196 -0.1030
  915YOPE   C4A10436   3.960  10.787   7.683 -0.1053 -0.0409  0.0504
  915YOPE   C1B10437   3.798  11.722   7.314  0.2417  0.1097  0.1553
  915YOPE   C2B10438   3.967  11.914   7.623 -0.1348 -0.0582  0.0711
  915YOPE   D3B10439   4.060  12.132   7.995 -0.2601 -0.1342 -0.1449
  915YOPE   C4B10440   4.228  11.782   8.149  0.1377  0.0925 -0.0183
  916YOPE   NH310441  11.997   0.574   6.566 -0.0860  0.2749  0.1358
  916YOPE   PO410442  11.717   0.991   6.599 -0.0361  0.1601 -0.0278
  916YOPE   GL110443  11.573   0.947   7.028  0.4851 -0.0023 -0.0486
  916YOPE   GL210444  11.177   0.922   7.035  0.1640  0.1590  0.1614
  916YOPE   C1A10445  11.574   0.920   7.444 -0.0995  0.1869 -0.1464
  916YOPE   D2A10446  11.629   0.810   7.770  0.2880 -0.0996  0.0514
  916YOPE   C3A10447  11.792   1.025   8.101 -0.0689  0.2616 -0.0965
  916YOPE   C4A10448  12.091   1.380   8.140  0.0686  0.2863  0.2925
  916YOPE   C1B10449  10.958   0.910   7.439 -0.0359  0.0330 -0.1350
  916YOPE   C2B10450  10.655   0.649   7.733 -0.1781 -0.2219  0.0151
  916YOPE   D3B10451  10.192   0.489   7.867  0.2758 -0.3938 -0.2215
  916YOPE   C4B10452  10.048   0.535   8.236  0.1140 -0.2133 -0.1874
  917YOPE   NH310453  16.994  14.561   6.646  0.2726 -0.3988  0.1144
  917YOPE   PO410454  17.391  14.292   6.632  0.2932 -0.0339 -0.0291
  917YOPE   GL110455  17.159  14.278   6.990 -0.1883  0.3531  0.1535
  917YOPE   GL210456  17.165  13.977   6.964 -0.0686 -0.0296 -0.0939
  917YOPE   C1A10457  17.266  14.479   7.354 -0.0191  0.2239  0.2102
  917YOPE   D2A10458  17.313  14.571   7.790  0.0897 -0.0211 -0.0191
  917YOPE   C3A10459  17.351  14.305   8.216  0.0141 -0.0988 -0.2406
  917YOPE   C4A10460  17.746  14.267   8.422 -0.0589  0.0400 -0.0187
  917YOPE   C1B10461  17.307  13.929   7.346 -0.1867 -0.4216 -0.1311
  917YOPE   C2B10462  17.281  14.058   7.803  0.3834 -0.2616  0.2797
  917YOPE   D3B10463  16.990  13.981   8.057  0.0762 -0.0344 -0.1486
  917YOPE   C4B10464  17.043  13.923   8.505 -0.0946 -0.0422  0.1079
  918YOPE   NH310465   1.931  12.537   6.388 -0.0455  0.1483 -0.1247
  918YOPE   PO410466   2.176  12.187   6.315  0.1633  0.0902 -0.0577
  918YOPE   GL110467   2.233  12.243   6.698 -0.0448 -0.0384  0.0220
  918YOPE   GL210468   1.935  12.252   6.818  0.0106  0.1497  0.0280
  918YOPE   C1A10469   2.333  12.197   7.162  0.3316 -0.0281  0.0982
  918YOPE   D2A10470   2.609  12.339   7.544  0.1116 -0.0876  0.2077
  918YOPE   C3A10471   2.389  12.484   7.901  0.0104  0.1098  0.2179
  918YOPE   C4A10472   2.342  12.332   8.323  0.2135  0.0787  0.2054
  918YOPE   C1B10473   1.858  12.029   7.272 -0.2148 -0.0200  0.0543
  918YOPE   C2B10474   1.727  11.851   7.598  0.2497 -0.0860  0.1626
  918YOPE   D3B10475   1.578  11.806   8.005 -0.2693  0.0285  0.4052
  918YOPE   C4B10476   1.628  11.602   8.370 -0.0498  0.4694 -0.0240
  919YOPE   NH310477  13.337   9.985   5.303 -0.1165  0.1751  0.0708
  919YOPE   PO410478  13.708   9.651   5.500  0.0442  0.0154  0.2153
  919YOPE   GL110479  13.812   9.322   5.843 -0.2460 -0.0067 -0.0445
  919YOPE   GL210480  14.223   9.213   5.954  0.1084  0.0808 -0.3517
  919YOPE   C1A10481  13.814   9.053   6.200 -0.0177  0.2293 -0.0467
  919YOPE   D2A10482  13.714   8.865   6.595  0.0782 -0.0846 -0.0414
  919YOPE   C3A10483  13.698   8.959   7.073 -0.2181  0.0765  0.2198
  919YOPE   C4A10484  13.542   9.061   7.352 -0.1218  0.0528  0.1240
  919YOPE   C1B10485  14.182   9.408   6.367 -0.0303 -0.0843 -0.2243
  919YOPE   C2B10486  14.047   9.384   6.724 -0.0587 -0.2104 -0.0943
  919YOPE   D3B10487  14.076   9.259   7.158  0.0381  0.4651 -0.0551
  919YOPE   C4B10488  14.244   9.254   7.468 -0.1253 -0.1088 -0.3110
  920YOPE   NH310489   0.921   9.065   5.563  0.1381 -0.1511  0.1289
  920YOPE   PO410490   0.620   8.778   5.764  0.0764  0.1533 -0.0682
  920YOPE   GL110491   1.013   8.771   6.185 -0.3432  0.0729  0.2251
  920YOPE   GL210492   0.863   8.837   6.468  0.0615 -0.0876  0.0383
  920YOPE   C1A10493   1.357   8.542   6.391 -0.2362 -0.2958 -0.2094
  920YOPE   D2A10494   1.509   8.190   6.576 -0.2227 -0.0985  0.0933
  920YOPE   C3A10495   1.288   7.892   6.956 -0.1184 -0.1846 -0.0167
  920YOPE   C4A10496   1.471   7.651   7.279  0.3043  0.1397 -0.0873
  920YOPE   C1B10497   0.861   8.688   6.770 -0.2535  0.3227  0.0526
  920YOPE   C2B10498   1.053   8.828   7.152  0.2221 -0.0392 -0.4357
  920YOPE   D3B10499   1.083   8.565   7.584 -0.0893  0.1787  0.0372
  920YOPE   C4B10500   0.949   8.572   8.026 -0.0147 -0.0487  0.1207
  921YOPE   NH310501  14.248   4.450   5.995 -0.3652  0.1452 -0.0372
  921YOPE   PO410502  14.536   4.656   6.027  0.2045  0.1944 -0.4174
  921YOPE   GL110503  14.559   4.484   6.373 -0.1071 -0.1169 -0.3024
  921YOPE   GL210504  14.889   4.624   6.477 -0.1280 -0.0689  0.0477
  921YOPE   C1A10505  14.730   4.237   6.734  0.3167  0.1946 -0.2788
  921YOPE   D2A10506  14.987   4.058   6.938 -0.3394  0.0155  0.1327
  921YOPE   C3A10507  14.937   4.103   7.327 -0.0693 -0.1081 -0.0008
  921YOPE   C4A10508  14.987   3.911   7.660 -0.5916  0.2357  0.1235
  921YOPE   C1B10509  14.988   4.601   6.883  0.1000 -0.0084  0.1443
  921YOPE   C2B10510  14.923   4.624   7.323 -0.2365 -0.2098 -0.0744
  921YOPE   D3B10511  15.025   4.490   7.774 -0.0151  0.0244 -0.1532
  921YOPE   C4B10512  14.885   4.206   8.141 -0.1710 -0.1892 -0.0743
  922YOPE   NH310513  16.246  15.001   6.570 -0.0852  0.1638 -0.4690
  922YOPE   PO410514  15.901  15.069   6.363 -0.3311 -0.1660 -0.0424
  922YOPE   GL110515  15.804  15.015   6.849  0.3304 -0.3158 -0.1296
  922YOPE   GL210516  16.106  15.020   7.027 -0.0702  0.2560 -0.3325
  922YOPE   C1A10517  15.618  15.048   7.268  0.0499  0.4824  0.3652
  922YOPE   D2A10518  15.289  15.005   7.558  0.2781 -0.1687 -0.0727
  922YOPE   C3A10519  15.355  15.124   7.905  0.2480 -0.1140 -0.1297
  922YOPE   C4A10520  15.217  15.363   8.169 -0.4582  0.1871  0.1827
  922YOPE   C1B10521  16.009  15.043   7.554  0.0829 -0.1038  0.4547
  922YOPE   C2B10522  15.826  15.056   7.950 -0.2856  0.1268 -0.1928
  922YOPE   D3B10523  15.695  15.203   8.394  0.0917  0.3061  0.0013
  922YOPE   C4B10524  15.577  15.544   8.732 -0.1247 -0.1881 -0.0771
  923YOPE   NH310525  10.452  17.108   6.543 -0.0544  0.2723  0.0749
  923YOPE   PO410526  10.197  16.718   6.491  0.1036 -0.3027  0.2420
  923YOPE   GL110527  10.273  16.501   6.836  0.3605 -0.0157 -0.0983
  923YOPE   GL210528  10.545  16.558   6.925  0.0052  0.0363 -0.0967
  923YOPE   C1A10529  10.041  16.423   7.153 -0.1950 -0.2522 -0.0760
  923YOPE   D2A10530  10.086  16.466   7.621 -0.0126  0.0695  0.1561
  923YOPE   C3A10531  10.432  16.425   7.961 -0.2138 -0.0303  0.0384
  923YOPE   C4A10532  10.271  16.432   8.394 -0.1720  0.1979 -0.0636
  923YOPE   C1B10533  10.564  16.318   7.383 -0.0245  0.0421  0.0832
  923YOPE   C2B10534  10.676  16.028   7.782 -0.0125  0.2925  0.1944
  923YOPE   D3B10535  10.767  15.902   8.198 -0.2972  0.1690  0.0634
  923YOPE   C4B10536  11.130  15.948   8.518 -0.2201  0.2971  0.0695
  924YOPE   NH310537  16.759  15.625   6.830 -0.1807  0.0055  0.0111
  924YOPE   PO410538  16.393  15.488   6.563 -0.0900 -0.1129  0.0522
  924YOPE   GL110539  16.458  15.305   7.007 -0.0251  0.1352  0.1616
  924YOPE   GL210540  16.340  15.455   7.105  0.0858 -0.0513 -0.4713
  924YOPE   C1A10541  16.490  15.171   7.502 -0.1178 -0.1603 -0.0582
  924YOPE   D2A10542  16.296  15.294   7.884  0.1905  0.0792  0.0325
  924YOPE   C3A10543  16.207  15.163   8.322  0.2613  0.2703 -0.1793
  924YOPE   C4A10544  16.211  15.220   8.699 -0.3043 -0.0007 -0.0373
  924YOPE   C1B10545  16.374  15.674   7.416  0.2247  0.2062 -0.1862
  924YOPE   C2B10546  16.259  15.801   7.820  0.0041 -0.1175 -0.0693
  924YOPE   D3B10547  16.034  15.702   8.124  0.3450 -0.1451 -0.0830
  924YOPE   C4B10548  16.038  15.674   8.578 -0.0824  0.0776 -0.2070
  925YOPE   NH310549  18.098  10.596   6.113  0.1420 -0.1812  0.2376
  925YOPE   PO410550  18.218  10.955   6.277  0.0597 -0.0075 -0.1995
  925YOPE   GL110551  18.185  10.856   6.618 -0.1015 -0.1101 -0.2167
  925YOPE   GL210552  17.902  10.690   6.707 -0.1380  0.1105 -0.0418
  925YOPE   C1A10553  18.485  10.868   6.856 -0.1114 -0.0310 -0.0740
  925YOPE   D2A10554  18.899  11.021   6.832 -0.0185  0.0839 -0.1393
  925YOPE   C3A10555  19.128  11.272   7.069  0.1521 -0.3179 -0.2219
  925YOPE   C4A10556  19.365  11.266   7.428  0.1099 -0.1249  0.0550
  925YOPE   C1B10557  17.916  10.669   7.146 -0.0094 -0.1531  0.2096
  925YOPE   C2B10558  17.782  10.628   7.551 -0.0468  0.1519 -0.3040
  925YOPE   D3B10559  17.775  10.346   7.883 -0.0390  0.1235 -0.1285
  925YOPE   C4B10560  17.688   9.910   8.133 -0.1022 -0.2060  0.1366
  926YOPE   NH310561   2.558  14.009   6.624  0.2618  0.0191  0.0876
  926YOPE   PO410562   2.728  14.303   6.438  0.0574 -0.3123  0.2694
  926YOPE   GL110563   2.624  14.522   6.824 -0.2161  0.2889 -0.0674
  926YOPE   GL210564   2.318  14.547   6.814 -0.1470  0.0677 -0.0251
  926YOPE   C1A10565   2.618  14.693   7.189 -0.1401  0.0606  0.0578
  926YOPE   D2A10566   2.940  14.942   7.250  0.2541  0.2317 -0.1684
  926YOPE   C3A10567   3.225  14.844   7.512  0.1198 -0.0611 -0.0916
  926YOPE   C4A10568   3.430  14.460   7.558 -0.3098  0.3225  0.1229
  926YOPE   C1B10569   2.175  14.516   7.140 -0.1049 -0.4307 -0.0377
  926YOPE   C2B10570   2.289  14.559   7.610 -0.1492 -0.2603 -0.1866
  926YOPE   D3B10571   2.493  14.700   8.036 -0.2278  0.2644  0.0961
  926YOPE   C4B10572   2.331  14.447   8.369 -0.0359  0.0151 -0.1919
  927YOPE   NH310573   3.702   3.480   6.070 -0.1070 -0.0169 -0.0746
  927YOPE   PO410574   3.343   3.274   6.004  0.0683 -0.1128  0.3265
  927YOPE   GL110575   3.211   3.421   6.421 -0.4088 -0.0281 -0.0335
  927YOPE   GL210576   3.521   3.585   6.501  0.1149  0.2152 -0.1890
  927YOPE   C1A10577   3.006   3.329   6.960 -0.0737 -0.1007  0.3005
  927YOPE   D2A10578   3.089   3.282   7.371 -0.3565 -0.2317  0.1281
  927YOPE   C3A10579   2.931   3.695   7.667  0.0340  0.5059 -0.1886
  927YOPE   C4A10580   2.620   3.774   7.913 -0.1312  0.0545 -0.0948
  927YOPE   C1B10581   3.319   3.702   6.831  0.0235  0.1813 -0.0184
  927YOPE   C2B10582   3.129   3.799   7.257  0.3061 -0.0888 -0.1506
  927YOPE   D3B10583   3.189   4.075   7.650  0.1134  0.0564 -0.1378
  927YOPE   C4B10584   2.930   4.140   8.057 -0.0690 -0.0841  0.0590
  928YOPE   NH310585  13.201   1.856   6.247  0.2049  0.0595  0.2335
  928YOPE   PO410586  13.501   1.389   6.297 -0.1086 -0.0637 -0.0753
  928YOPE   GL110587  13.814   1.173   6.701 -0.2005  0.2172  0.2970
  928YOPE   GL210588  13.972   0.809   6.819  0.0834  0.1378  0.0512
  928YOPE   C1A10589  13.783   1.173   7.182 -0.0571  0.1366  0.0600
  928YOPE   D2A10590  13.869   1.132   7.601 -0.2577 -0.2222  0.0798
  928YOPE   C3A10591  13.612   1.032   7.933  0.0264  0.2444  0.1506
  928YOPE   C4A10592  13.891   0.900   8.244 -0.1707  0.2487  0.0548
  928YOPE   C1B10593  14.257   1.098   7.010 -0.0216 -0.3494 -0.1366
  928YOPE   C2B10594  14.384   1.040   7.464  0.0220 -0.1136 -0.0543
  928YOPE   D3B10595  14.114   0.654   7.774 -0.3075 -0.2110  0.2342
  928YOPE   C4B10596  14.076   0.352   8.072 -0.0920  0.0184 -0.2348
  929YOPE   NH310597  10.009  10.497   6.220  0.2542 -0.1607 -0.0300
  929YOPE   PO410598  10.128   9.965   6.196 -0.1711 -0.0527  0.0972
  929YOPE   GL110599  10.098  10.026   6.558  0.0563 -0.0311  0.0291
  929YOPE   GL210600  10.399  10.237   6.505  0.1698 -0.1718 -0.0033
  929YOPE   C1A10601  10.022  10.249   6.917  0.1148  0.2794  0.1322
  929YOPE   D2A10602   9.923  10.250   7.275  0.0781  0.2369 -0.0904
  929YOPE   C3A10603  10.240  10.304   7.629  0.1826 -0.1047  0.1220
  929YOPE   C4A10604  10.638  10.325   7.942 -0.2874 -0.2396 -0.0337
  929YOPE   C1B10605  10.517  10.230   6.989 -0.1063  0.2219 -0.1721
  929YOPE   C2B10606  10.661  10.450   7.403 -0.1254  0.0691 -0.1236
  929YOPE   D3B10607  10.545  10.794   7.734 -0.1080 -0.3311  0.1437
  929YOPE   C4B10608  10.354  11.133   7.784  0.1443 -0.1357 -0.0755
  930YOPE   NH310609   8.772   6.474   6.063 -0.1066 -0.1465  0.1272
  930YOPE   PO410610   8.416   6.678   5.951  0.0367  0.1950  0.0054
  930YOPE   GL110611   8.619   6.837   6.336 -0.3176  0.0433  0.0921
  930YOPE   GL210612   8.426   6.805   6.631 -0.0371  0.2830 -0.0278
  930YOPE   C1A10613   8.852   7.038   6.539 -0.1107 -0.3031 -0.3674
  930YOPE   D2A10614   9.257   6.768   6.713 -0.2979 -0.1570  0.2231
  930YOPE   C3A10615   9.402   6.542   7.039 -0.0438  0.2009  0.0141
  930YOPE   C4A10616   9.534   6.489   7.517  0.2018 -0.0358 -0.0634
  930YOPE   C1B10617   8.691   6.703   6.893 -0.0406 -0.3072  0.1005
  930YOPE   C2B10618   9.034   6.772   7.225  0.0744  0.0663  0.0540
  930YOPE   D3B10619   9.054   6.713   7.681 -0.2012 -0.2197 -0.1033
  930YOPE   C4B10620   9.105   6.797   8.092  0.0287  0.1575  0.1529
  931YOPE   NH310621   6.473   6.505   6.238  0.0572 -0.0807 -0.0785
  931YOPE   PO410622   6.421   6.945   5.983 -0.0552 -0.2065 -0.3134
  931YOPE   GL110623   6.141   6.952   6.375  0.1468  0.0969 -0.4241
  931YOPE   GL210624   5.874   6.746   6.531  0.0999  0.0088  0.2804
  931YOPE   C1A10625   6.087   7.098   6.798 -0.2187  0.1402 -0.1080
  931YOPE   D2A10626   6.327   7.133   7.169 -0.2801 -0.0668  0.0779
  931YOPE   C3A10627   6.119   7.144   7.575 -0.0540  0.0104 -0.3411
  931YOPE   C4A10628   6.126   7.349   7.854  0.0612 -0.0272 -0.0131
  931YOPE   C1B10629   5.542   6.750   6.843 -0.2096  0.2972  0.2108
  931YOPE   C2B10630   5.375   6.853   7.208 -0.1136  0.3874  0.0097
  931YOPE   D3B10631   5.014   6.925   7.488  0.0243 -0.1509  0.3370
  931YOPE   C4B10632   4.699   7.040   7.702 -0.1886 -0.1151 -0.1904
  932YOPE   NH310633  13.664  10.109   5.835 -0.0164 -0.0354 -0.2166
  932YOPE   PO410634  13.131  10.244   5.736 -0.0058  0.2918  0.2614
  932YOPE   GL110635  13.250  10.113   6.134  0.2803 -0.0450  0.0072
  932YOPE   GL210636  13.557  10.296   6.253  0.2652  0.1144 -0.1389
  932YOPE   C1A10637  13.307   9.905   6.455 -0.1526 -0.1257  0.0577
  932YOPE   D2A10638  13.170   9.709   6.765 -0.2606  0.0360 -0.2001
  932YOPE   C3A10639  13.041   9.926   7.190  0.1191 -0.2465 -0.1363
  932YOPE   C4A10640  12.895   9.700   7.489  0.2349  0.1199 -0.0217
  932YOPE   C1B10641  13.572  10.196   6.750  0.0627  0.0269  0.1470
  932YOPE   C2B10642  13.552   9.850   7.038 -0.1465  0.2368 -0.1976
  932YOPE   D3B10643  13.763   9.601   7.413 -0.2161  0.2613 -0.1785
  932YOPE   C4B10644  14.160   9.727   7.606 -0.2918 -0.0973  0.3344
  933YOPE   NH310645   6.137   0.359   6.539  0.1854 -0.1334 -0.2620
  933YOPE   PO410646   5.728   0.180   6.309  0.2170  0.1356 -0.1391
  933YOPE   GL110647   5.608  -0.003   6.768  0.3166  0.1143 -0.0332
  933YOPE   GL210648   5.181  -0.057   6.655  0.0757  0.0040 -0.2420
  933YOPE   C1A10649   5.731  -0.003   7.155 -0.0918 -0.2871  0.0928
  933YOPE   D2A10650   5.549  -0.268   7.540  0.0059 -0.2208 -0.2790
  933YOPE   C3A10651   5.209  -0.118   7.753 -0.2978  0.1157  0.0614
  933YOPE   C4A10652   5.038   0.143   7.733  0.2362 -0.1777 -0.1156
  933YOPE   C1B10653   4.863   0.314   6.848 -0.0666 -0.1320  0.0887
  933YOPE   C2B10654   4.811   0.382   7.302  0.0732  0.3041  0.0243
  933YOPE   D3B10655   4.575   0.421   7.718 -0.1854  0.1396 -0.0332
  933YOPE   C4B10656   4.595   0.449   8.180  0.1669 -0.1669  0.2501
  934YOPE   NH310657   2.082  15.889   6.594  0.2000  0.2206  0.0829
  934YOPE   PO410658   1.751  16.115   6.444  0.3720  0.0250 -0.0349
  934YOPE   GL110659   1.624  15.996   6.855 -0.1731 -0.0294 -0.1179
  934YOPE   GL210660   1.887  15.819   7.046  0.1422  0.0233 -0.0644
  934YOPE   C1A10661   1.449  16.011   7.259  0.2316 -0.0905  0.2131
  934YOPE   D2A10662   1.472  16.039   7.673 -0.2117  0.0024  0.3040
  934YOPE   C3A10663   1.588  15.990   8.028 -0.2162 -0.0313 -0.0416
  934YOPE   C4A10664   1.753  15.725   8.282 -0.0669 -0.1220 -0.0158
  934YOPE   C1B10665   1.909  15.934   7.464  0.2206  0.0981 -0.0099
  934YOPE   C2B10666   2.021  15.854   7.794 -0.1366  0.0862  0.0696
  934YOPE   D3B10667   2.027  16.136   8.176  0.0629  0.1835  0.1359
  934YOPE   C4B10668   1.834  16.340   8.572  0.1586 -0.1881  0.2214
  935YOPE   NH310669  15.254   6.477   5.779  0.0278 -0.2373 -0.1514
  935YOPE   PO410670  15.439   6.838   5.658  0.0913  0.1442 -0.1185
  935YOPE   GL110671  15.556   6.659   6.100 -0.2230  0.1653  0.5306
  935YOPE   GL210672  15.797   6.389   6.202 -0.1803  0.0522  0.2809
  935YOPE   C1A10673  15.542   6.692   6.515  0.2305  0.2173  0.1903
  935YOPE   D2A10674  15.160   6.654   6.698 -0.0416 -0.0995 -0.0867
  935YOPE   C3A10675  15.140   6.632   7.045 -0.1790 -0.0065 -0.1755
  935YOPE   C4A10676  14.873   6.893   7.181 -0.1394 -0.2503  0.0858
  935YOPE   C1B10677  16.003   6.445   6.667 -0.0641  0.1649  0.1987
  935YOPE   C2B10678  15.877   6.575   7.093 -0.1196 -0.0400  0.1372
  935YOPE   D3B10679  15.518   6.616   7.364 -0.1081  0.1244  0.1951
  935YOPE   C4B10680  15.066   6.689   7.580 -0.1010  0.2169  0.0109
  936YOPE   NH310681  17.372  11.224   6.400  0.0539  0.0420  0.1057
  936YOPE   PO410682  17.733  11.401   6.178  0.1281 -0.1223 -0.2104
  936YOPE   GL110683  17.801  11.143   6.574  0.4197  0.0861  0.0383
  936YOPE   GL210684  17.494  10.939   6.809  0.4423 -0.3627 -0.1029
  936YOPE   C1A10685  17.931  11.202   6.890  0.0857 -0.0312  0.0845
  936YOPE   D2A10686  17.995  11.202   7.362 -0.2123 -0.1600 -0.0048
  936YOPE   C3A10687  18.307  11.076   7.625 -0.1232  0.1409  0.0761
  936YOPE   C4A10688  18.461  10.903   7.981 -0.0533 -0.2181 -0.2514
  936YOPE   C1B10689  17.516  11.012   7.162  0.0186 -0.1587  0.0164
  936YOPE   C2B10690  17.335  10.951   7.580 -0.3605  0.2915  0.1172
  936YOPE   D3B10691  17.144  11.075   7.899 -0.2551  0.2380 -0.0690
  936YOPE   C4B10692  17.154  11.097   8.371 -0.2761  0.1246  0.0215
  937YOPE   NH310693  17.129   1.648   5.818 -0.0185 -0.2013 -0.0805
  937YOPE   PO410694  17.413   2.034   5.957 -0.3215 -0.0601  0.1479
  937YOPE   GL110695  17.261   1.893   6.273  0.3691 -0.2903  0.0502
  937YOPE   GL210696  16.999   1.900   6.315  0.0324 -0.0333  0.0010
  937YOPE   C1A10697  17.561   1.790   6.612 -0.2110  0.1097 -0.0714
  937YOPE   D2A10698  17.553   1.567   7.048  0.4577 -0.0878  0.2080
  937YOPE   C3A10699  17.868   1.299   7.070 -0.0317 -0.2701  0.0196
  937YOPE   C4A10700  17.767   0.925   6.982  0.2029  0.1097 -0.0681
  937YOPE   C1B10701  17.087   1.956   6.748 -0.1557  0.0691 -0.0992
  937YOPE   C2B10702  17.113   2.022   7.214  0.1627 -0.1304  0.2894
  937YOPE   D3B10703  17.292   2.178   7.572 -0.0003 -0.1088 -0.0529
  937YOPE   C4B10704  17.433   2.499   7.729 -0.1233 -0.6341  0.1075
  938YOPE   NH310705  11.135   1.918   6.775  0.3483 -0.0355  0.1650
  938YOPE   PO410706  11.206   1.427   6.798 -0.1548 -0.1161  0.0450
  938YOPE   GL110707  11.207   1.525   7.203 -0.0342  0.1245 -0.0547
  938YOPE   GL210708  10.966   1.785   7.243 -0.1824  0.2430  0.0487
  938YOPE   C1A10709  11.239   1.287   7.594  0.1637 -0.0630  0.2240
  938YOPE   D2A10710  11.297   1.088   7.993 -0.0884  0.1933 -0.3179
  938YOPE   C3A10711  10.904   0.965   8.119 -0.3130  0.1299 -0.1303
  938YOPE   C4A10712  10.785   0.613   8.297  0.0466  0.0745 -0.1575
  938YOPE   C1B10713  10.984   1.749   7.689  0.1027  0.2609 -0.5046
  938YOPE   C2B10714  10.968   1.587   8.097 -0.0011 -0.3089  0.1881
  938YOPE   D3B10715  10.899   1.376   8.524  0.0057  0.1755 -0.0455
  938YOPE   C4B10716  10.675   1.448   8.844 -0.3721  0.0648 -0.0135
  939POPC   NC310717   2.366  12.943   5.949 -0.2107  0.0089  0.2485
  939POPC   PO410718   2.358  12.857   6.353 -0.2628  0.0319 -0.0401
  939POPC   GL110719   2.571  13.072   6.709  0.0372 -0.0064 -0.1722
  939POPC   GL210720   2.325  13.220   6.827 -0.4645 -0.0207  0.0360
  939POPC   C1A10721   2.795  13.150   7.101  0.3665 -0.1267 -0.1586
  939POPC   D2A10722   2.935  13.189   7.534 -0.0942 -0.2241 -0.0960
  939POPC   C3A10723   2.809  13.281   7.979  0.0838 -0.1408  0.2407
  939POPC   C4A10724   2.685  13.103   8.313  0.2628  0.3594  0.3040
  939POPC   C1B10725   2.319  13.175   7.264  0.0960 -0.1203  0.0661
  939POPC   C2B10726   2.045  12.964   7.579 -0.0978 -0.0388  0.2275
  939POPC   C3B10727   2.098  12.876   7.956  0.1051 -0.0586  0.1423
  939POPC   C4B10728   2.205  12.887   8.415 -0.0264  0.0718  0.2201
  940POPC   NC310729   2.561   8.108   6.106 -0.1137 -0.0271  0.1667
  940POPC   PO410730   2.448   7.762   6.287 -0.1776 -0.3274 -0.1547
  940POPC   GL110731   2.509   8.071   6.631 -0.1150 -0.2203 -0.0340
  940POPC   GL210732   2.232   8.328   6.700 -0.1471 -0.4700  0.0890
  940POPC   C1A10733   2.545   8.092   7.107 -0.3859 -0.2874  0.2143
  940POPC   D2A10734   2.577   8.223   7.542  0.2869 -0.0290 -0.1364
  940POPC   C3A10735   2.913   8.112   7.881 -0.0160  0.1195 -0.0397
  940POPC   C4A10736   3.197   7.812   8.152 -0.1935 -0.0454 -0.1596
  940POPC   C1B10737   2.189   8.381   7.182 -0.2901 -0.2378 -0.1567
  940POPC   C2B10738   2.139   8.808   7.316 -0.2061  0.1492  0.1004
  940POPC   C3B10739   1.832   9.066   7.317  0.1360 -0.0254 -0.0122
  940POPC   C4B10740   1.460   8.926   7.350  0.0551  0.0028  0.2304
  941POPC   NC310741  15.715  12.171   5.987 -0.3762  0.4019  0.0804
  941POPC   PO410742  15.432  11.725   6.068 -0.1744  0.2294 -0.0560
  941POPC   GL110743  15.412  11.698   6.508 -0.1914  0.2820  0.1117
  941POPC   GL210744  15.573  11.428   6.770 -0.0120 -0.2650  0.2010
  941POPC   C1A10745  15.168  11.767   6.915  0.0713 -0.2618  0.0874
  941POPC   D2A10746  15.043  11.827   7.366  0.0627  0.0466  0.0786
  941POPC   C3A10747  15.096  11.592   7.705 -0.3805  0.1575  0.0387
  941POPC   C4A10748  15.197  11.043   7.816 -0.2500 -0.0278 -0.0283
  941POPC   C1B10749  15.489  11.078   7.128  0.0019 -0.3512  0.0646
  941POPC   C2B10750  15.559  10.907   7.472 -0.1112 -0.0030  0.1068
  941POPC   C3B10751  15.595  10.770   7.902  0.2806 -0.0712  0.0153
  941POPC   C4B10752  15.971  10.812   8.194 -0.0124  0.0126 -0.2908
  942POPC   NC310753  12.617   0.457   5.875  0.2082 -0.2010 -0.0183
  942POPC   PO410754  12.471   0.592   6.234 -0.0492 -0.0268  0.3879
  942POPC   GL110755  12.523   0.712   6.600 -0.3577  0.3471 -0.1755
  942POPC   GL210756  12.846   0.693   6.600  0.1723  0.3092 -0.0097
  942POPC   C1A10757  12.458   0.626   7.042 -0.2556 -0.0248 -0.2846
  942POPC   D2A10758  12.295   0.840   7.382 -0.3042 -0.2832  0.0445
  942POPC   C3A10759  12.041   1.023   7.588 -0.1346  0.1366 -0.0398
  942POPC   C4A10760  11.745   1.371   7.469  0.1955 -0.0002 -0.2399
  942POPC   C1B10761  13.012   0.717   6.992  0.1055 -0.1200 -0.0518
  942POPC   C2B10762  12.945   0.639   7.441  0.1124  0.1174 -0.0774
  942POPC   C3B10763  13.109   0.379   7.751 -0.0227 -0.3116  0.1358
  942POPC   C4B10764  13.403  -0.032   7.659 -0.0718 -0.2300  0.1688
  943POPC   NC310765   8.587   3.723   6.200 -0.1262  0.3286  0.1319
  943POPC   PO410766   8.394   3.434   6.119 -0.3596 -0.0150  0.2835
  943POPC   GL110767   8.252   3.539   6.557  0.2612  0.0603  0.1077
  943POPC   GL210768   8.220   3.295   6.684 -0.3953 -0.3583  0.1612
  943POPC   C1A10769   7.988   3.688   6.938  0.0576 -0.1598 -0.2144
  943POPC   D2A10770   7.698   3.915   7.262 -0.3106  0.3961  0.1071
  943POPC   C3A10771   7.893   4.133   7.599  0.1008  0.2362  0.2483
  943POPC   C4A10772   8.186   3.855   7.906 -0.3812  0.1284 -0.1477
  943POPC   C1B10773   8.382   3.443   7.062 -0.0668 -0.1900 -0.4065
  943POPC   C2B10774   8.103   3.638   7.384 -0.2686 -0.3279 -0.0893
  943POPC   C3B10775   7.746   3.651   7.694  0.3176  0.1405  0.1237
  943POPC   C4B10776   7.415   3.432   7.860 -0.1907  0.0666 -0.1973
  944POPC   NC310777   3.267   4.216   5.786  0.0958  0.1079 -0.0764
  944POPC   PO410778   3.094   4.472   5.950  0.0599  0.1090  0.1320
  944POPC   GL110779   2.796   4.517   6.262 -0.2852  0.1935 -0.2145
  944POPC   GL210780   2.510   4.234   6.348 -0.3727 -0.0749  0.2820
  944POPC   C1A10781   2.682   4.509   6.675 -0.3275 -0.3563 -0.3222
  944POPC   D2A10782   2.517   4.509   7.127 -0.1307 -0.2637  0.0484
  944POPC   C3A10783   2.629   4.686   7.394 -0.0876 -0.2737  0.1092
  944POPC   C4A10784   2.673   4.852   7.741 -0.1214 -0.0272 -0.3425
  944POPC   C1B10785   2.242   4.019   6.723  0.1710 -0.0444  0.1582
  944POPC   C2B10786   2.350   3.892   7.189 -0.0196  0.0524  0.1252
  944POPC   C3B10787   2.203   3.926   7.605  0.1149 -0.0426  0.0784
  944POPC   C4B10788   2.035   3.947   7.931  0.1674 -0.2201  0.1068
  945POPC   NC310789  12.405   9.187   5.660  0.1233  0.0119 -0.0612
  945POPC   PO410790  12.851   9.354   5.670  0.0570 -0.0005  0.1937
  945POPC   GL110791  12.740   9.076   6.030  0.2115 -0.1678 -0.4054
  945POPC   GL210792  12.690   8.744   6.117  0.1912  0.1169  0.1027
  945POPC   C1A10793  12.615   9.059   6.455 -0.0654 -0.0238 -0.1030
  945POPC   D2A10794  12.580   9.148   6.862  0.0598 -0.2167  0.0434
  945POPC   C3A10795  12.606   8.897   7.187 -0.0212 -0.0587 -0.3676
  945POPC   C4A10796  12.729   8.729   7.654  0.0409  0.2641 -0.1441
  945POPC   C1B10797  12.822   8.576   6.484 -0.1851  0.4277 -0.2657
  945POPC   C2B10798  12.893   8.539   6.977  0.2760 -0.1369  0.0288
  945POPC   C3B10799  12.862   8.372   7.338 -0.2161 -0.2498  0.2776
  945POPC   C4B10800  12.663   8.032   7.456  0.0795 -0.0542 -0.1316
  946POPC   NC310801   4.125   8.506   5.198  0.2241 -0.0892  0.1582
  946POPC   PO410802   4.107   8.073   5.458  0.4432 -0.2094 -0.0338
  946POPC   GL110803   4.049   8.133   5.939  0.0952 -0.2582 -0.0938
  946POPC   GL210804   4.185   8.331   6.144 -0.2240 -0.0462 -0.0898
  946POPC   C1A10805   4.106   7.803   6.218  0.2604 -0.1056  0.0761
  946POPC   D2A10806   3.909   7.616   6.620  0.0966 -0.0557 -0.2168
  946POPC   C3A10807   4.045   7.480   7.157  0.4127  0.0020  0.0785
  946POPC   C4A10808   3.703   7.384   7.404 -0.1450 -0.0538  0.1052
  946POPC   C1B10809   3.900   8.279   6.399  0.0398 -0.0175  0.4410
  946POPC   C2B10810   3.898   8.421   6.749 -0.0113 -0.3877 -0.1344
  946POPC   C3B10811   3.835   8.339   7.233 -0.2125 -0.0348 -0.0622
  946POPC   C4B10812   3.876   8.341   7.646 -0.0027  0.0384  0.1393
  947POPC   NC310813   2.740  17.780   5.929  0.3082 -0.0547  0.0095
  947POPC   PO410814   2.797  18.182   6.143 -0.1694 -0.1540 -0.0972
  947POPC   GL110815   2.973  18.109   6.645  0.0147  0.3959 -0.1002
  947POPC   GL210816   2.613  18.019   6.757  0.0954 -0.1415 -0.1566
  947POPC   C1A10817   3.145  18.004   6.854  0.0967 -0.2992 -0.1554
  947POPC   D2A10818   3.262  17.848   7.223 -0.4104  0.1040 -0.0897
  947POPC   C3A10819   3.178  17.969   7.552  0.0083 -0.0291  0.0418
  947POPC   C4A10820   3.339  17.854   8.036 -0.0371 -0.0335  0.0967
  947POPC   C1B10821   2.820  18.205   7.171  0.0727  0.0928 -0.1581
  947POPC   C2B10822   2.724  18.311   7.562  0.1145 -0.4577 -0.2760
  947POPC   C3B10823   2.784  17.989   7.879 -0.2257  0.0154  0.6133
  947POPC   C4B10824   2.874  18.025   8.311  0.0552 -0.0992  0.0881
  948POPC   NC310825   0.176  10.080   6.055  0.1890  0.0015 -0.0369
  948POPC   PO410826   0.335  10.519   6.140 -0.1814 -0.2377 -0.2763
  948POPC   GL110827   0.333  10.418   6.483 -0.0636  0.1563  0.2135
  948POPC   GL210828   0.380  10.004   6.595  0.0405 -0.0168  0.0101
  948POPC   C1A10829   0.616  10.407   6.860 -0.0807 -0.0710  0.2157
  948POPC   D2A10830   0.696  10.441   7.245  0.0658 -0.1298 -0.2636
  948POPC   C3A10831   0.868  10.277   7.632 -0.3820  0.1093 -0.3326
  948POPC   C4A10832   1.096   9.957   7.778  0.1281  0.3333  0.1789
  948POPC   C1B10833   0.288  10.062   7.037  0.0511 -0.1229 -0.0445
  948POPC   C2B10834   0.399  10.112   7.453 -0.0552 -0.2390 -0.1697
  948POPC   C3B10835   0.555   9.924   7.777  0.0333 -0.1403 -0.0199
  948POPC   C4B10836   0.651  10.062   8.076  0.0694 -0.2211  0.0910
  949POPC   NC310837  12.383   5.145   6.261 -0.0454 -0.0900  0.0714
  949POPC   PO410838  12.255   5.576   6.202 -0.1903 -0.1053 -0.0404
  949POPC   GL110839  12.238   5.829   6.578  0.3131 -0.2019  0.0650
  949POPC   GL210840  11.850   5.910   6.524 -0.0583 -0.0100 -0.2305
  949POPC   C1A10841  12.115   6.030   6.964 -0.0247  0.3365  0.2440
  949POPC   D2A10842  12.151   6.237   7.296 -0.0918  0.1838 -0.2264
  949POPC   C3A10843  11.954   6.581   7.604 -0.1091  0.3153  0.1253
  949POPC   C4A10844  11.901   7.010   7.630  0.0456  0.1841  0.4068
  949POPC   C1B10845  11.794   5.645   6.945  0.1027 -0.0802  0.2499
  949POPC   C2B10846  11.818   5.766   7.339 -0.1288 -0.1506 -0.0869
  949POPC   C3B10847  12.038   5.978   7.709 -0.3117  0.0646  0.1437
  949POPC   C4B10848  12.324   6.303   7.758  0.1455  0.4138 -0.2381
  950POPC   NC310849   2.208   2.744   6.060  0.2554 -0.1524  0.0715
  950POPC   PO410850   1.798   2.868   6.003 -0.0362  0.0878 -0.0113
  950POPC   GL110851   1.772   3.045   6.368 -0.1199  0.0286  0.2788
  950POPC   GL210852   1.989   3.231   6.418 -0.2689  0.1380  0.0702
  950POPC   C1A10853   1.504   3.128   6.718 -0.2239 -0.1243  0.0922
  950POPC   D2A10854   1.634   3.100   7.148 -0.0195 -0.0367 -0.2454
  950POPC   C3A10855   1.522   3.377   7.452 -0.3137  0.2512 -0.0873
  950POPC   C4A10856   1.627   3.681   7.710  0.1442  0.0233  0.0873
  950POPC   C1B10857   2.017   3.082   6.830 -0.1370 -0.1078 -0.0758
  950POPC   C2B10858   2.207   3.106   7.238 -0.1398 -0.1093  0.1863
  950POPC   C3B10859   2.083   3.436   7.709 -0.2756  0.0317 -0.0500
  950POPC   C4B10860   1.991   3.464   8.086  0.0458 -0.2395 -0.1019
  951POPC   NC310861   5.672   1.582   6.822  0.1319  0.1228  0.0056
  951POPC   PO410862   5.321   1.781   6.588  0.0324 -0.0423  0.1632
  951POPC   GL110863   5.179   1.664   6.993  0.1229  0.0042 -0.1591
  951POPC   GL210864   5.396   1.815   7.144 -0.1284  0.1948 -0.0572
  951POPC   C1A10865   5.040   1.424   7.367  0.2565  0.1244  0.0418
  951POPC   D2A10866   5.072   1.165   7.758  0.1456  0.2498  0.0022
  951POPC   C3A10867   5.117   1.253   8.169 -0.0350 -0.1519 -0.0512
  951POPC   C4A10868   5.112   1.504   8.525 -0.0649 -0.0442 -0.0160
  951POPC   C1B10869   5.501   1.889   7.558  0.1554  0.0375 -0.1508
  951POPC   C2B10870   5.602   2.131   7.946 -0.0024  0.1874  0.0494
  951POPC   C3B10871   5.929   2.332   8.193  0.0877  0.0311  0.1343
  951POPC   C4B10872   6.336   2.307   8.376  0.1020  0.1425 -0.0349
  952POPC   NC310873  17.280   6.059   5.042 -0.2521  0.3592 -0.0876
  952POPC   PO410874  17.013   6.066   5.320 -0.1782  0.3563 -0.1166
  952POPC   GL110875  16.981   6.241   5.685  0.0898 -0.1614 -0.0395
  952POPC   GL210876  16.673   6.256   6.006  0.0814 -0.2660  0.3504
  952POPC   C1A10877  17.163   6.149   6.028  0.0181 -0.0226  0.3038
  952POPC   D2A10878  17.219   6.228   6.568  0.0794  0.0687  0.1100
  952POPC   C3A10879  16.982   6.103   6.860 -0.1290 -0.0815  0.1154
  952POPC   C4A10880  16.901   5.852   7.264  0.0419  0.0064  0.2252
  952POPC   C1B10881  16.823   6.389   6.381  0.1078 -0.0197  0.2399
  952POPC   C2B10882  16.912   6.622   6.775  0.1159  0.2983  0.0291
  952POPC   C3B10883  16.973   6.523   7.151 -0.1251  0.0393 -0.1593
  952POPC   C4B10884  16.898   6.779   7.500  0.1023 -0.1377  0.1263
  953POPC   NC310885  10.694  15.229   6.494 -0.0521 -0.0779 -0.0031
  953POPC   PO410886  11.098  14.975   6.515  0.1829 -0.4438  0.2647
  953POPC   GL110887  11.097  15.388   6.791 -0.2378  0.0987 -0.2467
  953POPC   GL210888  10.825  15.415   6.922  0.2050 -0.0508 -0.0908
  953POPC   C1A10889  11.362  15.681   7.059  0.0743 -0.1751 -0.1077
  953POPC   D2A10890  11.711  15.757   7.237 -0.0835 -0.0900 -0.0466
  953POPC   C3A10891  11.746  15.377   7.371  0.1004  0.0987  0.1404
  953POPC   C4A10892  11.738  14.949   7.591  0.1826 -0.0600  0.1562
  953POPC   C1B10893  10.800  15.174   7.251  0.2997 -0.3154 -0.2477
  953POPC   C2B10894  10.795  15.083   7.626 -0.1565  0.2533  0.0040
  953POPC   C3B10895  10.634  14.954   8.039 -0.0649 -0.3624  0.0526
  953POPC   C4B10896  10.428  14.762   8.382 -0.0679  0.0274 -0.0034
  954POPC   NC310897  13.833   7.260   6.071 -0.0286  0.2798  0.0208
  954POPC   PO410898  13.618   6.948   5.789 -0.0584 -0.2710  0.0363
  954POPC   GL110899  13.634   6.845   6.289  0.2580 -0.0617  0.2702
  954POPC   GL210900  13.360   6.683   6.386 -0.1765 -0.1068  0.1675
  954POPC   C1A10901  13.799   6.784   6.747 -0.1913  0.1280  0.0274
  954POPC   D2A10902  13.723   6.690   7.160 -0.2065  0.2366 -0.3304
  954POPC   C3A10903  13.996   6.730   7.351 -0.0350 -0.1428  0.2431
  954POPC   C4A10904  14.061   6.834   7.774  0.1944  0.2734 -0.3412
  954POPC   C1B10905  13.192   6.743   6.787  0.1264 -0.0433 -0.1089
  954POPC   C2B10906  13.164   6.882   7.190  0.0806  0.3090  0.2837
  954POPC   C3B10907  13.539   6.911   7.579  0.0114 -0.2161 -0.0958
  954POPC   C4B10908  13.676   6.528   7.714  0.1166  0.1939 -0.0319
  955POPC   NC310909   6.488  14.777   5.923 -0.0015  0.0954 -0.2126
  955POPC   PO410910   6.315  15.170   5.887 -0.1978 -0.2898 -0.1054
  955POPC   GL110911   6.422  15.061   6.389 -0.1423  0.3359  0.0744
  955POPC   GL210912   6.701  14.734   6.533 -0.0484 -0.4493  0.2104
  955POPC   C1A10913   6.217  14.792   6.754 -0.2527 -0.0452  0.1151
  955POPC   D2A10914   6.192  14.671   7.225 -0.0433  0.0079  0.3031
  955POPC   C3A10915   6.107  14.714   7.621 -0.0078  0.0012  0.0551
  955POPC   C4A10916   6.074  14.648   7.998 -0.3750 -0.0183  0.1242
  955POPC   C1B10917   6.667  14.842   6.917 -0.0237  0.0278 -0.2451
  955POPC   C2B10918   6.541  14.997   7.248  0.1357 -0.1256  0.2592
  955POPC   C3B10919   6.533  15.004   7.658 -0.0367  0.1678  0.0370
  955POPC   C4B10920   6.584  14.761   8.018  0.0594 -0.1939  0.1056
  956POPC   NC310921   1.841  15.162   6.513 -0.0659  0.0463  0.2937
  956POPC   PO410922   2.110  14.919   6.549 -0.1219  0.0779 -0.1380
  956POPC   GL110923   2.444  15.055   6.832 -0.0384  0.0150  0.1889
  956POPC   GL210924   2.261  15.358   6.756  0.1333 -0.1355 -0.1222
  956POPC   C1A10925   2.500  15.144   7.289  0.0365 -0.0942  0.3211
  956POPC   D2A10926   2.451  15.123   7.697  0.2449  0.1359 -0.1859
  956POPC   C3A10927   2.520  15.158   8.193  0.3051  0.1307 -0.0612
  956POPC   C4A10928   2.602  15.286   8.677  0.2542 -0.2770 -0.1951
  956POPC   C1B10929   2.089  15.432   7.244 -0.0432  0.2066  0.2306
  956POPC   C2B10930   2.095  15.398   7.576  0.0069 -0.0963 -0.0966
  956POPC   C3B10931   2.087  15.392   8.051  0.0710  0.0270  0.0315
  956POPC   C4B10932   2.242  15.559   8.452  0.1796  0.1142  0.2511
  957POPC   NC310933  14.221   9.492   5.543 -0.2475  0.1354  0.1681
  957POPC   PO410934  14.162   9.988   5.810 -0.1640 -0.2218  0.0611
  957POPC   GL110935  13.995   9.779   6.064  0.0229 -0.0323  0.1638
  957POPC   GL210936  13.567   9.700   6.102 -0.0833 -0.0882  0.1848
  957POPC   C1A10937  13.850   9.833   6.546  0.1474  0.0518 -0.0214
  957POPC   D2A10938  14.064   9.808   7.009  0.0438  0.1810 -0.2831
  957POPC   C3A10939  13.958  10.037   7.300  0.1155 -0.1549  0.0787
  957POPC   C4A10940  14.265  10.207   7.674 -0.0081 -0.0155 -0.0091
  957POPC   C1B10941  13.571   9.418   6.447  0.2403  0.0201 -0.1066
  957POPC   C2B10942  13.541   9.400   6.849 -0.0909 -0.1250  0.0859
  957POPC   C3B10943  13.318   9.514   7.271 -0.0626 -0.0417 -0.1648
  957POPC   C4B10944  13.373   9.448   7.641 -0.0204 -0.1514  0.0619
  958POPC   NC310945   9.845   4.577   6.295 -0.0491 -0.1450 -0.0063
  958POPC   PO410946   9.428   4.840   6.285 -0.2015 -0.0024 -0.1606
  958POPC   GL110947   9.576   4.687   6.757 -0.1778  0.0381  0.0883
  958POPC   GL210948   9.213   4.755   6.758 -0.1325  0.1030  0.0421
  958POPC   C1A10949   9.520   4.861   7.184 -0.0875 -0.2078 -0.1726
  958POPC   D2A10950   9.403   4.859   7.581 -0.0044  0.0759 -0.0152
  958POPC   C3A10951   9.546   5.131   7.846 -0.1245  0.1690 -0.2116
  958POPC   C4A10952   9.739   5.131   8.237  0.0909  0.1270 -0.2705
  958POPC   C1B10953   9.002   4.671   7.047  0.1445  0.1905  0.1492
  958POPC   C2B10954   8.808   4.473   7.492 -0.0313 -0.2226  0.0289
  958POPC   C3B10955   8.685   4.458   7.917  0.0103  0.0259  0.1257
  958POPC   C4B10956   8.657   4.711   8.277  0.0640 -0.1224  0.0009
  959POPC   NC310957  15.545   4.824   5.102 -0.0041  0.2416  0.0450
  959POPC   PO410958  15.445   4.614   5.472 -0.3192  0.3103  0.1761
  959POPC   GL110959  15.564   4.502   5.891  0.1205  0.0192 -0.1106
  959POPC   GL210960  15.257   4.467   6.057  0.0070 -0.1425  0.0138
  959POPC   C1A10961  15.778   4.454   6.245  0.0615  0.0084  0.1435
  959POPC   D2A10962  15.846   4.382   6.700  0.3836  0.0703 -0.1788
  959POPC   C3A10963  15.867   4.476   7.071  0.0607 -0.0101  0.4465
  959POPC   C4A10964  16.019   4.667   7.341  0.4790 -0.0274 -0.0046
  959POPC   C1B10965  15.440   4.841   6.381 -0.4143  0.0273  0.1142
  959POPC   C2B10966  15.482   4.831   6.815  0.1489  0.3425 -0.0842
  959POPC   C3B10967  15.513   4.815   7.237  0.0928  0.0071  0.0783
  959POPC   C4B10968  15.516   4.716   7.698  0.2051 -0.2116  0.0380
  960POPC   NC310969   2.401   0.481   6.305 -0.0215  0.1105  0.0011
  960POPC   PO410970   2.708   0.797   6.309  0.0250  0.0048 -0.0966
  960POPC   GL110971   2.765   0.757   6.646  0.0319  0.0952 -0.1148
  960POPC   GL210972   2.436   0.768   6.798 -0.0424  0.0019 -0.2209
  960POPC   C1A10973   2.851   0.555   7.021  0.3844  0.0971  0.0985
  960POPC   D2A10974   2.995   0.727   7.407  0.0849 -0.1054 -0.0018
  960POPC   C3A10975   3.265   0.665   7.761  0.1445  0.2547 -0.2107
  960POPC   C4A10976   3.280   0.972   8.111  0.0761 -0.0201 -0.1711
  960POPC   C1B10977   2.656   1.143   7.048  0.4786 -0.0381  0.3329
  960POPC   C2B10978   2.697   1.195   7.515  0.0130 -0.0092 -0.0126
  960POPC   C3B10979   2.317   0.947   7.726 -0.1498 -0.1479  0.0237
  960POPC   C4B10980   2.110   1.045   8.089 -0.0769  0.0696 -0.1174
  961POPC   NC310981  14.311   2.419   6.147 -0.0544 -0.2409  0.1820
  961POPC   PO410982  14.316   2.070   6.417  0.0672 -0.1345  0.1356
  961POPC   GL110983  14.347   2.137   6.863 -0.0694  0.1255 -0.1522
  961POPC   GL210984  14.073   2.062   6.866 -0.1686  0.0997 -0.1149
  961POPC   C1A10985  14.474   2.111   7.346  0.0846 -0.2900 -0.0679
  961POPC   D2A10986  14.526   2.057   7.728 -0.1119 -0.0352  0.1583
  961POPC   C3A10987  14.968   2.140   7.994  0.0928 -0.0407 -0.1232
  961POPC   C4A10988  14.963   2.041   8.510  0.2887  0.3397  0.2187
  961POPC   C1B10989  13.997   2.039   7.272 -0.1411 -0.1364  0.1758
  961POPC   C2B10990  13.968   1.985   7.770 -0.4760  0.4507  0.1859
  961POPC   C3B10991  14.188   1.880   8.087 -0.3069 -0.4117  0.0178
  961POPC   C4B10992  14.556   1.872   8.252  0.1808  0.0047  0.0645
  962POPC   NC310993  13.879   6.520   5.617 -0.4339 -0.1455 -0.2070
  962POPC   PO410994  14.188   6.352   5.998  0.2432 -0.1038 -0.2498
  962POPC   GL110995  14.535   6.347   6.237 -0.1943  0.2683 -0.0691
  962POPC   GL210996  14.684   6.670   6.184  0.1001  0.0322  0.0372
  962POPC   C1A10997  14.768   6.361   6.597 -0.0399  0.0424 -0.0189
  962POPC   D2A10998  14.980   6.130   6.950 -0.1138 -0.3038  0.1222
  962POPC   C3A10999  15.179   6.215   7.376 -0.2396  0.3853 -0.0346
  962POPC   C4A11000  15.359   6.370   7.850  0.0199  0.1889 -0.0933
  962POPC   C1B11001  14.683   6.861   6.672  0.1187 -0.1249 -0.0209
  962POPC   C2B11002  14.445   7.092   6.965 -0.1039 -0.0936  0.0186
  962POPC   C3B11003  14.326   7.123   7.307  0.2687  0.0569  0.1804
  962POPC   C4B11004  13.896   7.225   7.476  0.4290  0.0380 -0.1996
  963POPC   NC311005  18.119   5.661   5.359 -0.1010  0.0271  0.2027
  963POPC   PO411006  17.927   6.132   5.590  0.4196 -0.1806  0.0228
  963POPC   GL111007  17.781   6.160   6.000 -0.0798 -0.0069  0.0178
  963POPC   GL211008  18.063   6.145   6.221  0.3190 -0.0202 -0.0610
  963POPC   C1A11009  17.570   6.009   6.373  0.3254  0.1674  0.1611
  963POPC   D2A11010  17.432   5.846   6.745 -0.1061  0.1168  0.3571
  963POPC   C3A11011  17.466   5.408   6.694  0.2385  0.3561 -0.1995
  963POPC   C4A11012  17.556   4.907   6.701 -0.2834  0.1459  0.2820
  963POPC   C1B11013  18.325   6.183   6.724  0.0340 -0.0657 -0.2281
  963POPC   C2B11014  18.637   6.093   6.982  0.0283  0.0986 -0.1703
  963POPC   C3B11015  18.868   5.793   7.175  0.0380  0.1898  0.0254
  963POPC   C4B11016  19.080   5.721   7.550 -0.1045 -0.3707 -0.1255
  964POPC   NC311017  10.711   8.505   5.689  0.1778  0.0801  0.0687
  964POPC   PO411018  10.972   8.325   5.875  0.0108  0.3063 -0.0632
  964POPC   GL111019  11.083   8.063   6.183 -0.0736  0.0049 -0.2189
  964POPC   GL211020  11.120   7.736   6.300 -0.1329  0.0221  0.0297
  964POPC   C1A11021  10.919   8.340   6.562  0.0058  0.0221  0.1832
  964POPC   D2A11022  11.086   8.228   6.969 -0.1974 -0.2323 -0.0792
  964POPC   C3A11023  11.347   8.520   7.196  0.2037 -0.0098  0.5028
  964POPC   C4A11024  11.250   8.824   7.533 -0.3081  0.1920  0.1388
  964POPC   C1B11025  11.035   7.814   6.771  0.2668 -0.1403  0.3178
  964POPC   C2B11026  11.071   7.590   7.114  0.0560  0.0407  0.1039
  964POPC   C3B11027  11.096   7.626   7.602 -0.2706 -0.4520 -0.1271
  964POPC   C4B11028  10.825   7.752   7.863  0.3201 -0.3233  0.1753
  965POPC   NC311029  13.623   3.969   6.267 -0.1071  0.2277  0.0728
  965POPC   PO411030  13.771   4.346   6.046  0.0133  0.1451  0.1863
  965POPC   GL111031  13.814   4.475   6.451 -0.0595 -0.2208 -0.0826
  965POPC   GL211032  14.080   4.663   6.414  0.2748 -0.2052 -0.1597
  965POPC   C1A11033  13.808   4.265   6.805  0.0104 -0.0728 -0.1798
  965POPC   D2A11034  13.612   4.047   7.165 -0.0550 -0.0628 -0.3091
  965POPC   C3A11035  13.632   4.129   7.537  0.1527 -0.0484  0.1489
  965POPC   C4A11036  13.528   4.352   7.967 -0.2405 -0.0220 -0.0091
  965POPC   C1B11037  14.253   4.514   6.760  0.2000 -0.0682  0.2440
  965POPC   C2B11038  14.414   4.435   7.169 -0.0186 -0.1917  0.0451
  965POPC   C3B11039  14.528   4.374   7.573  0.2519  0.0183 -0.2153
  965POPC   C4B11040  14.397   4.459   8.081  0.0073 -0.3904 -0.0068
  966POPC   NC311041  17.235   7.557   5.607  0.1200  0.0444  0.1584
  966POPC   PO411042  17.127   7.991   5.742 -0.1877 -0.0362 -0.0648
  966POPC   GL111043  16.939   7.936   6.236 -0.1615  0.0363 -0.1604
  966POPC   GL211044  16.662   8.134   6.416  0.0471 -0.4093 -0.1523
  966POPC   C1A11045  16.999   7.803   6.737  0.0142  0.3668  0.1298
  966POPC   D2A11046  17.432   7.598   6.810  0.1138 -0.2262  0.0512
  966POPC   C3A11047  17.366   7.422   7.149 -0.1053 -0.0450 -0.0411
  966POPC   C4A11048  17.466   7.443   7.537  0.1722  0.2072 -0.1781
  966POPC   C1B11049  16.638   8.039   6.860 -0.1236  0.2593 -0.2668
  966POPC   C2B11050  16.581   7.947   7.245  0.2220  0.0595 -0.0900
  966POPC   C3B11051  16.518   7.557   7.470  0.1197 -0.0726  0.1072
  966POPC   C4B11052  16.384   7.195   7.322 -0.1439 -0.0653 -0.0262
  967POPC   NC311053   8.773  16.496   6.137  0.3488 -0.3071 -0.1777
  967POPC   PO411054   8.859  16.125   6.287 -0.0885 -0.0195  0.0281
  967POPC   GL111055   8.775  16.236   6.652  0.2601 -0.1376 -0.0295
  967POPC   GL211056   8.577  16.467   6.866 -0.0780 -0.4117  0.0412
  967POPC   C1A11057   9.159  16.257   6.958  0.3248 -0.2081 -0.0269
  967POPC   D2A11058   9.087  16.279   7.461 -0.1680 -0.3154  0.0861
  967POPC   C3A11059   9.116  15.953   7.666  0.2370  0.0160 -0.0352
  967POPC   C4A11060   9.003  15.644   7.984 -0.2452  0.0309 -0.1746
  967POPC   C1B11061   8.632  16.295   7.234 -0.2155  0.1912  0.0680
  967POPC   C2B11062   8.469  15.974   7.573 -0.1836 -0.1453  0.1434
  967POPC   C3B11063   8.501  15.799   7.868  0.0191 -0.0121  0.3158
  967POPC   C4B11064   8.497  15.563   8.244 -0.0179  0.0647  0.0414
  968POPC   NC311065   7.133   5.441   6.299  0.2257  0.1614 -0.0214
  968POPC   PO411066   6.841   5.802   6.249  0.0008 -0.1862  0.3101
  968POPC   GL111067   6.974   6.015   6.644 -0.0087 -0.0403 -0.2238
  968POPC   GL211068   6.871   6.350   6.688  0.4845 -0.0510 -0.0268
  968POPC   C1A11069   7.197   6.057   7.088  0.0165  0.0913  0.2805
  968POPC   D2A11070   6.917   6.135   7.527  0.1265 -0.0448 -0.0255
  968POPC   C3A11071   7.181   6.016   7.833 -0.1359  0.1481 -0.0364
  968POPC   C4A11072   7.417   6.195   8.158  0.3661  0.1580  0.0019
  968POPC   C1B11073   6.739   6.294   7.043 -0.2217 -0.1447 -0.0675
  968POPC   C2B11074   6.394   6.108   7.372  0.2540  0.1546 -0.0280
  968POPC   C3B11075   6.127   6.179   7.736 -0.0266  0.2459  0.0253
  968POPC   C4B11076   5.946   6.328   8.108  0.1480  0.0416  0.0303
  969POPC   NC311077   9.446   5.313   6.180  0.1042 -0.2870 -0.2223
  969POPC   PO411078   9.773   5.513   6.092 -0.3158 -0.1728  0.0452
  969POPC   GL111079   9.759   5.694   6.426  0.0659  0.0716 -0.1131
  969POPC   GL211080   9.446   5.504   6.617  0.1164 -0.0080 -0.1930
  969POPC   C1A11081   9.891   5.616   6.817 -0.0235 -0.0751 -0.4784
  969POPC   D2A11082   9.791   5.469   7.188  0.1170  0.0725 -0.0927
  969POPC   C3A11083  10.228   5.286   7.267 -0.2601 -0.0185  0.0121
  969POPC   C4A11084  10.606   5.187   7.018 -0.3049  0.0643 -0.1146
  969POPC   C1B11085   9.354   5.282   6.975  0.4249  0.1339  0.0059
  969POPC   C2B11086   9.256   5.307   7.416 -0.1750 -0.3279  0.1890
  969POPC   C3B11087   9.048   5.305   7.879  0.1896 -0.0331  0.1260
  969POPC   C4B11088   9.146   5.193   8.260  0.1524  0.1475 -0.0671
  970POPC   NC311089  11.518  10.513   6.058  0.1615 -0.0483 -0.1673
  970POPC   PO411090  11.666  10.830   6.063 -0.1461  0.0901 -0.0864
  970POPC   GL111091  11.539  10.869   6.502  0.0630 -0.1402 -0.0822
  970POPC   GL211092  11.428  11.179   6.608  0.1917  0.1228  0.2122
  970POPC   C1A11093  11.394  10.757   6.905 -0.1710  0.2881  0.0202
  970POPC   D2A11094  11.077  10.634   7.160  0.1042  0.0945  0.0910
  970POPC   C3A11095  11.177  10.443   7.518  0.1190  0.1159  0.0770
  970POPC   C4A11096  11.479  10.085   7.651  0.0945  0.0118  0.0393
  970POPC   C1B11097  11.715  11.153   6.910 -0.1777 -0.3436  0.1165
  970POPC   C2B11098  11.663  10.950   7.271 -0.0022 -0.0558 -0.0437
  970POPC   C3B11099  11.632  11.245   7.562 -0.0254 -0.1435 -0.0118
  970POPC   C4B11100  11.263  11.385   7.929 -0.3265  0.0372 -0.0794
  971POPC   NC311101  16.564   8.674   5.361 -0.0240  0.1828 -0.1299
  971POPC   PO411102  16.993   8.579   5.646 -0.1398 -0.1248 -0.0159
  971POPC   GL111103  16.967   8.460   6.141 -0.0298 -0.0102  0.0271
  971POPC   GL211104  16.663   8.660   6.237 -0.1066 -0.0662 -0.0652
  971POPC   C1A11105  17.110   8.323   6.519  0.2240 -0.1135  0.1936
  971POPC   D2A11106  17.140   8.223   6.959  0.0791 -0.1558  0.0385
  971POPC   C3A11107  16.900   8.411   7.322 -0.1297 -0.2724 -0.0229
  971POPC   C4A11108  16.750   8.206   7.662 -0.0105 -0.2664 -0.1097
  971POPC   C1B11109  16.464   8.579   6.612 -0.1354  0.1323 -0.0346
  971POPC   C2B11110  16.541   8.560   6.933  0.0628 -0.1004 -0.1269
  971POPC   C3B11111  16.367   8.414   7.314  0.1719 -0.0650  0.2654
  971POPC   C4B11112  16.188   8.054   7.618 -0.4117 -0.0820  0.0687
  972POPC   NC311113  13.416   8.092   5.870  0.4052  0.0530 -0.0291
  972POPC   PO411114  13.005   7.879   5.874 -0.0406 -0.0984 -0.2437
  972POPC   GL111115  13.142   7.639   6.274 -0.1188 -0.0339  0.1921
  972POPC   GL211116  13.385   7.331   6.327 -0.3023 -0.1076 -0.0284
  972POPC   C1A11117  13.277   7.649   6.757 -0.2646 -0.1006  0.1676
  972POPC   D2A11118  13.624   7.631   6.801 -0.2748 -0.0485  0.0638
  972POPC   C3A11119  13.807   7.866   7.198  0.2372 -0.0107 -0.0873
  972POPC   C4A11120  13.989   7.993   7.563 -0.2602 -0.0109  0.2717
  972POPC   C1B11121  13.434   7.171   6.736  0.1357  0.1437  0.2918
  972POPC   C2B11122  13.589   7.221   7.106  0.1096 -0.0800  0.1407
  972POPC   C3B11123  13.346   7.416   7.401 -0.2576  0.1585  0.0823
  972POPC   C4B11124  13.281   7.317   7.880 -0.0222  0.2427 -0.1226
  973POPC   NC311125   1.818   5.647   5.885 -0.1575  0.2483 -0.1340
  973POPC   PO411126   2.104   5.770   6.182  0.0151  0.2409 -0.1481
  973POPC   GL111127   2.056   5.664   6.616  0.3563 -0.2446  0.1781
  973POPC   GL211128   1.762   5.535   6.537 -0.2520 -0.0574  0.2343
  973POPC   C1A11129   1.928   5.694   7.019  0.5623  0.0056 -0.2095
  973POPC   D2A11130   1.637   5.525   7.310 -0.0283  0.0641  0.2042
  973POPC   C3A11131   1.755   5.620   7.695  0.2035 -0.2512  0.2455
  973POPC   C4A11132   1.670   5.248   7.955 -0.0251  0.1098  0.0004
  973POPC   C1B11133   1.607   5.325   6.735 -0.2812  0.1761 -0.0005
  973POPC   C2B11134   1.271   5.300   6.973  0.2595 -0.0741  0.0214
  973POPC   C3B11135   1.067   5.277   7.310  0.0184  0.0011  0.2715
  973POPC   C4B11136   0.553   5.247   7.390  0.0806  0.0258  0.0880
  974POPC   NC311137  13.649   2.363   5.539 -0.0889  0.1070 -0.1906
  974POPC   PO411138  13.387   2.200   5.836  0.1767  0.0432  0.1758
  974POPC   GL111139  13.491   2.251   6.339  0.0287  0.3140  0.3008
  974POPC   GL211140  13.694   1.946   6.500 -0.4197  0.1630  0.0322
  974POPC   C1A11141  13.540   2.383   6.821 -0.0126  0.0501 -0.0345
  974POPC   D2A11142  13.669   2.374   7.192 -0.0800 -0.2964 -0.2369
  974POPC   C3A11143  13.725   2.445   7.626 -0.0283 -0.1233 -0.0775
  974POPC   C4A11144  13.679   2.283   8.057 -0.0172  0.0964  0.2469
  974POPC   C1B11145  13.656   1.770   6.972  0.0830  0.1582  0.0367
  974POPC   C2B11146  13.553   1.587   7.389  0.1094 -0.0843  0.2838
  974POPC   C3B11147  13.694   1.514   7.886  0.0877 -0.3091  0.0849
  974POPC   C4B11148  13.838   1.410   8.264  0.1375  0.1121 -0.0558
  975POPC   NC311149  16.848  17.116   6.001  0.0394  0.0959  0.1610
  975POPC   PO411150  16.833  17.458   5.814 -0.1530 -0.2823  0.1385
  975POPC   GL111151  16.494  17.432   6.085  0.2288 -0.2563 -0.2271
  975POPC   GL211152  16.660  17.330   6.414  0.3385  0.0337  0.2972
  975POPC   C1A11153  16.175  17.385   6.476 -0.0768 -0.0009 -0.1267
  975POPC   D2A11154  15.941  17.452   6.910  0.1526 -0.1271  0.1057
  975POPC   C3A11155  15.522  17.320   6.869 -0.1806  0.2074  0.1514
  975POPC   C4A11156  15.288  17.494   6.771  0.2266 -0.1163  0.2335
  975POPC   C1B11157  16.845  17.713   6.684  0.1088 -0.2046  0.0108
  975POPC   C2B11158  16.909  18.005   7.005 -0.0170 -0.1423 -0.2162
  975POPC   C3B11159  16.913  18.118   7.408 -0.0363 -0.0772 -0.2048
  975POPC   C4B11160  16.988  18.042   7.842  0.1972  0.0074 -0.0281
  976POPC   NC311161  11.936  13.309   6.488 -0.1542  0.2348  0.3960
  976POPC   PO411162  12.225  13.186   6.581 -0.1737  0.0868  0.3062
  976POPC   GL111163  12.335  12.923   6.950  0.0000  0.0600  0.2884
  976POPC   GL211164  12.483  12.677   7.005  0.0046 -0.0861  0.0006
  976POPC   C1A11165  12.376  13.030   7.372  0.1047  0.1917  0.0779
  976POPC   D2A11166  12.422  13.020   7.683  0.0020 -0.0548 -0.1305
  976POPC   C3A11167  12.216  13.057   8.009 -0.2615  0.1042 -0.2073
  976POPC   C4A11168  12.126  13.126   8.430 -0.1756  0.0996 -0.3607
  976POPC   C1B11169  12.648  12.565   7.356  0.0912  0.2225 -0.1672
  976POPC   C2B11170  12.593  12.493   7.750 -0.3102  0.1690 -0.1047
  976POPC   C3B11171  12.622  12.799   8.113  0.0794  0.1545 -0.2856
  976POPC   C4B11172  12.587  12.742   8.572 -0.0066  0.3436 -0.1016
  977POPC   NC311173   9.676  12.593   6.152  0.1938 -0.0132  0.0357
  977POPC   PO411174   9.858  12.192   6.239  0.2349 -0.0282  0.0148
  977POPC   GL111175   9.843  12.104   6.682 -0.0336  0.2728  0.0276
  977POPC   GL211176  10.040  12.362   6.778 -0.1220 -0.2986 -0.1149
  977POPC   C1A11177   9.883  11.971   7.060 -0.0792  0.1437 -0.1427
  977POPC   D2A11178   9.946  12.155   7.331  0.3083  0.0222 -0.1825
  977POPC   C3A11179   9.806  12.025   7.612 -0.2229 -0.1792  0.1798
  977POPC   C4A11180   9.522  12.145   7.944  0.0381  0.0213 -0.0656
  977POPC   C1B11181   9.668  12.499   6.977 -0.0131 -0.0318  0.1445
  977POPC   C2B11182   9.299  12.600   7.167 -0.1045  0.2791 -0.1963
  977POPC   C3B11183   9.222  12.606   7.584  0.0805  0.0760 -0.0875
  977POPC   C4B11184   9.156  12.526   8.029 -0.1900  0.2062  0.2035
  978POPC   NC311185   9.894  11.379   5.631 -0.1987 -0.3197  0.1260
  978POPC   PO411186   9.973  11.342   6.067  0.1434 -0.0219  0.1896
  978POPC   GL111187   9.998  11.381   6.486  0.4799  0.3458  0.1835
  978POPC   GL211188   9.928  11.116   6.622 -0.1228 -0.1331  0.0365
  978POPC   C1A11189   9.732  11.541   6.851  0.0566 -0.2834 -0.0831
  978POPC   D2A11190   9.733  11.596   7.310  0.2033  0.2344 -0.0975
  978POPC   C3A11191   9.881  11.242   7.566 -0.2369 -0.0496 -0.1799
  978POPC   C4A11192   9.884  11.206   8.113 -0.2023  0.2387  0.1292
  978POPC   C1B11193   9.603  11.047   6.962  0.0851 -0.2187  0.2799
  978POPC   C2B11194   9.468  11.019   7.430  0.1408  0.0233  0.1485
  978POPC   C3B11195   9.606  10.777   7.785 -0.2399 -0.0425  0.0865
  978POPC   C4B11196   9.424  10.941   8.195  0.1467 -0.1454  0.0892
  979YOPC   NC311197  15.110  11.504   5.763 -0.1265  0.0818  0.0935
  979YOPC   PO411198  14.739  11.680   5.866 -0.5123 -0.0468  0.1730
  979YOPC   GL111199  14.908  11.560   6.261 -0.3074  0.0101 -0.0782
  979YOPC   GL211200  14.691  11.677   6.595  0.3070 -0.1730 -0.0701
  979YOPC   C1A11201  15.044  11.286   6.610  0.0242  0.2095  0.0824
  979YOPC   D2A11202  15.069  11.314   7.010  0.0599  0.0979  0.1255
  979YOPC   C3A11203  14.746  11.424   7.333 -0.1456  0.0073 -0.1693
  979YOPC   C4A11204  14.588  11.723   7.647 -0.0035 -0.5269  0.0268
  979YOPC   C1B11205  14.617  11.278   6.773 -0.0719 -0.2855 -0.5045
  979YOPC   C2B11206  14.500  11.010   7.270  0.0807  0.0416  0.1707
  979YOPC   D3B11207  14.739  11.005   7.635 -0.2778  0.0049 -0.1708
  979YOPC   C4B11208  14.737  10.863   8.016  0.0689 -0.0994  0.2701
  980YOPC   NC311209   2.814  13.542   6.328 -0.1650  0.2212  0.0480
  980YOPC   PO411210   3.172  13.806   6.428 -0.0394  0.2778 -0.0790
  980YOPC   GL111211   3.387  13.928   6.773 -0.1109  0.3207  0.3527
  980YOPC   GL211212   3.004  14.006   6.862  0.1478 -0.2576 -0.0790
  980YOPC   C1A11213   3.517  14.219   7.105 -0.3207 -0.3350  0.0482
  980YOPC   D2A11214   3.446  14.713   7.076 -0.0608 -0.0095  0.2004
  980YOPC   C3A11215   3.910  14.954   6.968  0.4478  0.0275 -0.3105
  980YOPC   C4A11216   4.382  14.943   7.137 -0.1021  0.0772  0.0237
  980YOPC   C1B11217   3.075  13.894   7.318  0.0504  0.0726 -0.1171
  980YOPC   C2B11218   3.109  14.111   7.703 -0.0077 -0.0059  0.2914
  980YOPC   D3B11219   3.080  14.430   7.964  0.0287 -0.0262  0.1766
  980YOPC   C4B11220   2.797  14.550   8.371 -0.0845  0.3379 -0.0184
  981YOPC   NC311221   2.378   5.009   5.545  0.0216  0.2188 -0.0839
  981YOPC   PO411222   2.768   5.323   5.678 -0.2233 -0.0445 -0.0779
  981YOPC   GL111223   2.806   5.389   6.177 -0.2185  0.1146  0.1925
  981YOPC   GL211224   2.446   5.459   6.325  0.1053  0.0745  0.1793
  981YOPC   C1A11225   2.881   5.426   6.675  0.0762 -0.1274 -0.1506
  981YOPC   D2A11226   2.988   5.449   7.056  0.0059  0.1350  0.0559
  981YOPC   C3A11227   3.009   5.123   7.272  0.1803  0.0592 -0.0404
  981YOPC   C4A11228   3.107   5.052   7.672 -0.0310  0.0749 -0.1732
  981YOPC   C1B11229   2.441   5.645   6.803 -0.1266  0.2225 -0.0808
  981YOPC   C2B11230   2.409   5.672   7.198  0.1480 -0.1667 -0.1680
  981YOPC   D3B11231   2.633   5.996   7.352  0.0097 -0.0641  0.1512
  981YOPC   C4B11232   2.528   6.212   7.689  0.2444 -0.1368  0.1386
  982YOPC   NC311233   5.243   0.958   6.365 -0.0143 -0.0562 -0.0762
  982YOPC   PO411234   5.134   1.206   6.662 -0.3327  0.0670 -0.2058
  982YOPC   GL111235   5.081   0.794   6.924 -0.3288  0.1809 -0.0214
  982YOPC   GL211236   4.677   0.881   6.994  0.1118  0.3007 -0.1243
  982YOPC   C1A11237   5.283   0.447   7.139 -0.0024  0.0424  0.0517
  982YOPC   D2A11238   5.477   0.225   7.499  0.1496 -0.1543  0.0003
  982YOPC   C3A11239   5.547   0.380   7.848 -0.2519 -0.0512 -0.1798
  982YOPC   C4A11240   5.561   0.653   8.224 -0.0585  0.1891  0.3602
  982YOPC   C1B11241   4.767   0.838   7.394 -0.1091  0.0436 -0.1381
  982YOPC   C2B11242   4.733   0.888   7.908 -0.1832  0.2197 -0.0942
  982YOPC   D3B11243   4.479   0.958   8.283 -0.1388  0.1401  0.1334
  982YOPC   C4B11244   4.282   0.731   8.607 -0.1452 -0.0563 -0.1283
  983YOPC   NC311245  17.955  17.310   6.498 -0.2537 -0.0803  0.1378
  983YOPC   PO411246  17.643  17.246   6.169 -0.2072  0.1943  0.1742
  983YOPC   GL111247  17.399  17.159   6.624  0.2673 -0.2428  0.3094
  983YOPC   GL211248  17.029  17.055   6.695 -0.2740  0.1321 -0.1145
  983YOPC   C1A11249  17.330  16.981   7.077 -0.1591  0.2719 -0.3483
  983YOPC   D2A11250  17.095  16.810   7.442  0.3761 -0.0875  0.1290
  983YOPC   C3A11251  17.182  16.738   7.802 -0.2611  0.3438  0.2506
  983YOPC   C4A11252  17.445  16.803   8.104 -0.0611 -0.0722  0.0489
  983YOPC   C1B11253  16.879  17.324   7.103 -0.0848 -0.0855  0.2663
  983YOPC   C2B11254  16.853  17.640   7.390 -0.0701  0.2449  0.0840
  983YOPC   D3B11255  17.043  17.539   7.784 -0.1849  0.2347  0.2959
  983YOPC   C4B11256  16.986  17.314   8.222 -0.0061 -0.1476  0.2521
  984YOPC   NC311257   8.003   3.201   6.244 -0.0793  0.0634 -0.2573
  984YOPC   PO411258   7.891   2.733   6.253  0.1639 -0.1144 -0.0493
  984YOPC   GL111259   8.130   2.653   6.672  0.1278 -0.3678  0.2560
  984YOPC   GL211260   8.290   2.325   6.753 -0.2915 -0.1189  0.0304
  984YOPC   C1A11261   8.448   2.780   6.905  0.1659 -0.0809  0.1136
  984YOPC   D2A11262   8.457   2.662   7.307 -0.2640 -0.2423 -0.1135
  984YOPC   C3A11263   8.416   2.760   7.732 -0.2459 -0.1733 -0.0139
  984YOPC   C4A11264   8.086   2.823   8.038 -0.2284 -0.0949 -0.0066
  984YOPC   C1B11265   8.018   2.405   7.100  0.0199 -0.2329  0.1860
  984YOPC   C2B11266   7.999   2.559   7.480 -0.1264 -0.1524  0.1072
  984YOPC   D3B11267   8.033   2.387   7.872  0.1980 -0.2222 -0.1672
  984YOPC   C4B11268   7.710   2.248   8.117  0.1428  0.1002  0.0610
  985YOPC   NC311269   6.940   2.420   6.448  0.4470  0.1703  0.0517
  985YOPC   PO411270   6.968   2.915   6.192 -0.0912  0.0800  0.2168
  985YOPC   GL111271   6.984   2.861   6.678  0.0378 -0.1513  0.0025
  985YOPC   GL211272   6.745   3.060   6.985 -0.2676  0.5325  0.0126
  985YOPC   C1A11273   7.240   3.113   7.049 -0.1628  0.1108  0.0016
  985YOPC   D2A11274   7.381   3.285   7.360 -0.1212  0.3000 -0.0614
  985YOPC   C3A11275   7.076   3.188   7.598 -0.0386 -0.0361  0.2493
  985YOPC   C4A11276   7.011   3.149   8.001 -0.0544  0.2718  0.1423
  985YOPC   C1B11277   6.684   3.390   7.284  0.6109  0.0868 -0.2802
  985YOPC   C2B11278   6.595   3.884   7.434  0.2725  0.2083 -0.0841
  985YOPC   D3B11279   6.820   4.249   7.466 -0.1452 -0.2136  0.1830
  985YOPC   C4B11280   6.585   4.632   7.512 -0.0979 -0.0280 -0.0013
  986YOPC   NC311281   9.098   2.705   6.156 -0.0021 -0.0161  0.3690
  986YOPC   PO411282   9.156   3.003   6.421 -0.0139  0.1427  0.2821
  986YOPC   GL111283   9.040   2.982   6.901  0.0659  0.0776  0.0421
  986YOPC   GL211284   9.334   3.129   7.038  0.2205 -0.0770 -0.1242
  986YOPC   C1A11285   8.736   3.095   7.132 -0.0056  0.0235  0.3154
  986YOPC   D2A11286   8.659   3.142   7.574 -0.1051  0.2248  0.2010
  986YOPC   C3A11287   8.544   3.628   7.632 -0.0711  0.0226 -0.0197
  986YOPC   C4A11288   8.538   4.008   7.578  0.3109  0.3258  0.0239
  986YOPC   C1B11289   9.430   3.124   7.431  0.1737  0.1996 -0.0738
  986YOPC   C2B11290   9.280   2.957   7.801 -0.0247 -0.3225  0.1134
  986YOPC   D3B11291   9.360   3.151   8.115 -0.1101 -0.1159  0.1421
  986YOPC   C4B11292   9.411   3.512   8.357  0.0944 -0.1408  0.1120
  987YOPC   NC311293   9.586  13.677   6.276 -0.2281  0.5431  0.0524
  987YOPC   PO411294   9.201  13.667   6.115 -0.3751  0.1067 -0.1529
  987YOPC   GL111295   9.064  13.469   6.500  0.2849 -0.3008 -0.0285
  987YOPC   GL211296   9.273  13.340   6.687 -0.4383 -0.2437  0.1422
  987YOPC   C1A11297   8.785  13.405   6.773 -0.0384  0.0358 -0.0637
  987YOPC   D2A11298   8.451  13.505   6.642  0.0365 -0.2333 -0.0989
  987YOPC   C3A11299   8.310  13.551   7.072 -0.1667 -0.0587 -0.2092
  987YOPC   C4A11300   8.264  13.444   7.511  0.0679 -0.0027  0.1342
  987YOPC   C1B11301   9.094  13.189   7.068 -0.0981 -0.1474  0.1410
  987YOPC   C2B11302   9.200  13.099   7.442 -0.0464 -0.1363  0.1543
  987YOPC   D3B11303   8.972  13.046   7.826  0.3393 -0.0515 -0.2606
  987YOPC   C4B11304   8.731  13.100   8.186 -0.1999 -0.0949 -0.0140
  988YOPC   NC311305   4.004   9.917   6.422  0.2409  0.0510  0.3291
  988YOPC   PO411306   4.312  10.269   6.370 -0.1115  0.0987 -0.0608
  988YOPC   GL111307   4.333   9.972   6.747 -0.2473  0.3379 -0.1209
  988YOPC   GL211308   4.128   9.600   6.783  0.2103 -0.2682  0.3094
  988YOPC   C1A11309   4.626   9.701   6.904  0.2138  0.0336 -0.0393
  988YOPC   D2A11310   5.016   9.490   6.813  0.0157 -0.1048 -0.1208
  988YOPC   C3A11311   5.010   9.284   6.636  0.1982  0.0853  0.0398
  988YOPC   C4A11312   4.631   9.173   6.365  0.0861 -0.2171 -0.0800
  988YOPC   C1B11313   4.259   9.669   7.222 -0.1806 -0.1836  0.0913
  988YOPC   C2B11314   4.533   9.812   7.463  0.1438 -0.2897  0.0840
  988YOPC   D3B11315   4.499   9.964   7.870  0.1355 -0.1073 -0.0118
  988YOPC   C4B11316   4.534  10.228   8.262 -0.2026 -0.1491 -0.0308
  989YOPC   NC311317   9.516   0.917   6.906  0.0611 -0.2791 -0.0498
  989YOPC   PO411318   9.736   0.581   6.683  0.2642  0.0184 -0.0581
  989YOPC   GL111319   9.665   0.483   7.166  0.0512 -0.0812  0.2029
  989YOPC   GL211320   9.906   0.622   7.329 -0.0061 -0.1568  0.1718
  989YOPC   C1A11321   9.737   0.196   7.601 -0.1982 -0.3358 -0.0321
  989YOPC   D2A11322   9.520   0.087   7.939 -0.0127  0.1130  0.4428
  989YOPC   C3A11323   9.117   0.279   7.989  0.1559  0.3344 -0.1233
  989YOPC   C4A11324   8.913   0.586   8.106  0.0957  0.1371 -0.1641
  989YOPC   C1B11325   9.786   0.843   7.629  0.1111  0.1453 -0.2164
  989YOPC   C2B11326   9.840   0.952   8.109  0.2840  0.2625 -0.2099
  989YOPC   D3B11327   9.579   1.074   8.466 -0.2060  0.1181 -0.0765
  989YOPC   C4B11328   9.365   1.045   8.749 -0.0027  0.0062 -0.0709
  990YOPC   NC311329  15.275   3.643   5.610  0.0415  0.0571  0.2652
  990YOPC   PO411330  14.767   3.680   5.808  0.1307  0.0166 -0.2142
  990YOPC   GL111331  15.122   3.862   6.029  0.2551  0.0534 -0.1571
  990YOPC   GL211332  15.233   3.540   6.218  0.0937 -0.0253  0.1926
  990YOPC   C1A11333  15.057   4.188   6.386 -0.1625  0.1627  0.0479
  990YOPC   D2A11334  15.376   4.358   6.565  0.2226 -0.1982 -0.3542
  990YOPC   C3A11335  15.409   4.341   6.979 -0.0737  0.1788 -0.0112
  990YOPC   C4A11336  15.398   4.287   7.402 -0.1122  0.1332  0.2506
  990YOPC   C1B11337  15.229   3.616   6.676 -0.1976  0.1176 -0.2497
  990YOPC   C2B11338  15.090   3.590   7.122 -0.0003 -0.1116  0.1687
  990YOPC   D3B11339  15.439   3.723   7.615  0.1135  0.2823 -0.0297
  990YOPC   C4B11340  15.378   4.016   7.970  0.1254  0.1300 -0.1464
  991YOPC   NC311341  16.390  10.214   5.722  0.2146 -0.1457 -0.2724
  991YOPC   PO411342  16.729   9.950   6.030 -0.1028 -0.2025  0.1080
  991YOPC   GL111343  16.698   9.810   6.398  0.0602  0.2595  0.0972
  991YOPC   GL211344  16.514   9.604   6.456  0.4617  0.0730  0.3141
  991YOPC   C1A11345  16.477  10.082   6.720 -0.2193 -0.4379  0.2108
  991YOPC   D2A11346  16.430  10.165   7.070  0.1586 -0.2095 -0.2550
  991YOPC   C3A11347  16.341   9.997   7.399 -0.1188 -0.0798  0.1814
  991YOPC   C4A11348  16.216  10.064   7.791 -0.1832 -0.1073 -0.3346
  991YOPC   C1B11349  16.521   9.655   6.882  0.0136 -0.1066  0.0673
  991YOPC   C2B11350  16.520   9.501   7.274 -0.4763 -0.2662  0.1856
  991YOPC   D3B11351  16.616   9.620   7.653  0.0940  0.1446  0.0277
  991YOPC   C4B11352  16.642   9.687   8.029  0.2193  0.0329 -0.0321
  992YOPC   NC311353   2.339   8.964   5.749 -0.1124 -0.0932 -0.0357
  992YOPC   PO411354   2.005   8.880   5.976 -0.0624 -0.1162  0.1171
  992YOPC   GL111355   2.055   8.873   6.321  0.1286  0.0571  0.0224
  992YOPC   GL211356   1.884   8.681   6.484  0.0735  0.1376  0.0212
  992YOPC   C1A11357   2.380   8.782   6.760  0.1372 -0.2928 -0.0876
  992YOPC   D2A11358   2.586   8.680   7.122 -0.0592  0.1144  0.1196
  992YOPC   C3A11359   2.566   8.832   7.571  0.1408 -0.0071 -0.2303
  992YOPC   C4A11360   2.654   9.043   7.908 -0.1379  0.2156  0.0833
  992YOPC   C1B11361   1.842   8.673   6.929  0.0583 -0.2038 -0.2066
  992YOPC   C2B11362   1.710   8.503   7.223 -0.2646  0.1359 -0.2626
  992YOPC   D3B11363   1.813   8.751   7.662  0.2912 -0.1050  0.0035
  992YOPC   C4B11364   2.004   8.649   8.107  0.1637 -0.1339  0.0466
  993YOPC   NC311365  17.184   9.746   5.998 -0.1251  0.3051 -0.2608
  993YOPC   PO411366  17.508   9.957   6.234  0.0941  0.1517 -0.2388
  993YOPC   GL111367  17.506   9.762   6.603  0.1467  0.3844  0.1998
  993YOPC   GL211368  17.766   9.664   6.554  0.0183  0.1263 -0.0455
  993YOPC   C1A11369  17.624   9.737   7.038 -0.3009 -0.0974  0.2578
  993YOPC   D2A11370  17.494   9.677   7.426  0.1658 -0.1164 -0.0816
  993YOPC   C3A11371  17.754   9.882   7.659  0.2590 -0.1741 -0.1475
  993YOPC   C4A11372  18.066  10.230   7.416  0.2633 -0.2313 -0.2262
  993YOPC   C1B11373  18.281   9.649   6.788 -0.1122 -0.3156  0.2126
  993YOPC   C2B11374  18.616   9.466   7.023 -0.1673  0.2086  0.3593
  993YOPC   D3B11375  18.476   9.314   7.332 -0.1247 -0.0583  0.2760
  993YOPC   C4B11376  18.657   9.400   7.734 -0.1307 -0.5412  0.2185
  994YOPC   NC311377   4.287   5.181   5.848  0.1690 -0.2159 -0.7779
  994YOPC   PO411378   3.920   5.089   5.972  0.0151  0.0726 -0.2233
  994YOPC   GL111379   4.083   5.094   6.369  0.1182  0.1133  0.0335
  994YOPC   GL211380   4.230   5.405   6.358 -0.1480  0.2622  0.0479
  994YOPC   C1A11381   3.974   5.193   6.765  0.2386  0.1813  0.3254
  994YOPC   D2A11382   4.124   5.262   7.175 -0.1789  0.0406  0.0488
  994YOPC   C3A11383   3.955   5.081   7.484 -0.0038 -0.2220  0.1383
  994YOPC   C4A11384   3.862   4.954   7.789  0.1281  0.2067 -0.2140
  994YOPC   C1B11385   4.179   5.647   6.793 -0.0680 -0.0763  0.1358
  994YOPC   C2B11386   4.121   5.768   7.179 -0.0034 -0.3998 -0.1186
  994YOPC   D3B11387   4.412   5.723   7.493  0.1481  0.2141  0.1007
  994YOPC   C4B11388   4.558   5.673   7.802 -0.0077  0.2244 -0.1631
  995YOPC   NC311389   3.221   9.831   6.389 -0.0681 -0.2754  0.0337
  995YOPC   PO411390   2.759   9.979   6.520 -0.1236  0.1294 -0.0133
  995YOPC   GL111391   2.778   9.846   6.876  0.2151  0.1984  0.0013
  995YOPC   GL211392   2.422   9.688   6.910 -0.3556 -0.1334  0.2172
  995YOPC   C1A11393   2.741   9.791   7.304 -0.0668 -0.0773  0.1442
  995YOPC   D2A11394   2.890   9.631   7.610 -0.1524  0.3122 -0.0398
  995YOPC   C3A11395   2.736   9.954   7.936 -0.4841 -0.0226  0.0415
  995YOPC   C4A11396   2.520  10.310   8.208 -0.0831  0.0464 -0.0936
  995YOPC   C1B11397   2.205  10.025   7.072 -0.0753  0.1005  0.0616
  995YOPC   C2B11398   1.795  10.050   7.288 -0.0251  0.1093  0.0253
  995YOPC   D3B11399   1.749  10.087   7.768  0.0209 -0.0922  0.1766
  995YOPC   C4B11400   1.462  10.020   8.161  0.2583 -0.2155 -0.2202
  996YOPC   NC311401   1.302  15.784   6.525  0.0065  0.1059 -0.0309
  996YOPC   PO411402   1.632  15.519   6.731 -0.0836 -0.4837 -0.1409
  996YOPC   GL111403   1.723  15.176   7.030  0.2098  0.2502 -0.2439
  996YOPC   GL211404   1.955  14.946   7.014 -0.2095 -0.0231  0.2381
  996YOPC   C1A11405   1.470  14.925   7.397 -0.0387 -0.2942  0.1500
  996YOPC   D2A11406   1.424  14.842   7.841  0.1410 -0.1064 -0.3472
  996YOPC   C3A11407   1.495  14.747   8.259 -0.2659 -0.1056  0.1021
  996YOPC   C4A11408   1.702  14.773   8.606 -0.1213 -0.1787 -0.0988
  996YOPC   C1B11409   2.012  14.922   7.379  0.0417 -0.0142  0.1109
  996YOPC   C2B11410   1.928  14.932   7.899 -0.1106 -0.0839 -0.0365
  996YOPC   D3B11411   2.031  14.784   8.233 -0.0950  0.0556 -0.1292
  996YOPC   C4B11412   2.138  15.034   8.616 -0.1619  0.0443 -0.0978
  997YOPC   NC311413  14.301   1.835   6.007  0.2797 -0.3099 -0.0278
  997YOPC   PO411414  14.439   1.381   6.096  0.1331 -0.2922 -0.0856
  997YOPC   GL111415  14.650   1.142   6.446  0.0509 -0.0869 -0.0948
  997YOPC   GL211416  14.500   0.816   6.595  0.0344  0.2371  0.1807
  997YOPC   C1A11417  14.699   1.265   6.859 -0.0879 -0.0951  0.1597
  997YOPC   D2A11418  14.740   1.232   7.253  0.1262 -0.1019  0.0849
  997YOPC   C3A11419  14.836   0.910   7.540 -0.0118  0.1588  0.0926
  997YOPC   C4A11420  15.154   0.506   7.668  0.0069  0.2311  0.1166
  997YOPC   C1B11421  14.577   0.725   7.007 -0.2076 -0.0358  0.1367
  997YOPC   C2B11422  14.687   0.520   7.338 -0.0465  0.0624 -0.0052
  997YOPC   D3B11423  14.659   0.476   7.785  0.1013 -0.3565 -0.3765
  997YOPC   C4B11424  14.668   0.316   8.157  0.1834 -0.2947  0.1294
  998YOPC   NC311425  16.938   3.841   5.323 -0.5537  0.2077  0.1859
  998YOPC   PO411426  16.843   4.186   5.500 -0.2536  0.0247  0.0586
  998YOPC   GL111427  16.879   4.280   5.833 -0.0918  0.2523  0.0662
  998YOPC   GL211428  16.944   4.694   5.748  0.0507  0.0946  0.1891
  998YOPC   C1A11429  17.156   4.378   6.150 -0.0112 -0.2166  0.2838
  998YOPC   D2A11430  17.169   4.679   6.508  0.1434 -0.0577 -0.1352
  998YOPC   C3A11431  16.848   4.553   6.895  0.0491 -0.2151 -0.2907
  998YOPC   C4A11432  16.851   4.507   7.312  0.1939 -0.0877  0.2030
  998YOPC   C1B11433  16.801   4.751   6.161  0.3585 -0.1758  0.0668
  998YOPC   C2B11434  16.691   4.820   6.530 -0.0436 -0.1149  0.0794
  998YOPC   D3B11435  16.607   5.304   6.586 -0.0417 -0.2816 -0.1099
  998YOPC   C4B11436  16.618   5.481   6.933  0.3746 -0.1614  0.0559
  999YOPC   NC311437  16.888  10.236   5.639  0.2386  0.1799  0.0586
  999YOPC   PO411438  16.677  10.556   5.934 -0.1387  0.3399 -0.0046
  999YOPC   GL111439  16.751  10.341   6.384  0.0842 -0.2967  0.0308
  999YOPC   GL211440  16.509  10.534   6.564  0.1514 -0.3370 -0.2641
  999YOPC   C1A11441  16.914  10.460   6.847  0.4158  0.0637 -0.0120
  999YOPC   D2A11442  16.838  10.444   7.279 -0.3764  0.0241 -0.0557
  999YOPC   C3A11443  16.984  10.612   7.739 -0.0376  0.1625  0.1269
  999YOPC   C4A11444  17.414  10.674   7.950 -0.0185  0.0527  0.1458
  999YOPC   C1B11445  16.342  10.749   6.856 -0.0195 -0.1150 -0.0197
  999YOPC   C2B11446  16.398  10.855   7.322  0.0635 -0.0147 -0.2408
  999YOPC   D3B11447  16.448  10.498   7.597 -0.0260 -0.0611  0.0311
  999YOPC   C4B11448  16.335  10.463   8.096 -0.0868  0.1847 -0.4411
 1000YOPC   NC311449   3.160  15.276   6.011  0.1952 -0.0699 -0.1548
 1000YOPC   PO411450   3.517  15.563   6.114 -0.4100  0.2979 -0.0269
 1000YOPC   GL111451   3.721  15.591   6.544  0.1648 -0.0947 -0.0549
 1000YOPC   GL211452   3.876  15.356   6.685  0.2521 -0.3469 -0.1313
 1000YOPC   C1A11453   3.991  15.845   6.809 -0.0143  0.0021  0.0360
 1000YOPC   D2A11454   4.177  16.285   6.990  0.0628  0.0080  0.0031
 1000YOPC   C3A11455   4.367  16.336   7.438 -0.0005 -0.2556  0.0853
 1000YOPC   C4A11456   4.419  16.275   7.854  0.2977 -0.1439 -0.1468
 1000YOPC   C1B11457   3.811  15.467   7.099 -0.1982 -0.1215  0.0217
 1000YOPC   C2B11458   4.026  15.851   7.308 -0.0101 -0.1673 -0.1073
 1000YOPC   D3B11459   4.013  16.032   7.674 -0.2375 -0.1120  0.0354
 1000YOPC   C4B11460   3.968  16.229   8.077  0.1793  0.1372 -0.2248
 1001YOPC   NC311461  12.331   4.324   6.704  0.0703  0.3930  0.0142
 1001YOPC   PO411462  12.211   4.741   6.558 -0.4842 -0.1409  0.2690
 1001YOPC   GL111463  12.052   5.023   6.903  0.1228 -0.0140 -0.1595
 1001YOPC   GL211464  12.288   4.863   7.064  0.0368  0.0561  0.1193
 1001YOPC   C1A11465  12.013   5.288   7.234 -0.2969 -0.2071 -0.2184
 1001YOPC   D2A11466  12.045   5.451   7.698  0.3581  0.1417 -0.3123
 1001YOPC   C3A11467  12.018   5.185   8.131  0.0018  0.2212 -0.1445
 1001YOPC   C4A11468  11.787   4.930   8.362 -0.0284 -0.0450 -0.0203
 1001YOPC   C1B11469  12.325   4.957   7.421  0.1383  0.0381 -0.0270
 1001YOPC   C2B11470  12.283   5.000   7.771  0.1794 -0.4734  0.2644
 1001YOPC   D3B11471  12.606   4.946   8.101 -0.0660 -0.1426  0.1985
 1001YOPC   C4B11472  12.909   5.012   8.418  0.1233  0.0531  0.0918
 1002YOPC   NC311473  15.075   5.492   5.396  0.3612 -0.0020 -0.0972
 1002YOPC   PO411474  15.482   5.566   5.705 -0.0906 -0.1584  0.0818
 1002YOPC   GL111475  15.583   5.387   6.112  0.0686  0.2282  0.2771
 1002YOPC   GL211476  15.352   5.530   6.434 -0.0053 -0.2362 -0.2621
 1002YOPC   C1A11477  15.680   5.255   6.620 -0.1569 -0.0827  0.0771
 1002YOPC   D2A11478  15.882   5.120   7.112 -0.0342  0.4179  0.2495
 1002YOPC   C3A11479  16.279   5.315   7.281  0.0425 -0.1580 -0.1356
 1002YOPC   C4A11480  16.413   5.773   7.353  0.1367 -0.1786 -0.0245
 1002YOPC   C1B11481  15.318   6.007   6.604  0.1679  0.1086  0.2647
 1002YOPC   C2B11482  15.498   6.254   6.960  0.2121  0.2957 -0.1595
 1002YOPC   D3B11483  15.655   6.108   7.422 -0.0779  0.0977 -0.1252
 1002YOPC   C4B11484  15.793   6.114   7.885  0.1409  0.2300 -0.2911
 1003YOPC   NC311485   8.782   8.976   6.100 -0.1838  0.2195  0.0156
 1003YOPC   PO411486   8.404   8.660   6.100  0.2149 -0.0538 -0.2240
 1003YOPC   GL111487   8.376   8.950   6.527  0.1146  0.0530 -0.0865
 1003YOPC   GL211488   8.447   8.622   6.610 -0.2823 -0.0993 -0.1164
 1003YOPC   C1A11489   8.568   9.347   6.721  0.0240 -0.1065 -0.3663
 1003YOPC   D2A11490   8.979   9.372   6.922 -0.0450  0.3924  0.4682
 1003YOPC   C3A11491   9.090   9.460   7.286 -0.5079 -0.0046  0.0489
 1003YOPC   C4A11492   9.277   9.283   7.600 -0.3096 -0.1605  0.0630
 1003YOPC   C1B11493   8.198   8.723   6.958 -0.0732 -0.1116 -0.0749
 1003YOPC   C2B11494   8.134   8.898   7.398  0.0985 -0.0567  0.0521
 1003YOPC   D3B11495   8.241   8.940   7.753 -0.0047 -0.1200 -0.1546
 1003YOPC   C4B11496   8.396   9.111   8.129  0.1154  0.2550 -0.0292
 1004YOPC   NC311497   0.489   6.158   5.826  0.0743  0.5233 -0.4052
 1004YOPC   PO411498   0.160   6.405   5.882  0.0727 -0.0963  0.0460
 1004YOPC   GL111499   0.138   6.652   6.254 -0.0324  0.1229 -0.0547
 1004YOPC   GL211500  -0.226   6.660   6.292  0.4233  0.2401  0.3767
 1004YOPC   C1A11501   0.084   6.717   6.684 -0.1649 -0.0768 -0.0633
 1004YOPC   D2A11502  -0.044   6.515   7.079 -0.1611 -0.0663  0.1830
 1004YOPC   C3A11503  -0.072   6.669   7.443  0.3620 -0.1098 -0.0840
 1004YOPC   C4A11504  -0.068   6.873   7.829 -0.1918 -0.3166  0.2073
 1004YOPC   C1B11505  -0.372   6.492   6.709  0.2087  0.2094 -0.1321
 1004YOPC   C2B11506  -0.526   6.184   6.876 -0.1085  0.1609 -0.0208
 1004YOPC   D3B11507  -0.909   6.183   7.187  0.2446  0.0453 -0.1597
 1004YOPC   C4B11508  -1.010   6.448   7.572  0.0608 -0.4613  0.1270
 1005YOPC   NC311509   4.088  13.525   5.955  0.2093  0.1516 -0.0596
 1005YOPC   PO411510   4.136  13.660   6.348 -0.0580  0.1311 -0.1541
 1005YOPC   GL111511   4.064  13.806   6.756  0.1136 -0.2283 -0.4532
 1005YOPC   GL211512   3.874  13.612   6.954  0.0738  0.3003  0.3328
 1005YOPC   C1A11513   4.058  14.002   7.128 -0.0173 -0.0292  0.0332
 1005YOPC   D2A11514   3.946  14.071   7.571  0.2502  0.1271 -0.3662
 1005YOPC   C3A11515   3.780  13.855   7.781  0.2350 -0.1099 -0.0893
 1005YOPC   C4A11516   3.900  13.560   7.984 -0.1613  0.2240 -0.0998
 1005YOPC   C1B11517   3.621  13.786   7.274 -0.0287 -0.2529 -0.0801
 1005YOPC   C2B11518   3.318  13.661   7.689  0.0479  0.0054  0.1092
 1005YOPC   D3B11519   3.490  13.358   7.969 -0.1517  0.0804  0.3694
 1005YOPC   C4B11520   3.696  13.052   8.127 -0.2982 -0.1185  0.1085
 1006YOPC   NC311521   5.091   5.274   5.788 -0.0770  0.0799  0.0142
 1006YOPC   PO411522   5.024   4.981   6.118 -0.1070  0.3055 -0.0582
 1006YOPC   GL111523   5.148   4.837   6.548  0.2650  0.2993 -0.0003
 1006YOPC   GL211524   5.403   5.110   6.531 -0.1934 -0.0168 -0.2658
 1006YOPC   C1A11525   5.396   4.803   6.907 -0.3618 -0.3009  0.2061
 1006YOPC   D2A11526   5.794   4.734   7.162 -0.5118  0.2432  0.1788
 1006YOPC   C3A11527   5.946   4.649   7.588  0.1880 -0.4472 -0.3473
 1006YOPC   C4A11528   5.901   4.938   7.839 -0.2256 -0.0655 -0.3024
 1006YOPC   C1B11529   5.456   5.332   6.967 -0.0949  0.1852 -0.1362
 1006YOPC   C2B11530   5.676   5.611   7.126 -0.1926  0.0263 -0.0660
 1006YOPC   D3B11531   5.728   5.608   7.603  0.5009  0.0367  0.1080
 1006YOPC   C4B11532   5.669   5.847   7.949 -0.1623  0.3999 -0.1157
 1007YOPC   NC311533  14.025   3.028   5.781  0.0592 -0.0843  0.0388
 1007YOPC   PO411534  14.296   2.968   6.059  0.2553  0.3160 -0.2014
 1007YOPC   GL111535  13.973   2.941   6.386 -0.1465 -0.6067  0.0251
 1007YOPC   GL211536  13.977   3.288   6.515  0.0107  0.0205 -0.1476
 1007YOPC   C1A11537  13.654   2.864   6.648 -0.2420 -0.0886 -0.2951
 1007YOPC   D2A11538  13.513   2.908   7.042  0.0589  0.0420  0.1726
 1007YOPC   C3A11539  13.147   3.156   7.111  0.1733  0.1440  0.1437
 1007YOPC   C4A11540  13.046   3.507   7.036 -0.1666  0.0946  0.0783
 1007YOPC   C1B11541  13.957   3.236   6.952 -0.2025 -0.2241  0.0796
 1007YOPC   C2B11542  13.853   3.173   7.343  0.2061 -0.1420 -0.0409
 1007YOPC   D3B11543  14.005   2.913   7.699  0.0458  0.3554  0.1056
 1007YOPC   C4B11544  14.308   2.865   8.003 -0.2134 -0.1718  0.1430
 1008YOPC   NC311545   1.626   7.627   5.753  0.0080 -0.1116 -0.2374
 1008YOPC   PO411546   1.630   7.796   6.122  0.2587 -0.0365 -0.2214
 1008YOPC   GL111547   1.786   7.708   6.506  0.3850  0.0255 -0.2759
 1008YOPC   GL211548   2.008   7.912   6.613 -0.0160 -0.2840  0.0386
 1008YOPC   C1A11549   1.873   7.396   6.790  0.0914 -0.1646 -0.1138
 1008YOPC   D2A11550   1.849   7.371   7.256  0.2309 -0.0302  0.1630
 1008YOPC   C3A11551   1.850   7.445   7.613 -0.0030 -0.1290 -0.1719
 1008YOPC   C4A11552   1.811   7.737   7.878  0.0404 -0.2616 -0.3660
 1008YOPC   C1B11553   1.798   7.895   6.973  0.0780  0.0485 -0.1044
 1008YOPC   C2B11554   1.888   8.022   7.413 -0.3117 -0.1180 -0.2896
 1008YOPC   D3B11555   2.070   8.287   7.695  0.1759  0.2745 -0.0388
 1008YOPC   C4B11556   2.478   8.389   7.958 -0.0637 -0.1222 -0.0456
 1009YOPC   NC311557  18.064   8.317   5.476  0.0194  0.0259  0.1869
 1009YOPC   PO411558  18.267   8.068   5.810 -0.4092 -0.1461 -0.0834
 1009YOPC   GL111559  18.140   7.950   6.198 -0.0727  0.3346  0.1686
 1009YOPC   GL211560  18.253   7.698   6.341  0.0323  0.1822 -0.0682
 1009YOPC   C1A11561  17.779   7.866   6.427 -0.2194  0.1383  0.0154
 1009YOPC   D2A11562  17.525   8.034   6.677 -0.1206  0.2345 -0.2624
 1009YOPC   C3A11563  17.502   8.492   6.821 -0.0354 -0.1184 -0.1031
 1009YOPC   C4A11564  17.678   8.884   6.822  0.0536  0.0260  0.0874
 1009YOPC   C1B11565  17.994   7.619   6.723  0.0365 -0.2368 -0.1734
 1009YOPC   C2B11566  17.839   7.531   7.147 -0.0717  0.0678  0.0753
 1009YOPC   D3B11567  17.913   7.821   7.480  0.1152 -0.0232 -0.0946
 1009YOPC   C4B11568  17.915   8.213   7.550 -0.3172  0.1419 -0.0329
 1010YOPC   NC311569   4.469  12.421   6.403  0.1365 -0.2294  0.0779
 1010YOPC   PO411570   4.087  12.239   6.235  0.2203  0.1009 -0.0194
 1010YOPC   GL111571   4.120  12.205   6.729 -0.1382 -0.0680  0.0379
 1010YOPC   GL211572   4.292  12.341   6.927 -0.0427 -0.0917 -0.0506
 1010YOPC   C1A11573   3.762  12.196   7.071  0.0629 -0.0828 -0.0968
 1010YOPC   D2A11574   3.637  12.325   7.496 -0.1620 -0.1493  0.0754
 1010YOPC   C3A11575   3.576  12.119   7.868  0.0278  0.3160 -0.2869
 1010YOPC   C4A11576   3.692  11.941   8.264 -0.4323  0.0910  0.0958
 1010YOPC   C1B11577   4.261  12.176   7.238 -0.1511 -0.1777  0.2501
 1010YOPC   C2B11578   4.430  12.083   7.624  0.0029  0.2928 -0.0057
 1010YOPC   D3B11579   4.532  12.330   7.977 -0.0643  0.0593  0.1396
 1010YOPC   C4B11580   4.430  12.603   8.245  0.0596 -0.1491  0.2310
 1011YOPC   NC311581   9.002   9.694   5.887 -0.4153  0.1565 -0.0644
 1011YOPC   PO411582   8.684   9.484   5.963 -0.1978 -0.0447  0.0502
 1011YOPC   GL111583   8.683   9.696   6.294 -0.1591 -0.1668 -0.0199
 1011YOPC   GL211584   8.376   9.825   6.419 -0.2392  0.2487  0.0514
 1011YOPC   C1A11585   8.858   9.823   6.754  0.1344 -0.1269 -0.1201
 1011YOPC   D2A11586   8.881   9.797   7.089  0.1149  0.0546 -0.0961
 1011YOPC   C3A11587   8.602   9.571   7.240 -0.1792 -0.2343  0.4488
 1011YOPC   C4A11588   8.414   9.194   7.166  0.0066  0.2222 -0.0877
 1011YOPC   C1B11589   8.342   9.810   6.763  0.0571 -0.3414 -0.1494
 1011YOPC   C2B11590   8.529  10.137   7.033  0.4290 -0.1167  0.1002
 1011YOPC   D3B11591   8.439  10.036   7.445 -0.1205 -0.1473  0.1333
 1011YOPC   C4B11592   8.373   9.867   7.943  0.2598 -0.0094 -0.3441
 1012YOPC   NC311593   0.453   1.321   6.162  0.1474  0.1544  0.0742
 1012YOPC   PO411594   0.770   1.453   5.932  0.0769  0.1399 -0.0063
 1012YOPC   GL111595   0.803   1.586   6.341  0.0101  0.1783  0.0742
 1012YOPC   GL211596   0.902   1.300   6.512 -0.0609 -0.0673  0.0460
 1012YOPC   C1A11597   0.637   1.742   6.753 -0.1553 -0.0899  0.5428
 1012YOPC   D2A11598   0.225   1.887   6.771 -0.1139 -0.2070 -0.3358
 1012YOPC   C3A11599   0.067   2.165   7.182  0.0648 -0.0991 -0.3799
 1012YOPC   C4A11600   0.069   2.335   7.574  0.0222 -0.1761  0.0355
 1012YOPC   C1B11601   0.874   1.333   6.923  0.2307  0.0055 -0.0947
 1012YOPC   C2B11602   0.599   1.436   7.298  0.0457 -0.0775  0.0863
 1012YOPC   D3B11603   0.792   1.826   7.575  0.0554  0.0107 -0.0088
 1012YOPC   C4B11604   1.033   2.102   7.641  0.1493 -0.0475  0.1968
 1013YOPC   NC311605  14.995   2.732   6.044 -0.0677  0.0473 -0.2147
 1013YOPC   PO411606  14.799   3.162   6.157 -0.0101  0.2566 -0.0235
 1013YOPC   GL111607  14.486   2.912   6.528  0.1585 -0.0578  0.1173
 1013YOPC   GL211608  14.544   2.569   6.514 -0.1753  0.1656  0.0783
 1013YOPC   C1A11609  14.448   3.027   6.941  0.0394  0.1799 -0.1523
 1013YOPC   D2A11610  14.312   3.177   7.344 -0.1924 -0.1602 -0.0788
 1013YOPC   C3A11611  14.326   3.299   7.678  0.1151  0.2364  0.1224
 1013YOPC   C4A11612  14.154   3.584   7.955  0.1571 -0.1282  0.1410
 1013YOPC   C1B11613  14.815   2.680   6.865  0.1085  0.0896  0.0404
 1013YOPC   C2B11614  14.733   2.525   7.274  0.0568  0.0212 -0.1370
 1013YOPC   D3B11615  15.020   2.169   7.403 -0.0406 -0.0646  0.2395
 1013YOPC   C4B11616  15.229   1.885   7.365 -0.3054  0.1257  0.2797
 1014YOPC   NC311617   9.115   1.899   6.719 -0.1213 -0.0799 -0.2120
 1014YOPC   PO411618   9.339   2.160   6.909 -0.2517 -0.1247 -0.0376
 1014YOPC   GL111619   9.138   2.008   7.268  0.1999 -0.2031  0.0438
 1014YOPC   GL211620   8.916   1.666   7.209  0.0869 -0.1401  0.2420
 1014YOPC   C1A11621   8.931   2.174   7.621  0.2710 -0.2853  0.5587
 1014YOPC   D2A11622   8.768   1.936   8.081 -0.0381 -0.1463  0.4864
 1014YOPC   C3A11623   8.828   2.062   8.404 -0.1111  0.1635  0.1990
 1014YOPC   C4A11624   8.512   2.237   8.690 -0.0692 -0.2405 -0.0664
 1014YOPC   C1B11625   8.950   1.618   7.628 -0.5248  0.3728 -0.0814
 1014YOPC   C2B11626   8.794   1.403   7.923 -0.0068  0.0350 -0.0465
 1014YOPC   D3B11627   8.658   1.534   8.294 -0.0015 -0.3057 -0.2784
 1014YOPC   C4B11628   8.370   1.766   8.559 -0.0869 -0.0840 -0.0499
 1015YOPC   NC311629   4.902  10.228   5.657  0.2573  0.2160  0.1833
 1015YOPC   PO411630   4.700  10.001   6.036 -0.0542 -0.0951  0.0436
 1015YOPC   GL111631   4.764  10.152   6.515  0.4313  0.0167  0.0344
 1015YOPC   GL211632   5.043   9.994   6.508  0.0896 -0.0632  0.0634
 1015YOPC   C1A11633   4.736  10.301   6.935 -0.0373  0.0283  0.1920
 1015YOPC   D2A11634   4.788  10.305   7.338  0.3223 -0.4207  0.0488
 1015YOPC   C3A11635   5.040  10.042   7.604 -0.0826  0.2636 -0.5469
 1015YOPC   C4A11636   4.985  10.020   8.003  0.0733  0.0067  0.1294
 1015YOPC   C1B11637   5.046   9.961   7.008 -0.4036 -0.1936 -0.0389
 1015YOPC   C2B11638   4.944   9.567   7.288  0.1304 -0.0620  0.2686
 1015YOPC   D3B11639   5.084   9.513   7.651 -0.0452  0.0096  0.0143
 1015YOPC   C4B11640   5.094   9.320   8.009  0.0892 -0.0210  0.3526
 1016YOPC   NC311641  13.968  13.345   6.759 -0.1146  0.0359 -0.0793
 1016YOPC   PO411642  13.506  13.152   6.722 -0.3029 -0.1567  0.1712
 1016YOPC   GL111643  13.348  13.149   7.138 -0.1475 -0.1076  0.0268
 1016YOPC   GL211644  13.439  13.363   7.475  0.0311  0.1069  0.3680
 1016YOPC   C1A11645  13.513  12.892   7.550 -0.1077 -0.4555 -0.0558
 1016YOPC   D2A11646  13.706  12.642   7.833  0.3107  0.1591  0.0988
 1016YOPC   C3A11647  13.951  12.783   8.133  0.1499  0.2330  0.1474
 1016YOPC   C4A11648  14.153  12.442   8.377  0.0586 -0.0340 -0.0167
 1016YOPC   C1B11649  13.548  13.272   7.916  0.4283  0.3516  0.0504
 1016YOPC   C2B11650  13.553  13.022   8.200 -0.0377 -0.0158 -0.0029
 1016YOPC   D3B11651  13.751  13.090   8.532  0.2125 -0.1268  0.0651
 1016YOPC   C4B11652  14.122  13.006   8.612  0.0867 -0.0080 -0.1611
 1017YOPC   NC311653  14.448  12.847   6.247  0.1783 -0.1177  0.0363
 1017YOPC   PO411654  14.573  12.362   6.210 -0.2128  0.1962 -0.2030
 1017YOPC   GL111655  14.581  12.439   6.617  0.0226 -0.3328 -0.2484
 1017YOPC   GL211656  14.741  12.204   6.765 -0.0187  0.1255 -0.0642
 1017YOPC   C1A11657  14.420  12.517   7.018  0.3435 -0.1388 -0.0936
 1017YOPC   D2A11658  14.364  12.286   7.458 -0.1825 -0.1587 -0.2119
 1017YOPC   C3A11659  14.140  12.406   7.789 -0.3797 -0.2605  0.2685
 1017YOPC   C4A11660  13.856  12.208   8.024  0.2766 -0.2477 -0.0611
 1017YOPC   C1B11661  14.562  11.972   7.139 -0.2445 -0.5064 -0.0301
 1017YOPC   C2B11662  14.324  11.634   7.235  0.1265 -0.1159 -0.2352
 1017YOPC   D3B11663  14.231  11.336   7.548  0.0568 -0.0372  0.0556
 1017YOPC   C4B11664  13.920  11.236   7.828  0.1648  0.0860  0.0116
 1018YOPC   NC311665  11.530  13.030   5.981 -0.0414  0.1046  0.1342
 1018YOPC   PO411666  11.531  12.684   6.317  0.2073 -0.0835  0.0169
 1018YOPC   GL111667  11.376  12.494   6.783 -0.1810 -0.1573 -0.3120
 1018YOPC   GL211668  11.260  12.192   6.890 -0.2037  0.2057  0.0278
 1018YOPC   C1A11669  11.569  12.582   7.163  0.3044  0.1370  0.3645
 1018YOPC   D2A11670  11.805  12.895   7.247  0.3753 -0.0538  0.2640
 1018YOPC   C3A11671  11.822  12.930   7.623 -0.2880  0.0567  0.1200
 1018YOPC   C4A11672  11.660  12.872   8.031 -0.1172 -0.2792  0.0126
 1018YOPC   C1B11673  11.437  12.082   7.215 -0.0217 -0.3068  0.0915
 1018YOPC   C2B11674  11.531  12.349   7.604 -0.2903 -0.2260  0.6251
 1018YOPC   D3B11675  11.824  12.185   7.917 -0.0319 -0.2096 -0.0270
 1018YOPC   C4B11676  11.907  11.910   8.190  0.2565 -0.1065 -0.0176
 1019YOPC   NC311677   0.087   2.763   5.269 -0.0796 -0.0697 -0.0480
 1019YOPC   PO411678   0.345   2.759   5.633  0.3356 -0.0322  0.1124
 1019YOPC   GL111679   0.288   2.976   5.998  0.1892 -0.2241 -0.1534
 1019YOPC   GL211680   0.611   3.115   6.233 -0.2667 -0.1563 -0.1320
 1019YOPC   C1A11681   0.094   3.231   6.278 -0.1504  0.1932 -0.0037
 1019YOPC   D2A11682   0.038   3.281   6.727  0.1842 -0.0331 -0.0087
 1019YOPC   C3A11683  -0.163   3.578   6.959 -0.2717  0.3751  0.1395
 1019YOPC   C4A11684  -0.176   3.526   7.490  0.2102 -0.3411 -0.4508
 1019YOPC   C1B11685   0.612   3.331   6.614  0.2016 -0.0883  0.4449
 1019YOPC   C2B11686   0.516   3.434   6.993 -0.2931  0.1963 -0.1981
 1019YOPC   D3B11687   0.217   3.379   7.226 -0.1063  0.2572  0.2280
 1019YOPC   C4B11688   0.128   3.160   7.599 -0.1072 -0.0914  0.0627
 1020YOPC   NC311689   8.711  13.490   6.081  0.1344 -0.0342  0.3918
 1020YOPC   PO411690   8.726  13.903   6.234 -0.0121 -0.5315 -0.0060
 1020YOPC   GL111691   8.873  13.908   6.629 -0.1845 -0.0053  0.0811
 1020YOPC   GL211692   8.889  14.195   6.630 -0.3485  0.0085  0.0730
 1020YOPC   C1A11693   8.698  13.806   7.026  0.0799  0.0069  0.3602
 1020YOPC   D2A11694   8.598  13.921   7.400 -0.2743  0.3402  0.1824
 1020YOPC   C3A11695   8.817  13.964   7.895  0.0884  0.1918  0.0515
 1020YOPC   C4A11696   8.936  14.342   8.190 -0.1498  0.2551  0.0788
 1020YOPC   C1B11697   8.936  14.211   7.146  0.1588  0.1291  0.1567
 1020YOPC   C2B11698   9.012  14.278   7.588 -0.3698 -0.0082 -0.0168
 1020YOPC   D3B11699   9.382  14.201   7.803 -0.2577  0.4211 -0.0450
 1020YOPC   C4B11700   9.694  14.247   8.105  0.3717  0.1868 -0.1404
 1021YOPC   NC311701  11.538   0.699   6.249 -0.2569  0.1065  0.2381
 1021YOPC   PO411702  11.547   0.541   6.751 -0.1092 -0.0036 -0.0423
 1021YOPC   GL111703  11.492   0.417   7.146 -0.4982  0.3437  0.2897
 1021YOPC   GL211704  11.727   0.247   7.272  0.2133  0.0083 -0.0276
 1021YOPC   C1A11705  11.312   0.487   7.503 -0.0023  0.0822 -0.1484
 1021YOPC   D2A11706  11.172   0.579   7.912  0.0856  0.0450  0.1416
 1021YOPC   C3A11707  11.163   0.252   8.133 -0.1310 -0.0079  0.1951
 1021YOPC   C4A11708  11.314  -0.047   8.536 -0.0864 -0.0967  0.0970
 1021YOPC   C1B11709  11.851   0.442   7.559  0.1945  0.1406 -0.1557
 1021YOPC   C2B11710  11.916   0.555   8.007 -0.1879  0.0602 -0.3909
 1021YOPC   D3B11711  11.507   0.703   8.269 -0.1085 -0.1731 -0.1534
 1021YOPC   C4B11712  11.231   0.538   8.548 -0.1018 -0.3014 -0.1842
 1022YOPC   NC311713   8.514  17.122   6.452  0.0458 -0.0342 -0.0331
 1022YOPC   PO411714   8.045  17.226   6.571 -0.0719  0.0891  0.0479
 1022YOPC   GL111715   8.133  17.414   6.941  0.1949  0.0149 -0.1560
 1022YOPC   GL211716   8.431  17.280   7.037 -0.0750 -0.2947  0.2692
 1022YOPC   C1A11717   8.020  17.257   7.303  0.3791 -0.1086  0.1398
 1022YOPC   D2A11718   7.948  17.184   7.691 -0.2867  0.0096 -0.0014
 1022YOPC   C3A11719   8.073  16.837   7.895  0.0275 -0.1251 -0.1902
 1022YOPC   C4A11720   8.342  16.489   8.101 -0.0647 -0.0497 -0.2230
 1022YOPC   C1B11721   8.474  17.282   7.493 -0.0131  0.2412  0.2781
 1022YOPC   C2B11722   8.494  17.100   7.905 -0.1397 -0.1573  0.2730
 1022YOPC   D3B11723   8.908  17.238   8.144  0.1849 -0.3647 -0.4775
 1022YOPC   C4B11724   9.147  17.469   8.274  0.0910  0.3158  0.1722
 1023YOPC   NC311725  12.506   2.365   6.349  0.0431  0.1760  0.0433
 1023YOPC   PO411726  12.930   2.300   6.194 -0.0893 -0.3001 -0.0554
 1023YOPC   GL111727  12.873   2.252   6.648  0.0063  0.0211  0.0234
 1023YOPC   GL211728  13.137   2.021   6.690 -0.1182  0.1289  0.0030
 1023YOPC   C1A11729  12.682   2.215   7.141 -0.0341 -0.0961 -0.0502
 1023YOPC   D2A11730  12.947   2.062   7.510 -0.1447  0.3802 -0.1480
 1023YOPC   C3A11731  12.751   1.805   7.792 -0.1977  0.1691 -0.3477
 1023YOPC   C4A11732  12.449   1.815   8.135 -0.0114 -0.0105 -0.0820
 1023YOPC   C1B11733  13.213   2.091   7.099 -0.3382 -0.2152 -0.1124
 1023YOPC   C2B11734  13.385   2.030   7.405 -0.1209  0.0710  0.2766
 1023YOPC   D3B11735  13.326   1.887   7.822  0.5862 -0.3540  0.0145
 1023YOPC   C4B11736  13.022   1.849   8.246 -0.0569  0.0953  0.2126
 1024YOPC   NC311737  13.042   4.501   5.931 -0.1338 -0.0105 -0.2904
 1024YOPC   PO411738  12.999   4.813   6.267 -0.0196 -0.1858  0.0831
 1024YOPC   GL111739  12.958   4.664   6.725  0.0220  0.3132 -0.1279
 1024YOPC   GL211740  12.724   4.916   6.757  0.0463  0.4071 -0.1654
 1024YOPC   C1A11741  12.787   4.580   7.135 -0.2025  0.1147  0.1478
 1024YOPC   D2A11742  12.595   4.553   7.532 -0.1304  0.0226  0.0683
 1024YOPC   C3A11743  12.554   4.474   7.955 -0.0383  0.1901 -0.0774
 1024YOPC   C4A11744  12.694   4.161   8.151  0.0463 -0.0884 -0.1512
 1024YOPC   C1B11745  12.658   5.151   7.127  0.2363 -0.0131 -0.1150
 1024YOPC   C2B11746  12.862   4.959   7.634  0.1324 -0.1132  0.1816
 1024YOPC   D3B11747  13.195   5.135   8.025  0.1062  0.1394 -0.0639
 1024YOPC   C4B11748  13.393   5.390   8.297  0.1824 -0.1348 -0.2123
 1025YOPC   NC311749   0.039   3.872   5.373 -0.0864  0.1958 -0.1236
 1025YOPC   PO411750  -0.321   3.588   5.559 -0.1301  0.3763  0.0385
 1025YOPC   GL111751  -0.446   3.480   5.934  0.0929 -0.0216 -0.0538
 1025YOPC   GL211752  -0.705   3.622   5.918 -0.2175  0.3285 -0.1157
 1025YOPC   C1A11753  -0.344   3.521   6.292 -0.0311  0.2313 -0.1220
 1025YOPC   D2A11754  -0.553   3.597   6.655  0.0124 -0.1615  0.0597
 1025YOPC   C3A11755  -0.850   3.894   6.725  0.4865  0.0078 -0.1282
 1025YOPC   C4A11756  -1.227   4.136   6.597 -0.0898  0.1077  0.2259
 1025YOPC   C1B11757  -0.771   3.325   6.315  0.0750  0.0706 -0.2174
 1025YOPC   C2B11758  -1.023   3.207   6.673 -0.1358  0.1193  0.0797
 1025YOPC   D3B11759  -0.873   3.446   7.074 -0.2188  0.1320 -0.3090
 1025YOPC   C4B11760  -0.628   3.778   7.197 -0.2829 -0.1517  0.1725
 1026YOPC   NC311761   2.359  11.290   6.580  0.1472 -0.0498 -0.1400
 1026YOPC   PO411762   2.094  11.244   6.278  0.0212 -0.0159  0.0967
 1026YOPC   GL111763   1.710  11.264   6.423 -0.1811  0.1496 -0.1018
 1026YOPC   GL211764   1.756  11.246   6.742  0.0857  0.2313  0.3165
 1026YOPC   C1A11765   1.327  11.043   6.577 -0.0257  0.2021  0.3493
 1026YOPC   D2A11766   1.004  10.764   6.705 -0.0356  0.2210 -0.0225
 1026YOPC   C3A11767   0.988  10.796   7.086  0.2776  0.2880  0.0308
 1026YOPC   C4A11768   1.046  10.819   7.537  0.0243  0.0710 -0.1414
 1026YOPC   C1B11769   1.960  10.978   7.069 -0.1282 -0.2012 -0.0831
 1026YOPC   C2B11770   2.024  10.998   7.477  0.0564 -0.2702  0.1415
 1026YOPC   D3B11771   2.085  11.344   7.607  0.2589  0.4064  0.0735
 1026YOPC   C4B11772   2.073  11.488   8.053  0.2106 -0.1669  0.2723
 1027YOPC   NC311773   6.354   9.381   6.083 -0.1536  0.0958 -0.4532
 1027YOPC   PO411774   6.657   9.131   6.158  0.0506  0.1440  0.1730
 1027YOPC   GL111775   6.409   8.884   6.422 -0.1881 -0.1707 -0.2611
 1027YOPC   GL211776   6.149   9.019   6.510 -0.1382  0.0500  0.0614
 1027YOPC   C1A11777   6.298   8.722   6.873  0.0248  0.0601 -0.1799
 1027YOPC   D2A11778   6.109   8.383   7.117  0.1042  0.1721  0.2021
 1027YOPC   C3A11779   6.164   8.510   7.473 -0.0865 -0.3822 -0.2255
 1027YOPC   C4A11780   6.202   8.608   7.904  0.3863  0.3315 -0.0026
 1027YOPC   C1B11781   6.091   9.228   6.874  0.0046 -0.3151  0.0946
 1027YOPC   C2B11782   5.829   9.384   7.255 -0.2303  0.0322  0.2034
 1027YOPC   D3B11783   5.683   9.396   7.715 -0.6120  0.3287  0.0797
 1027YOPC   C4B11784   5.543   9.340   8.126 -0.3824 -0.1460 -0.1319
 1028YOPC   NC311785   2.592  16.631   6.573  0.0998 -0.1974 -0.2837
 1028YOPC   PO411786   2.267  16.449   6.518 -0.2073 -0.0065  0.1236
 1028YOPC   GL111787   2.359  16.229   6.954 -0.2105 -0.0868 -0.3095
 1028YOPC   GL211788   2.444  15.877   7.055  0.1082  0.0008 -0.3057
 1028YOPC   C1A11789   2.538  16.291   7.280  0.5776 -0.2067 -0.2984
 1028YOPC   D2A11790   2.455  16.173   7.637 -0.0694  0.3305  0.1653
 1028YOPC   C3A11791   2.379  16.412   7.967 -0.0328  0.5923  0.0764
 1028YOPC   C4A11792   2.138  16.675   8.312  0.0400 -0.1110  0.0633
 1028YOPC   C1B11793   2.533  15.776   7.410 -0.2983 -0.0455 -0.0721
 1028YOPC   C2B11794   2.447  15.633   7.725  0.1913 -0.1679 -0.0496
 1028YOPC   D3B11795   2.519  15.822   8.083 -0.0049 -0.0579 -0.0715
 1028YOPC   C4B11796   2.594  16.170   8.300  0.0708  0.0311  0.0126
 1029YOPC   NC311797  12.064   2.506   6.521  0.0792 -0.2037  0.1926
 1029YOPC   PO411798  11.899   2.869   6.612 -0.2318 -0.3160 -0.0211
 1029YOPC   GL111799  12.111   2.739   7.009 -0.1047 -0.1767 -0.1147
 1029YOPC   GL211800  11.894   2.460   7.133 -0.1018 -0.1610  0.2161
 1029YOPC   C1A11801  12.438   2.644   7.307  0.0196  0.0801  0.3408
 1029YOPC   D2A11802  12.307   2.343   7.532 -0.0493  0.1588  0.3354
 1029YOPC   C3A11803  12.401   2.235   7.858 -0.2733 -0.0190 -0.0770
 1029YOPC   C4A11804  12.791   2.244   8.048  0.0077 -0.1987 -0.1558
 1029YOPC   C1B11805  11.814   2.250   7.486 -0.1441  0.2467 -0.0966
 1029YOPC   C2B11806  11.908   2.240   7.959  0.0606 -0.1639 -0.0263
 1029YOPC   D3B11807  12.257   2.566   8.193 -0.3182  0.3124  0.3448
 1029YOPC   C4B11808  12.640   2.721   8.259 -0.2953  0.0522  0.0616
 1030YOPC   NC311809   5.840   5.438   6.411  0.2611 -0.0925  0.0939
 1030YOPC   PO411810   6.236   5.560   6.488  0.0583 -0.0685  0.0653
 1030YOPC   GL111811   6.193   5.721   6.898 -0.0267  0.0994  0.1657
 1030YOPC   GL211812   6.382   5.966   6.923 -0.0912 -0.1636 -0.1802
 1030YOPC   C1A11813   6.139   5.707   7.353 -0.2978  0.1908  0.1577
 1030YOPC   D2A11814   6.185   5.686   7.825 -0.2656  0.4544  0.0100
 1030YOPC   C3A11815   6.337   5.265   7.919 -0.2316  0.1461  0.1550
 1030YOPC   C4A11816   6.358   4.906   7.834 -0.0850  0.1443  0.0626
 1030YOPC   C1B11817   6.767   5.835   7.101  0.1003 -0.0752 -0.1378
 1030YOPC   C2B11818   6.688   5.599   7.497  0.0068  0.0039 -0.1547
 1030YOPC   D3B11819   6.810   5.665   7.835  0.0243 -0.1140  0.0057
 1030YOPC   C4B11820   7.132   5.559   8.121 -0.1333 -0.1487 -0.1155
 1031YOPC   NC311821   6.972   0.327   6.600  0.1016 -0.0696  0.1185
 1031YOPC   PO411822   6.615   0.380   6.501  0.0816  0.1847 -0.1539
 1031YOPC   GL111823   6.457   0.330   6.916  0.1011  0.0892  0.1187
 1031YOPC   GL211824   6.391   0.593   7.197  0.0172 -0.0331 -0.2909
 1031YOPC   C1A11825   6.244   0.136   7.309  0.0990  0.3025 -0.3035
 1031YOPC   D2A11826   5.936   0.150   7.602  0.3633 -0.0691 -0.2090
 1031YOPC   C3A11827   5.725  -0.071   8.053 -0.0841 -0.1424 -0.3122
 1031YOPC   C4A11828   5.303   0.090   8.222 -0.3481  0.0622 -0.0449
 1031YOPC   C1B11829   6.225   0.542   7.603 -0.0636  0.2440 -0.1332
 1031YOPC   C2B11830   6.047   0.423   8.010  0.2418 -0.1016  0.0112
 1031YOPC   D3B11831   6.272   0.074   8.231 -0.0685  0.0473  0.0621
 1031YOPC   C4B11832   6.501  -0.247   8.490 -0.1030  0.1448  0.1563
 1032YOPC   NC311833   9.403   3.812   6.396 -0.3730  0.2482  0.5497
 1032YOPC   PO411834   8.947   3.864   6.478 -0.0395  0.1096 -0.0601
 1032YOPC   GL111835   8.724   3.695   6.689 -0.0654 -0.0947 -0.1430
 1032YOPC   GL211836   8.841   3.549   6.954 -0.0753 -0.1279  0.1775
 1032YOPC   C1A11837   8.392   3.921   6.937 -0.1957  0.1119 -0.2587
 1032YOPC   D2A11838   8.115   4.163   7.140 -0.2664  0.3061  0.2162
 1032YOPC   C3A11839   8.282   4.442   7.527  0.0472  0.1178  0.3982
 1032YOPC   C4A11840   8.365   4.810   7.778  0.0982  0.0218 -0.0476
 1032YOPC   C1B11841   8.960   3.472   7.365  0.0619 -0.0551 -0.0131
 1032YOPC   C2B11842   9.158   3.436   7.761 -0.2305  0.0029  0.0395
 1032YOPC   D3B11843   8.915   3.392   8.104 -0.0332 -0.2080  0.1568
 1032YOPC   C4B11844   8.668   2.971   8.220 -0.1957 -0.4106 -0.2109
 1033YOPC   NC311845  14.088   0.539   6.021  0.0824 -0.1466 -0.0691
 1033YOPC   PO411846  14.271   0.454   6.361  0.2704 -0.0843  0.0111
 1033YOPC   GL111847  14.280   0.366   6.801 -0.0102  0.1790  0.0193
 1033YOPC   GL211848  13.967   0.217   6.667 -0.3046 -0.1490  0.2072
 1033YOPC   C1A11849  14.293   0.183   7.193 -0.2013 -0.0093 -0.2340
 1033YOPC   D2A11850  14.285   0.225   7.587 -0.0009  0.1265 -0.0266
 1033YOPC   C3A11851  14.321  -0.033   7.955 -0.2051  0.1104 -0.0054
 1033YOPC   C4A11852  14.314  -0.371   8.273 -0.1645 -0.0034 -0.0065
 1033YOPC   C1B11853  14.056  -0.130   6.909  0.0902  0.1448  0.0461
 1033YOPC   C2B11854  14.164  -0.395   7.127 -0.2385  0.1101 -0.2046
 1033YOPC   D3B11855  14.389  -0.411   7.461  0.2511 -0.0897  0.0321
 1033YOPC   C4B11856  14.571  -0.468   7.827 -0.1879  0.1107  0.1315
 1034YOPC   NC311857  18.116  15.419   6.792  0.1769 -0.0772  0.0402
 1034YOPC   PO411858  18.050  14.979   6.904 -0.4387 -0.2350  0.1248
 1034YOPC   GL111859  17.816  14.903   7.213 -0.3003  0.1722  0.1424
 1034YOPC   GL211860  17.813  15.109   7.466 -0.0009  0.2588  0.1676
 1034YOPC   C1A11861  17.801  14.674   7.638  0.0306 -0.0819  0.0917
 1034YOPC   D2A11862  17.709  14.794   8.088 -0.2963 -0.0570 -0.5477
 1034YOPC   C3A11863  17.610  14.735   8.517  0.0860 -0.2550  0.0455
 1034YOPC   C4A11864  17.350  14.981   8.801  0.2801  0.0865 -0.1570
 1034YOPC   C1B11865  17.884  15.288   7.871  0.4652  0.1399 -0.1635
 1034YOPC   C2B11866  18.165  15.533   8.052 -0.0519 -0.0773  0.1218
 1034YOPC   D3B11867  18.508  15.364   8.261  0.0226  0.1372  0.0201
 1034YOPC   C4B11868  18.989  15.385   8.372  0.1013 -0.3904  0.2127
 1035YOPC   NC311869   6.782   4.199   5.410 -0.1850  0.2456  0.1742
 1035YOPC   PO411870   6.793   4.542   5.657  0.1177  0.0054  0.0842
 1035YOPC   GL111871   6.862   4.507   6.153 -0.0972 -0.1923 -0.1477
 1035YOPC   GL211872   7.212   4.550   6.310 -0.1855 -0.1090  0.0150
 1035YOPC   C1A11873   6.768   4.525   6.591 -0.0787  0.0679  0.0440
 1035YOPC   D2A11874   6.784   4.396   7.007  0.0814  0.0227  0.0682
 1035YOPC   C3A11875   6.723   4.010   6.942 -0.2428 -0.1612 -0.0374
 1035YOPC   C4A11876   6.569   3.676   6.952 -0.0452  0.2523 -0.1757
 1035YOPC   C1B11877   7.466   4.220   6.330  0.0933  0.2028  0.1121
 1035YOPC   C2B11878   7.776   3.883   6.257 -0.0605  0.0158  0.1920
 1035YOPC   D3B11879   7.799   3.560   6.464  0.1717  0.1295  0.1359
 1035YOPC   C4B11880   7.567   3.409   6.828  0.2275  0.2565 -0.0530
 1036YOPC   NC311881  17.644   3.473   5.036  0.0164  0.0643 -0.1434
 1036YOPC   PO411882  17.499   3.736   5.336  0.1397 -0.1051 -0.2506
 1036YOPC   GL111883  17.690   4.048   5.608 -0.0278  0.1107 -0.3827
 1036YOPC   GL211884  17.970   4.113   5.544  0.0852  0.1198  0.2804
 1036YOPC   C1A11885  17.658   4.228   6.002  0.1199 -0.0465  0.0290
 1036YOPC   D2A11886  17.596   4.480   6.346  0.1182  0.4639  0.0859
 1036YOPC   C3A11887  17.542   4.375   6.730  0.0297  0.0235  0.0506
 1036YOPC   C4A11888  17.799   4.466   7.125 -0.2196  0.2235 -0.0572
 1036YOPC   C1B11889  18.057   4.475   5.959  0.2098  0.2593  0.1514
 1036YOPC   C2B11890  18.168   4.531   6.402  0.2561 -0.0206  0.1466
 1036YOPC   D3B11891  18.025   4.574   6.716  0.1386  0.0276  0.2224
 1036YOPC   C4B11892  18.104   4.984   7.036  0.1151 -0.0967 -0.0627
 1037YOPC   NC311893  15.159   7.240   5.620  0.0857 -0.0606 -0.0454
 1037YOPC   PO411894  15.289   7.688   5.634  0.2457 -0.1063 -0.2718
 1037YOPC   GL111895  15.108   7.555   6.063 -0.1527 -0.2729  0.2256
 1037YOPC   GL211896  14.854   7.502   6.298 -0.0616 -0.2604 -0.3691
 1037YOPC   C1A11897  15.275   7.154   6.350 -0.1983 -0.1245 -0.1668
 1037YOPC   D2A11898  15.527   7.182   6.698  0.0751 -0.0605 -0.4292
 1037YOPC   C3A11899  15.509   6.972   6.985  0.0249 -0.0773  0.3365
 1037YOPC   C4A11900  15.370   7.075   7.392 -0.3230  0.1157 -0.1761
 1037YOPC   C1B11901  14.946   7.285   6.811  0.1286 -0.1528  0.0560
 1037YOPC   C2B11902  15.086   7.413   7.132  0.0568  0.1442  0.0535
 1037YOPC   D3B11903  15.265   7.672   7.489 -0.0338 -0.1225 -0.2144
 1037YOPC   C4B11904  15.357   7.945   7.825  0.0009 -0.0095  0.3361
 1038YOPC   NC311905   4.103   4.239   5.946  0.1799  0.1885  0.0295
 1038YOPC   PO411906   3.693   4.016   6.056  0.0389  0.1034 -0.0898
 1038YOPC   GL111907   3.714   4.326   6.333 -0.4593 -0.0739 -0.1944
 1038YOPC   GL211908   3.947   4.608   6.305  0.0393 -0.0113 -0.2488
 1038YOPC   C1A11909   3.557   4.381   6.783  0.1130  0.3399  0.3018
 1038YOPC   D2A11910   3.089   4.218   6.873  0.0637 -0.0203  0.0239
 1038YOPC   C3A11911   2.837   4.211   7.253 -0.0618  0.2879  0.0261
 1038YOPC   C4A11912   2.648   4.209   7.648 -0.3553  0.0739  0.4470
 1038YOPC   C1B11913   4.203   4.636   6.644 -0.1271  0.2170  0.0275
 1038YOPC   C2B11914   4.364   4.353   6.912 -0.2346  0.1611  0.2763
 1038YOPC   D3B11915   3.946   4.278   7.111 -0.0243  0.2903 -0.2935
 1038YOPC   C4B11916   3.541   4.140   7.217  0.1844 -0.1376 -0.3227
 1039YOPC   NC311917   2.798  10.622   6.075 -0.2259 -0.0564  0.0856
 1039YOPC   PO411918   2.623  10.358   6.205  0.0269 -0.1281  0.2055
 1039YOPC   GL111919   2.484  10.469   6.665  0.1935  0.1460 -0.1267
 1039YOPC   GL211920   2.720  10.374   6.815  0.1213  0.1244  0.2061
 1039YOPC   C1A11921   2.192  10.492   7.114  0.0284  0.0868  0.1922
 1039YOPC   D2A11922   2.122  10.462   7.565 -0.0321  0.2131 -0.0678
 1039YOPC   C3A11923   2.222  10.719   7.856 -0.1365  0.0708  0.3463
 1039YOPC   C4A11924   2.090  10.973   8.072 -0.3240  0.2661 -0.0730
 1039YOPC   C1B11925   2.573  10.299   7.255  0.1361 -0.1095 -0.1157
 1039YOPC   C2B11926   2.356   9.996   7.593 -0.0761 -0.1004  0.1043
 1039YOPC   D3B11927   2.227   9.954   8.059 -0.0051  0.0702  0.0133
 1039YOPC   C4B11928   1.997  10.239   8.260  0.2452  0.0428 -0.1455
 1040YOPC   NC311929   9.255   7.843   6.132  0.1620 -0.1313  0.1620
 1040YOPC   PO411930   9.709   7.752   6.188  0.1160  0.0566 -0.0405
 1040YOPC   GL111931   9.421   7.772   6.618 -0.0951  0.2711  0.0669
 1040YOPC   GL211932   9.417   8.038   6.766  0.2088  0.2511 -0.0435
 1040YOPC   C1A11933   9.476   7.542   6.990  0.2493  0.3171 -0.2519
 1040YOPC   D2A11934   9.893   7.421   7.239 -0.1366  0.0713 -0.1382
 1040YOPC   C3A11935  10.158   7.600   7.274  0.4342  0.0221  0.1700
 1040YOPC   C4A11936  10.581   7.665   7.395 -0.0741  0.1519  0.2092
 1040YOPC   C1B11937   9.407   8.143   7.230 -0.0158 -0.0069  0.2786
 1040YOPC   C2B11938   9.373   8.060   7.686 -0.0070 -0.0198 -0.0137
 1040YOPC   D3B11939   9.440   7.596   7.980 -0.0048 -0.0991 -0.0103
 1040YOPC   C4B11940   9.661   7.239   8.187 -0.1296 -0.1106  0.4282
 1041YOPC   NC311941  17.442  13.002   5.989 -0.0197  0.0683  0.1748
 1041YOPC   PO411942  17.242  12.776   6.293 -0.0306  0.1823 -0.0669
 1041YOPC   GL111943  17.383  12.680   6.731  0.1968 -0.1425 -0.1293
 1041YOPC   GL211944  17.679  12.761   6.847  0.2144 -0.0255 -0.1671
 1041YOPC   C1A11945  17.270  12.470   7.111  0.0205  0.0035  0.1421
 1041YOPC   D2A11946  17.353  12.283   7.564  0.0248 -0.0159  0.1383
 1041YOPC   C3A11947  17.124  12.016   7.918  0.1204  0.2604 -0.1317
 1041YOPC   C4A11948  17.221  11.551   8.117 -0.0289 -0.1755  0.1892
 1041YOPC   C1B11949  17.649  12.869   7.155 -0.2538 -0.0002  0.0011
 1041YOPC   C2B11950  17.876  13.126   7.394  0.0140  0.2242 -0.0472
 1041YOPC   D3B11951  17.801  13.121   7.816 -0.1350  0.1318  0.0376
 1041YOPC   C4B11952  17.796  13.287   8.222 -0.1653 -0.1644 -0.2404
 1042YOPC   NC311953   2.813   7.460   6.082 -0.4031  0.1795 -0.1769
 1042YOPC   PO411954   3.112   7.121   6.172  0.2228  0.1155  0.1259
 1042YOPC   GL111955   3.156   6.771   6.496 -0.0728  0.1483  0.2638
 1042YOPC   GL211956   2.980   6.509   6.542 -0.1732 -0.0409  0.3409
 1042YOPC   C1A11957   3.479   6.491   6.631 -0.1583 -0.0664  0.1989
 1042YOPC   D2A11958   3.484   6.222   7.121 -0.1640  0.1364  0.0231
 1042YOPC   C3A11959   3.823   6.110   7.398 -0.0348 -0.1208  0.4084
 1042YOPC   C4A11960   4.293   6.214   7.464 -0.0982 -0.1324 -0.2633
 1042YOPC   C1B11961   3.069   6.434   7.001 -0.1172 -0.0341 -0.0443
 1042YOPC   C2B11962   3.037   6.264   7.335  0.1997 -0.0844 -0.1890
 1042YOPC   D3B11963   2.940   6.529   7.690  0.0371  0.1177  0.1252
 1042YOPC   C4B11964   3.109   6.766   8.102  0.0785  0.0105  0.0954
 1043YOPC   NC311965   7.235   6.719   6.610  0.2746  0.0995  0.0870
 1043YOPC   PO411966   6.839   6.780   6.410 -0.1173 -0.2296 -0.0669
 1043YOPC   GL111967   6.704   6.821   6.813  0.1986  0.1162 -0.0418
 1043YOPC   GL211968   6.866   7.044   6.935  0.0040  0.0834 -0.3275
 1043YOPC   C1A11969   6.605   6.740   7.270  0.0207 -0.1041  0.0398
 1043YOPC   D2A11970   6.632   6.529   7.633  0.3027 -0.0652 -0.2801
 1043YOPC   C3A11971   6.244   6.650   7.817  0.2298  0.0865 -0.0505
 1043YOPC   C4A11972   5.871   6.852   7.957 -0.0901  0.0487 -0.1536
 1043YOPC   C1B11973   6.905   7.054   7.456 -0.0200  0.0211 -0.0957
 1043YOPC   C2B11974   7.105   7.207   7.818  0.1485  0.1611 -0.0322
 1043YOPC   D3B11975   7.355   7.448   7.928 -0.1644 -0.3463 -0.2344
 1043YOPC   C4B11976   7.635   7.760   8.027  0.1791  0.2531 -0.0425
 1044YOPC   NC311977   4.470   7.715   5.271 -0.0363 -0.0840  0.1129
 1044YOPC   PO411978   4.576   7.525   5.617 -0.0583 -0.2859 -0.1967
 1044YOPC   GL111979   4.515   7.544   6.109  0.0274 -0.0696  0.2005
 1044YOPC   GL211980   4.737   7.281   6.267  0.1752 -0.0243  0.0071
 1044YOPC   C1A11981   4.366   7.472   6.528  0.0031  0.1340  0.1536
 1044YOPC   D2A11982   4.507   7.473   6.927 -0.0208  0.0754 -0.0628
 1044YOPC   C3A11983   4.514   7.376   7.332  0.0418  0.0456  0.0286
 1044YOPC   C4A11984   4.671   7.583   7.692  0.0035 -0.1349 -0.1792
 1044YOPC   C1B11985   4.847   7.004   6.509  0.3969  0.2007 -0.0570
 1044YOPC   C2B11986   5.048   6.742   6.839 -0.2214 -0.1554  0.0053
 1044YOPC   D3B11987   4.790   6.617   7.127  0.1248 -0.0868  0.2446
 1044YOPC   C4B11988   4.522   6.677   7.406  0.0396  0.2901 -0.0666
 1045YOPC   NC311989  11.144   4.327   6.429 -0.1647 -0.0633 -0.0139
 1045YOPC   PO411990  11.039   4.014   6.354  0.2835  0.1777 -0.2492
 1045YOPC   GL111991  11.320   3.929   6.729 -0.1445 -0.0661  0.2501
 1045YOPC   GL211992  11.411   3.648   6.868  0.0449 -0.1386 -0.0597
 1045YOPC   C1A11993  11.435   3.979   7.183  0.1576  0.2611 -0.3091
 1045YOPC   D2A11994  11.537   4.054   7.574 -0.1067 -0.1226  0.0744
 1045YOPC   C3A11995  11.608   4.217   7.983 -0.3705 -0.1472  0.0627
 1045YOPC   C4A11996  11.526   4.550   8.187  0.2806 -0.0751  0.1255
 1045YOPC   C1B11997  11.476   3.529   7.338  0.1097  0.1003  0.1905
 1045YOPC   C2B11998  11.412   3.576   7.789  0.0146  0.0230  0.0264
 1045YOPC   D3B11999  11.713   3.794   8.197 -0.0371  0.2302 -0.1817
 1045YOPC   C4B12000  11.587   4.151   8.477  0.2647  0.3072 -0.1662
 1046YOPC   NC312001   5.624  13.620   6.496  0.1755 -0.0162 -0.0521
 1046YOPC   PO412002   5.202  13.549   6.328 -0.0987 -0.0337 -0.0986
 1046YOPC   GL112003   5.160  13.594   6.720 -0.3530  0.4322  0.0690
 1046YOPC   GL212004   4.937  13.884   6.764 -0.0864 -0.1544  0.1911
 1046YOPC   C1A12005   5.299  13.494   7.013  0.0934  0.2384  0.3244
 1046YOPC   D2A12006   5.370  13.108   7.205  0.1720  0.1110 -0.1240
 1046YOPC   C3A12007   5.531  13.100   7.618  0.3135 -0.2943  0.2847
 1046YOPC   C4A12008   5.753  13.059   8.046 -0.1948  0.1198  0.0217
 1046YOPC   C1B12009   4.908  13.713   7.192  0.1510 -0.1906  0.3143
 1046YOPC   C2B12010   5.249  13.555   7.566  0.1616  0.0502  0.2425
 1046YOPC   D3B12011   5.110  13.238   7.899 -0.1449 -0.2211 -0.0088
 1046YOPC   C4B12012   5.240  12.998   8.219 -0.3436 -0.1093 -0.2737
 1047YOPC   NC312013  16.133   6.402   5.270 -0.1995 -0.2474  0.2392
 1047YOPC   PO412014  16.196   6.056   5.428 -0.0572 -0.2410 -0.0521
 1047YOPC   GL112015  16.226   6.097   5.888  0.2056  0.1767 -0.1293
 1047YOPC   GL212016  16.034   5.920   6.108  0.0933 -0.1086  0.0473
 1047YOPC   C1A12017  16.299   6.396   6.292  0.1614 -0.0350  0.1843
 1047YOPC   D2A12018  16.475   6.665   6.533  0.1346 -0.0626 -0.2288
 1047YOPC   C3A12019  16.426   6.642   6.958  0.0678  0.0777  0.1113
 1047YOPC   C4A12020  16.314   6.641   7.255 -0.1873  0.0566  0.2897
 1047YOPC   C1B12021  15.842   5.773   6.470  0.1228  0.1014  0.1336
 1047YOPC   C2B12022  15.707   5.814   6.806 -0.0148 -0.0797  0.2507
 1047YOPC   D3B12023  15.972   6.107   7.004 -0.2614  0.0674  0.0014
 1047YOPC   C4B12024  16.152   6.183   7.329 -0.0943  0.0709  0.0720
 1048YOPC   NC312025  13.268  13.431   6.358 -0.1162 -0.0185 -0.1881
 1048YOPC   PO412026  13.094  13.056   6.272 -0.0612  0.0814  0.1229
 1048YOPC   GL112027  13.245  12.687   6.447  0.2976 -0.0584  0.2812
 1048YOPC   GL212028  13.135  12.758   6.811 -0.0034  0.0958  0.1209
 1048YOPC   C1A12029  13.313  12.306   6.564  0.2847  0.0038  0.0196
 1048YOPC   D2A12030  13.319  11.871   6.626  0.2151 -0.0299 -0.0589
 1048YOPC   C3A12031  13.712  11.681   6.773  0.0062  0.1793  0.1366
 1048YOPC   C4A12032  14.112  11.569   6.732 -0.2035 -0.1537  0.1667
 1048YOPC   C1B12033  13.372  12.631   7.089 -0.1555  0.0368  0.1842
 1048YOPC   C2B12034  13.181  12.476   7.427 -0.1308  0.3242  0.1133
 1048YOPC   D3B12035  13.311  12.360   7.886  0.1261  0.0023  0.3304
 1048YOPC   C4B12036  13.336  12.071   8.181  0.2060  0.3410 -0.2119
 1049YOPC   NC312037   1.043  10.507   6.191 -0.1542  0.3330 -0.1520
 1049YOPC   PO412038   1.202  10.168   6.023  0.3514 -0.2499  0.0035
 1049YOPC   GL112039   1.294  10.145   6.467  0.2459 -0.2952 -0.2089
 1049YOPC   GL212040   1.013  10.270   6.618 -0.0594 -0.0603 -0.3769
 1049YOPC   C1A12041   1.520  10.101   6.837 -0.1191 -0.1631 -0.0873
 1049YOPC   D2A12042   1.427   9.807   7.141 -0.0410 -0.1062 -0.2001
 1049YOPC   C3A12043   1.431   9.700   7.498 -0.0204  0.2577 -0.1837
 1049YOPC   C4A12044   1.397   9.544   7.893  0.0415 -0.4406 -0.4714
 1049YOPC   C1B12045   1.114  10.247   7.122  0.1892 -0.0315  0.0698
 1049YOPC   C2B12046   1.319  10.198   7.422  0.3401  0.2232 -0.1963
 1049YOPC   D3B12047   1.268  10.412   7.878  0.1126  0.1490  0.4034
 1049YOPC   C4B12048   1.275  10.851   8.048 -0.1174  0.2942  0.1091
 1050YOPC   NC312049   2.547   1.796   6.159 -0.1730 -0.0220 -0.2431
 1050YOPC   PO412050   2.934   2.179   6.163 -0.1146 -0.0436 -0.1142
 1050YOPC   GL112051   3.170   2.214   6.661  0.0040  0.3595  0.0687
 1050YOPC   GL212052   3.373   1.859   6.640  0.2041 -0.2458  0.0313
 1050YOPC   C1A12053   3.201   2.179   7.122  0.0278  0.2427  0.1250
 1050YOPC   D2A12054   3.056   2.273   7.509  0.0306  0.1056 -0.1094
 1050YOPC   C3A12055   3.272   2.454   7.900  0.4061  0.0982  0.1339
 1050YOPC   C4A12056   3.520   2.877   8.208  0.1741  0.1534  0.1815
 1050YOPC   C1B12057   3.547   1.867   7.020  0.0921 -0.2085  0.0899
 1050YOPC   C2B12058   3.520   2.054   7.434  0.0100 -0.1302 -0.2112
 1050YOPC   D3B12059   3.772   1.883   7.567  0.0215  0.0599  0.3545
 1050YOPC   C4B12060   3.798   1.755   7.926  0.1930 -0.3408 -0.1877
 1051YOPC   NC312061   6.212   2.178   6.468 -0.0355 -0.1308  0.2382
 1051YOPC   PO412062   6.189   2.688   6.431 -0.1112  0.2393  0.1441
 1051YOPC   GL112063   6.243   2.921   6.814  0.1388 -0.0373 -0.0277
 1051YOPC   GL212064   5.924   2.976   7.088 -0.0753  0.0263  0.2355
 1051YOPC   C1A12065   6.315   3.101   7.274 -0.0569  0.2340  0.0053
 1051YOPC   D2A12066   6.305   3.140   7.705  0.3019 -0.2607  0.2269
 1051YOPC   C3A12067   6.588   3.471   7.877  0.1330  0.1067  0.1787
 1051YOPC   C4A12068   6.566   3.901   7.973  0.3684  0.0261 -0.0082
 1051YOPC   C1B12069   5.872   3.150   7.464  0.1454  0.0584 -0.2640
 1051YOPC   C2B12070   5.926   3.380   7.955 -0.3358  0.1471  0.0998
 1051YOPC   D3B12071   5.496   3.612   8.178 -0.0777 -0.1578  0.1996
 1051YOPC   C4B12072   5.205   3.401   8.107 -0.0555  0.1263 -0.0526
 1052YOPC   NC312073   0.653  17.375   6.421  0.0314  0.2885  0.4508
 1052YOPC   PO412074   0.449  17.775   6.575 -0.3021  0.1477  0.2408
 1052YOPC   GL112075   0.696  17.855   6.891  0.1033  0.2373 -0.3621
 1052YOPC   GL212076   0.744  17.546   6.913  0.1245  0.1265  0.1760
 1052YOPC   C1A12077   0.924  17.855   7.328 -0.0187  0.1344  0.0202
 1052YOPC   D2A12078   1.001  17.971   7.712  0.0317 -0.2917 -0.3966
 1052YOPC   C3A12079   0.791  17.759   8.107 -0.4438 -0.1236  0.0607
 1052YOPC   C4A12080   0.726  17.313   8.360 -0.3175  0.3254  0.2218
 1052YOPC   C1B12081   0.711  17.321   7.269  0.0291  0.3364  0.1725
 1052YOPC   C2B12082   0.344  17.203   7.555 -0.3148 -0.3386  0.1166
 1052YOPC   D3B12083   0.146  17.488   7.614  0.1089  0.2278  0.1871
 1052YOPC   C4B12084  -0.014  17.864   7.788 -0.1728 -0.0272  0.1332
 1053YOPC   NC312085   8.168  12.861   5.934 -0.1478  0.0182  0.0330
 1053YOPC   PO412086   8.311  13.228   6.171  0.1452  0.0960 -0.1641
 1053YOPC   GL112087   8.073  13.105   6.463  0.2383 -0.0850  0.1882
 1053YOPC   GL212088   7.890  12.851   6.543 -0.0980  0.2547  0.1929
 1053YOPC   C1A12089   7.993  13.196   6.910  0.1073  0.3763 -0.3519
 1053YOPC   D2A12090   7.920  12.929   7.260  0.1651 -0.0308  0.0126
 1053YOPC   C3A12091   7.994  12.865   7.675 -0.0595  0.0051 -0.2154
 1053YOPC   C4A12092   8.034  12.821   8.054  0.0158  0.0982 -0.3241
 1053YOPC   C1B12093   7.861  12.662   6.846 -0.3172  0.0989 -0.2224
 1053YOPC   C2B12094   7.835  12.344   6.984 -0.1095  0.0605 -0.1835
 1053YOPC   D3B12095   7.842  12.379   7.478  0.0265  0.0874 -0.2412
 1053YOPC   C4B12096   7.592  12.138   7.728  0.2479  0.2636  0.1326
 1054YOPC   NC312097  14.237  14.209   6.615  0.4035  0.5538  0.1241
 1054YOPC   PO412098  14.225  14.531   6.349  0.2286 -0.0113  0.0733
 1054YOPC   GL112099  14.100  14.775   6.742  0.1261 -0.2310  0.1840
 1054YOPC   GL212100  13.846  14.569   6.954  0.2441  0.0514  0.0158
 1054YOPC   C1A12101  14.258  14.855   7.201  0.0402 -0.1988 -0.2805
 1054YOPC   D2A12102  14.319  14.763   7.618 -0.1497 -0.0923 -0.0996
 1054YOPC   C3A12103  14.056  14.922   7.819 -0.2181 -0.2390  0.0929
 1054YOPC   C4A12104  13.612  15.103   8.086  0.2995  0.2192  0.2694
 1054YOPC   C1B12105  14.034  14.270   7.310 -0.0857 -0.0669  0.1957
 1054YOPC   C2B12106  13.993  14.352   7.794 -0.2132  0.1089  0.0985
 1054YOPC   D3B12107  13.988  14.115   8.316  0.0122 -0.0356  0.0668
 1054YOPC   C4B12108  13.837  13.905   8.543  0.0483  0.1688  0.0798
 1055YOPC   NC312109   7.905   6.471   5.953  0.0258 -0.1433 -0.1702
 1055YOPC   PO412110   7.615   6.595   6.297 -0.0153 -0.0124  0.2991
 1055YOPC   GL112111   7.919   6.490   6.594 -0.0892  0.1868  0.0164
 1055YOPC   GL212112   7.647   6.607   6.842 -0.4104 -0.5390  0.0458
 1055YOPC   C1A12113   8.161   6.357   6.976  0.1686  0.0014  0.0728
 1055YOPC   D2A12114   8.095   6.215   7.398 -0.1484  0.2552 -0.3678
 1055YOPC   C3A12115   8.120   5.753   7.586 -0.1491  0.0776 -0.0790
 1055YOPC   C4A12116   8.470   5.646   7.940 -0.2206  0.0412 -0.1566
 1055YOPC   C1B12117   7.673   6.179   7.113  0.1359 -0.2974  0.0013
 1055YOPC   C2B12118   7.638   6.003   7.571 -0.1324  0.3577  0.0958
 1055YOPC   D3B12119   7.866   6.176   7.895 -0.0242  0.4346  0.1057
 1055YOPC   C4B12120   8.198   6.143   8.034  0.1356  0.1001 -0.1209
 1056YOPC   NC312121   1.419  13.848   6.182 -0.2675  0.1949  0.4485
 1056YOPC   PO412122   1.322  13.750   6.630 -0.3429  0.0374  0.1188
 1056YOPC   GL112123   1.525  13.843   6.973 -0.2162  0.0820  0.2580
 1056YOPC   GL212124   1.826  13.700   7.117  0.1680  0.2961 -0.1285
 1056YOPC   C1A12125   1.459  13.902   7.394  0.4577 -0.1082  0.1685
 1056YOPC   D2A12126   1.685  13.939   7.698  0.1433  0.0301  0.0955
 1056YOPC   C3A12127   1.794  13.732   8.034  0.2270 -0.2224 -0.1628
 1056YOPC   C4A12128   1.896  13.791   8.425  0.2433  0.4449 -0.3011
 1056YOPC   C1B12129   2.005  13.566   7.500 -0.0365 -0.0341  0.3643
 1056YOPC   C2B12130   2.297  13.335   7.825  0.2963 -0.4187 -0.1333
 1056YOPC   D3B12131   2.213  13.413   8.227 -0.2073  0.0825 -0.2644
 1056YOPC   C4B12132   2.045  13.393   8.652  0.3101 -0.2011 -0.1935
 1057YOPC   NC312133  12.501   1.465   6.208  0.0630 -0.0389  0.0533
 1057YOPC   PO412134  12.727   1.794   6.370 -0.2959  0.0060  0.0654
 1057YOPC   GL112135  12.601   1.715   6.817  0.1994 -0.1237  0.0754
 1057YOPC   GL212136  12.321   1.607   6.877  0.4317  0.0902 -0.0267
 1057YOPC   C1A12137  12.569   1.721   7.289  0.1957 -0.0270 -0.2247
 1057YOPC   D2A12138  12.138   1.885   7.366 -0.0000 -0.2028 -0.6145
 1057YOPC   C3A12139  11.897   1.735   7.775 -0.0690 -0.1163  0.1736
 1057YOPC   C4A12140  11.548   1.524   7.919  0.1448  0.0782 -0.3246
 1057YOPC   C1B12141  12.219   1.372   7.261 -0.0995 -0.1972 -0.0534
 1057YOPC   C2B12142  12.336   1.506   7.722  0.2527 -0.0397  0.0030
 1057YOPC   D3B12143  12.623   1.340   8.064  0.0469 -0.3064  0.0306
 1057YOPC   C4B12144  12.587   1.275   8.484 -0.0136 -0.0116  0.1058
 1058YOPC   NC312145  11.631   9.599   5.741 -0.1717  0.1380  0.3208
 1058YOPC   PO412146  12.089   9.552   5.815 -0.2344  0.3054  0.0235
 1058YOPC   GL112147  12.034   9.241   6.179 -0.1223  0.1621 -0.3695
 1058YOPC   GL212148  12.185   8.903   6.041  0.1577  0.3343  0.0171
 1058YOPC   C1A12149  12.136   9.186   6.543  0.0347  0.0693 -0.0984
 1058YOPC   D2A12150  12.107   9.267   7.025 -0.1460 -0.2203 -0.2800
 1058YOPC   C3A12151  12.154   8.892   7.285 -0.3466 -0.1050  0.3892
 1058YOPC   C4A12152  12.122   8.825   7.727 -0.3903  0.4287 -0.2664
 1058YOPC   C1B12153  12.239   8.758   6.459 -0.0252  0.0920 -0.1900
 1058YOPC   C2B12154  12.425   8.628   6.857 -0.1118  0.1063  0.1727
 1058YOPC   D3B12155  12.360   8.364   7.199  0.1851  0.0267  0.3979
 1058YOPC   C4B12156  12.315   8.365   7.648 -0.3982 -0.2235 -0.0717
 1059YOPC   NC312157   3.208   0.202   6.127 -0.0281 -0.1287  0.2476
 1059YOPC   PO412158   3.623   0.507   6.284  0.1324 -0.0919  0.0187
 1059YOPC   GL112159   3.586   0.670   6.685  0.5552  0.1680  0.0842
 1059YOPC   GL212160   3.740   0.940   6.827  0.1732  0.1170 -0.0154
 1059YOPC   C1A12161   3.309   0.763   7.072 -0.0033 -0.0484  0.1685
 1059YOPC   D2A12162   3.542   0.850   7.368  0.1115 -0.0494  0.1455
 1059YOPC   C3A12163   3.667   0.985   7.757  0.1636 -0.1781  0.3722
 1059YOPC   C4A12164   3.660   1.282   8.090 -0.2232  0.1540 -0.2335
 1059YOPC   C1B12165   3.952   1.121   7.276 -0.1790 -0.1141  0.4268
 1059YOPC   C2B12166   4.026   1.414   7.628 -0.3035 -0.3179  0.1961
 1059YOPC   D3B12167   4.177   1.271   8.020 -0.1457 -0.1088 -0.0351
 1059YOPC   C4B12168   4.108   1.318   8.446  0.2878  0.1728 -0.1272
 1060YOPC   NC312169  16.711  12.209   6.457 -0.1258  0.0569  0.2700
 1060YOPC   PO412170  16.889  12.597   6.592  0.1991  0.3470 -0.1017
 1060YOPC   GL112171  16.862  12.720   6.992  0.0392  0.0918  0.0458
 1060YOPC   GL212172  17.145  12.954   7.045 -0.3288 -0.0311 -0.2681
 1060YOPC   C1A12173  16.819  12.528   7.379 -0.0487  0.0532 -0.2110
 1060YOPC   D2A12174  16.756  12.361   7.752 -0.0822  0.0682  0.2753
 1060YOPC   C3A12175  16.884  12.394   8.131 -0.2354 -0.0671 -0.4324
 1060YOPC   C4A12176  17.122  12.515   8.574 -0.1501 -0.0146  0.2984
 1060YOPC   C1B12177  17.309  12.858   7.486  0.1250  0.3378 -0.0452
 1060YOPC   C2B12178  17.490  12.773   7.918 -0.1310  0.2149 -0.0563
 1060YOPC   D3B12179  17.387  12.375   8.106 -0.0614  0.2413  0.1882
 1060YOPC   C4B12180  17.236  12.017   8.415 -0.2880 -0.1051  0.0660
 1061YOPC   NC312181  14.843  16.677   6.192 -0.1974  0.2564 -0.0527
 1061YOPC   PO412182  14.967  16.990   6.354 -0.0128 -0.1246 -0.1181
 1061YOPC   GL112183  14.962  17.113   6.749 -0.0042 -0.2562 -0.0102
 1061YOPC   GL212184  14.798  17.340   6.686  0.4010  0.1267  0.0032
 1061YOPC   C1A12185  14.941  17.411   7.161  0.0540 -0.0327  0.0277
 1061YOPC   D2A12186  14.935  17.753   7.441  0.1026  0.0662 -0.0900
 1061YOPC   C3A12187  15.022  17.867   7.849 -0.1628  0.1519  0.1197
 1061YOPC   C4A12188  15.295  18.065   8.216 -0.0831 -0.0182  0.3458
 1061YOPC   C1B12189  14.492  17.202   7.039  0.4015 -0.0595 -0.0984
 1061YOPC   C2B12190  14.551  17.370   7.497 -0.4012 -0.1509  0.1155
 1061YOPC   D3B12191  14.875  17.310   7.696  0.1619  0.1125 -0.0170
 1061YOPC   C4B12192  14.918  17.235   8.061 -0.0641  0.0799 -0.0722
 1062YOPC   NC312193  17.672  17.692   5.962  0.3290 -0.1553  0.0319
 1062YOPC   PO412194  18.053  17.590   6.147  0.2234  0.1501  0.4606
 1062YOPC   GL112195  18.105  17.797   6.522 -0.1084  0.2006  0.0782
 1062YOPC   GL212196  18.038  18.112   6.384  0.1979  0.0006  0.1928
 1062YOPC   C1A12197  17.883  17.875   6.848 -0.0094  0.1250  0.1061
 1062YOPC   D2A12198  17.694  18.206   7.104  0.0287 -0.0040  0.1761
 1062YOPC   C3A12199  17.429  18.270   7.405  0.1062 -0.3813  0.0042
 1062YOPC   C4A12200  17.314  18.385   7.729 -0.2649  0.2045  0.3451
 1062YOPC   C1B12201  17.748  18.364   6.662 -0.2878 -0.0899  0.2255
 1062YOPC   C2B12202  17.302  18.240   6.689  0.0951  0.2571 -0.0568
 1062YOPC   D3B12203  17.013  18.513   6.966 -0.0348  0.0444 -0.0598
 1062YOPC   C4B12204  16.943  18.639   7.431 -0.2983  0.0818 -0.1970
 1063YOPC   NC312205   3.626   7.779   5.677  0.3218 -0.1898 -0.2756
 1063YOPC   PO412206   3.224   7.761   5.973  0.1262  0.0051  0.4031
 1063YOPC   GL112207   3.242   7.526   6.359  0.2889 -0.1593 -0.1996
 1063YOPC   GL212208   2.975   7.815   6.416 -0.1709  0.1808  0.1037
 1063YOPC   C1A12209   3.139   7.332   6.762 -0.0576  0.1962 -0.2839
 1063YOPC   D2A12210   2.743   7.374   7.091 -0.1360 -0.1973  0.0750
 1063YOPC   C3A12211   2.788   7.276   7.531  0.2739 -0.0838 -0.0508
 1063YOPC   C4A12212   2.765   7.112   7.901  0.0206 -0.0507 -0.0234
 1063YOPC   C1B12213   2.980   7.838   6.908  0.0716  0.3547  0.0588
 1063YOPC   C2B12214   2.919   7.857   7.329 -0.1289 -0.3970 -0.1986
 1063YOPC   D3B12215   3.204   7.643   7.622 -0.1068 -0.1003  0.1558
 1063YOPC   C4B12216   3.398   7.345   7.846  0.1730 -0.0940  0.0142
 1064YOPC   NC312217  10.512   3.009   6.725  0.1619 -0.0010  0.0928
 1064YOPC   PO412218  10.511   3.413   6.672 -0.1465 -0.1673  0.2025
 1064YOPC   GL112219  10.351   3.496   7.062 -0.0967 -0.2668 -0.1199
 1064YOPC   GL212220  10.393   3.126   7.261  0.0702 -0.1079 -0.0762
 1064YOPC   C1A12221  10.238   3.693   7.429 -0.5795  0.0798  0.0496
 1064YOPC   D2A12222  10.378   3.596   7.836  0.0610 -0.1582 -0.1343
 1064YOPC   C3A12223  10.200   3.644   8.133  0.0091 -0.1788  0.3958
 1064YOPC   C4A12224  10.238   3.710   8.561  0.1275 -0.0345  0.0501
 1064YOPC   C1B12225  10.626   3.332   7.506  0.1569  0.0062  0.1266
 1064YOPC   C2B12226  10.910   3.245   7.783  0.0739  0.1104  0.0613
 1064YOPC   D3B12227  10.859   3.609   8.003  0.1766  0.0551  0.0087
 1064YOPC   C4B12228  10.723   3.511   8.472  0.0684  0.0997  0.2457
 1065YOPC   NC312229  14.631  15.997   6.326  0.1829 -0.2965 -0.0176
 1065YOPC   PO412230  15.009  16.244   6.257  0.0085 -0.0179 -0.0606
 1065YOPC   GL112231  15.153  16.137   6.628  0.0886  0.0134 -0.2488
 1065YOPC   GL212232  15.441  16.330   6.645 -0.1398  0.2025  0.0460
 1065YOPC   C1A12233  15.180  16.296   7.043  0.0865 -0.2847  0.0237
 1065YOPC   D2A12234  15.038  16.398   7.403 -0.2089 -0.1205  0.1558
 1065YOPC   C3A12235  15.182  16.703   7.650 -0.1758  0.0782 -0.0747
 1065YOPC   C4A12236  15.364  16.943   8.066 -0.0919 -0.1622  0.2249
 1065YOPC   C1B12237  15.559  15.972   6.964  0.2213 -0.2752 -0.3957
 1065YOPC   C2B12238  15.387  16.033   7.424 -0.0750  0.0456  0.0365
 1065YOPC   D3B12239  15.382  16.181   7.818  0.1359 -0.1153 -0.1550
 1065YOPC   C4B12240  15.375  16.448   8.144  0.0169  0.2059  0.1139
 1066YOPC   NC312241   0.830   7.926   5.853 -0.2040  0.0081 -0.0554
 1066YOPC   PO412242   0.691   8.366   6.054 -0.1421 -0.0007 -0.0744
 1066YOPC   GL112243   0.604   8.316   6.481 -0.1918  0.1985  0.0403
 1066YOPC   GL212244   0.379   8.571   6.558  0.0313 -0.0454 -0.1285
 1066YOPC   C1A12245   0.545   8.256   6.897  0.1752 -0.0038 -0.1828
 1066YOPC   D2A12246   0.902   8.319   7.185 -0.1257 -0.0282  0.1985
 1066YOPC   C3A12247   1.357   8.189   7.373  0.4226 -0.0341 -0.0365
 1066YOPC   C4A12248   1.463   7.930   7.682  0.0242 -0.0982  0.0727
 1066YOPC   C1B12249   0.129   8.480   6.868  0.1604  0.0373  0.1261
 1066YOPC   C2B12250   0.050   8.258   7.216  0.1355 -0.2806  0.1694
 1066YOPC   D3B12251   0.436   8.075   7.396  0.0575 -0.0249 -0.1448
 1066YOPC   C4B12252   0.519   7.771   7.632 -0.1114  0.2108 -0.1606
 1067YOPC   NC312253   9.845  15.760   6.183 -0.0964 -0.2719  0.1763
 1067YOPC   PO412254   9.519  15.468   6.065 -0.1249 -0.1323  0.0906
 1067YOPC   GL112255   9.529  15.453   6.516  0.0340 -0.4470 -0.1510
 1067YOPC   GL212256   9.707  15.280   6.584  0.1298 -0.1566  0.0553
 1067YOPC   C1A12257   9.524  15.558   6.971 -0.3487 -0.2560 -0.2084
 1067YOPC   D2A12258   9.357  15.583   7.394 -0.1619  0.1476 -0.1123
 1067YOPC   C3A12259   9.498  15.546   7.835 -0.0233 -0.1000 -0.3074
 1067YOPC   C4A12260   9.687  15.839   8.154 -0.0400 -0.0390  0.1570
 1067YOPC   C1B12261   9.951  15.329   7.002 -0.2680 -0.1556  0.2239
 1067YOPC   C2B12262   9.917  15.460   7.411 -0.2420  0.3486 -0.0619
 1067YOPC   D3B12263   9.923  15.311   7.840 -0.0886  0.0474  0.1022
 1067YOPC   C4B12264  10.061  15.093   8.190 -0.1591  0.1828 -0.0178
 1068YOPC   NC312265  13.229  16.799   6.239  0.0646  0.0306 -0.1006
 1068YOPC   PO412266  12.900  17.048   6.524 -0.0593 -0.1733  0.2942
 1068YOPC   GL112267  13.058  17.246   6.844 -0.0502  0.0355 -0.3581
 1068YOPC   GL212268  13.122  17.040   7.118  0.4166 -0.0347 -0.3375
 1068YOPC   C1A12269  13.397  17.542   6.960 -0.1452  0.1614 -0.0367
 1068YOPC   D2A12270  13.742  17.608   6.702 -0.0992 -0.4795 -0.1893
 1068YOPC   C3A12271  14.196  17.589   6.771 -0.0172 -0.1053 -0.0085
 1068YOPC   C4A12272  14.619  17.697   7.028 -0.0562 -0.1837 -0.2646
 1068YOPC   C1B12273  13.355  17.336   7.417  0.0816 -0.0268 -0.3606
 1068YOPC   C2B12274  13.673  17.335   7.836  0.0442 -0.0596  0.0422
 1068YOPC   D3B12275  13.935  17.480   8.186 -0.2047 -0.2283  0.0247
 1068YOPC   C4B12276  13.813  17.487   8.551  0.1463  0.0456 -0.1777
 1069YOPC   NC312277   4.084  11.796   6.458  0.0067  0.0543 -0.0975
 1069YOPC   PO412278   4.489  11.850   6.582  0.4197 -0.1805 -0.1927
 1069YOPC   GL112279   4.712  11.810   6.979 -0.1651 -0.0771  0.0548
 1069YOPC   GL212280   4.706  11.476   6.934  0.0901  0.1349  0.3018
 1069YOPC   C1A12281   4.859  11.771   7.441  0.0961  0.2575  0.0937
 1069YOPC   D2A12282   4.769  11.729   7.843  0.1033  0.0233 -0.2012
 1069YOPC   C3A12283   4.779  11.918   8.232 -0.1043 -0.2697 -0.1193
 1069YOPC   C4A12284   4.589  12.214   8.591  0.1815 -0.0333  0.0709
 1069YOPC   C1B12285   4.800  11.213   7.214  0.0118  0.4468  0.2425
 1069YOPC   C2B12286   4.805  11.242   7.690 -0.1149  0.3626 -0.0884
 1069YOPC   D3B12287   4.523  10.935   7.962 -0.0241  0.0427  0.0244
 1069YOPC   C4B12288   4.493  10.735   8.374  0.0923 -0.2287 -0.0823
 1070YOPC   NC312289  15.504  12.740   6.449  0.1366 -0.2331  0.0193
 1070YOPC   PO412290  15.263  13.089   6.482  0.0441  0.0571  0.0605
 1070YOPC   GL112291  15.197  13.122   6.926 -0.0593  0.0430  0.0457
 1070YOPC   GL212292  15.376  13.037   6.950 -0.0996  0.2252  0.1587
 1070YOPC   C1A12293  15.052  12.992   7.338 -0.0617  0.0059 -0.4003
 1070YOPC   D2A12294  14.770  13.016   7.689 -0.0248 -0.0983  0.3233
 1070YOPC   C3A12295  15.048  12.814   7.991 -0.0374 -0.0320 -0.1694
 1070YOPC   C4A12296  15.300  12.432   8.008  0.0020 -0.0762 -0.0010
 1070YOPC   C1B12297  15.449  12.663   7.087 -0.0721  0.0787  0.2823
 1070YOPC   C2B12298  15.410  12.564   7.527  0.1795 -0.1919  0.0351
 1070YOPC   D3B12299  15.781  12.661   7.763 -0.1402 -0.3261  0.3741
 1070YOPC   C4B12300  15.857  12.389   8.223  0.0401 -0.0453 -0.0037
 1071YOPC   NC312301   1.893   1.445   5.882 -0.2461 -0.0862  0.0616
 1071YOPC   PO412302   2.140   1.551   6.293  0.3392 -0.0571  0.0344
 1071YOPC   GL112303   1.802   1.673   6.517  0.0850  0.1510 -0.2745
 1071YOPC   GL212304   1.436   1.597   6.412 -0.0574 -0.1824  0.2252
 1071YOPC   C1A12305   1.896   1.677   6.976 -0.0371 -0.1093  0.3048
 1071YOPC   D2A12306   1.905   1.613   7.329 -0.0982  0.0059 -0.1676
 1071YOPC   C3A12307   2.175   1.211   7.372  0.0262  0.5219  0.0119
 1071YOPC   C4A12308   2.296   0.806   7.251  0.0267 -0.0008 -0.1127
 1071YOPC   C1B12309   1.206   1.806   6.631  0.1168  0.1119  0.2231
 1071YOPC   C2B12310   0.987   1.860   7.059 -0.1839 -0.0317 -0.0900
 1071YOPC   D3B12311   0.555   1.999   7.187  0.0864  0.0784 -0.2214
 1071YOPC   C4B12312   0.254   1.885   7.481  0.1795  0.2558  0.1493
 1072YOPC   NC312313   5.269  17.060   6.429 -0.3135 -0.1270  0.0994
 1072YOPC   PO412314   5.107  16.606   6.423 -0.0015  0.0464  0.2578
 1072YOPC   GL112315   5.012  16.545   6.862 -0.0410  0.0193  0.0747
 1072YOPC   GL212316   4.891  16.234   7.004  0.3479  0.1744  0.0626
 1072YOPC   C1A12317   4.799  16.648   7.267 -0.1304 -0.0039 -0.1522
 1072YOPC   D2A12318   4.863  17.087   7.399  0.0230  0.1118  0.0694
 1072YOPC   C3A12319   4.768  17.391   7.829 -0.0795 -0.1743  0.0112
 1072YOPC   C4A12320   4.816  17.894   7.952 -0.1040 -0.0956 -0.2320
 1072YOPC   C1B12321   4.898  16.235   7.546 -0.0783 -0.3674  0.0550
 1072YOPC   C2B12322   4.888  16.163   7.960  0.2724 -0.2192  0.0257
 1072YOPC   D3B12323   5.250  15.951   8.193  0.3167 -0.0931  0.0778
 1072YOPC   C4B12324   5.719  16.022   8.305 -0.1088 -0.0193  0.0188
 1073YOPC   NC312325  17.947  13.820   6.120  0.2187 -0.0331  0.2275
 1073YOPC   PO412326  17.834  14.150   6.449 -0.0543  0.0559 -0.0049
 1073YOPC   GL112327  18.105  14.213   6.843 -0.1246 -0.1080  0.3986
 1073YOPC   GL212328  18.135  14.509   6.952 -0.0196 -0.0114 -0.0545
 1073YOPC   C1A12329  18.196  14.018   7.178 -0.3675  0.0644  0.1899
 1073YOPC   D2A12330  18.145  13.982   7.617  0.2427 -0.1033 -0.3801
 1073YOPC   C3A12331  18.311  14.378   7.916  0.0203 -0.0518  0.0612
 1073YOPC   C4A12332  18.088  14.511   8.269 -0.0427 -0.0287  0.3064
 1073YOPC   C1B12333  18.158  14.459   7.427  0.1647  0.1678 -0.2042
 1073YOPC   C2B12334  18.263  14.836   7.629 -0.1452  0.2258 -0.2266
 1073YOPC   D3B12335  18.248  14.915   8.052  0.1572 -0.1295  0.0087
 1073YOPC   C4B12336  18.021  15.100   8.452  0.0075 -0.0828  0.1671
 1074YOPC   NC312337   6.287  13.765   6.105  0.2863 -0.0767  0.2344
 1074YOPC   PO412338   6.158  13.572   6.459  0.1312  0.0258 -0.0419
 1074YOPC   GL112339   6.197  13.322   6.791 -0.0189  0.0553  0.0559
 1074YOPC   GL212340   5.845  13.349   6.861 -0.4194 -0.0632  0.0165
 1074YOPC   C1A12341   6.229  13.161   7.144 -0.3025 -0.1062  0.2914
 1074YOPC   D2A12342   6.351  12.838   7.469  0.0881  0.0363 -0.0015
 1074YOPC   C3A12343   6.316  13.005   7.923  0.0700  0.0358 -0.2605
 1074YOPC   C4A12344   6.253  13.262   8.242  0.0490  0.0304 -0.0665
 1074YOPC   C1B12345   5.782  13.432   7.232  0.0466  0.0070 -0.0965
 1074YOPC   C2B12346   5.825  13.661   7.550  0.4379 -0.1858 -0.1837
 1074YOPC   D3B12347   5.596  13.526   7.927  0.1266  0.2338 -0.1900
 1074YOPC   C4B12348   5.587  13.446   8.323 -0.1098  0.2501 -0.1970
 1075YOPC   NC312349   9.643  16.730   6.243 -0.2550  0.0954 -0.0790
 1075YOPC   PO412350   9.486  17.144   6.296 -0.0407  0.3115  0.0951
 1075YOPC   GL112351   9.461  17.034   6.716 -0.0954 -0.0152  0.0017
 1075YOPC   GL212352   9.431  16.727   6.721 -0.1643  0.1577 -0.3673
 1075YOPC   C1A12353   9.281  17.119   7.063  0.0230 -0.1800  0.2845
 1075YOPC   D2A12354   8.903  17.363   7.225 -0.2362  0.1713 -0.5216
 1075YOPC   C3A12355   8.783  17.525   7.730  0.1838  0.0968  0.2464
 1075YOPC   C4A12356   8.809  17.726   8.047  0.2428  0.1993 -0.3434
 1075YOPC   C1B12357   9.502  16.629   7.121  0.3158  0.1515 -0.3065
 1075YOPC   C2B12358   9.600  16.515   7.560  0.5100  0.0151  0.1412
 1075YOPC   D3B12359   9.338  16.320   7.923  0.0604 -0.2418 -0.4127
 1075YOPC   C4B12360   9.147  16.299   8.205 -0.1797  0.1957  0.1157
 1076YOPC   NC312361   1.837  13.399   6.751  0.2033  0.2557 -0.2344
 1076YOPC   PO412362   2.191  13.715   6.734  0.2837  0.4392  0.1404
 1076YOPC   GL112363   2.466  13.732   7.113 -0.0041 -0.2021  0.3249
 1076YOPC   GL212364   2.567  14.046   7.114 -0.0085  0.1806 -0.1980
 1076YOPC   C1A12365   2.567  13.580   7.456  0.1512  0.1854  0.0889
 1076YOPC   D2A12366   2.792  13.749   7.781 -0.4364 -0.0842  0.2271
 1076YOPC   C3A12367   2.627  13.701   8.142 -0.1662  0.3371 -0.0250
 1076YOPC   C4A12368   2.685  13.587   8.532  0.5195 -0.1610  0.2915
 1076YOPC   C1B12369   2.639  14.190   7.535 -0.3252  0.2354  0.0895
 1076YOPC   C2B12370   2.650  14.226   7.938  0.0047 -0.1013 -0.1353
 1076YOPC   D3B12371   2.928  14.057   8.308 -0.0899  0.1115  0.2483
 1076YOPC   C4B12372   2.923  14.014   8.707  0.1469 -0.1000  0.0253
 1077YOPC   NC312373   6.835  14.220   6.370 -0.4790  0.3730  0.0391
 1077YOPC   PO412374   6.469  14.270   6.176 -0.3223  0.3151  0.0569
 1077YOPC   GL112375   6.379  14.055   6.523  0.2483 -0.0191 -0.2927
 1077YOPC   GL212376   6.464  14.307   6.720 -0.1660 -0.1862  0.2867
 1077YOPC   C1A12377   6.334  13.868   6.922 -0.1220  0.2512 -0.0393
 1077YOPC   D2A12378   6.313  13.742   7.336 -0.0251  0.1692  0.0542
 1077YOPC   C3A12379   6.260  13.651   7.877 -0.1808  0.1322  0.0146
 1077YOPC   C4A12380   6.434  13.853   8.110  0.1403 -0.0310  0.1996
 1077YOPC   C1B12381   6.514  14.282   7.088  0.0531  0.3151  0.0242
 1077YOPC   C2B12382   6.466  14.233   7.367  0.1431  0.1200 -0.0272
 1077YOPC   D3B12383   6.476  14.335   7.811 -0.1511 -0.0821  0.2196
 1077YOPC   C4B12384   6.409  14.322   8.298  0.0924  0.2020 -0.1361
 1078YOPC   NC312385   7.311  11.424   6.072 -0.0016 -0.0671 -0.1160
 1078YOPC   PO412386   7.452  11.852   6.221  0.3598  0.0843  0.0552
 1078YOPC   GL112387   7.798  11.832   6.590 -0.1428 -0.0891 -0.0865
 1078YOPC   GL212388   8.014  11.807   6.440  0.0887 -0.4384 -0.1793
 1078YOPC   C1A12389   8.012  11.886   6.966  0.4680  0.0382 -0.3813
 1078YOPC   D2A12390   7.917  11.892   7.348 -0.1272  0.1258  0.0075
 1078YOPC   C3A12391   7.992  11.841   7.819 -0.1398 -0.1005 -0.0225
 1078YOPC   C4A12392   8.364  12.000   8.072  0.2835 -0.1793  0.2399
 1078YOPC   C1B12393   8.437  11.854   6.719  0.1460 -0.0609 -0.0721
 1078YOPC   C2B12394   8.612  11.921   7.149 -0.4334  0.0325 -0.0565
 1078YOPC   D3B12395   8.465  11.900   7.523  0.3118  0.6066 -0.1088
 1078YOPC   C4B12396   8.674  11.584   7.920 -0.3035  0.0775  0.0663
 1079YOPC   NC312397   1.160  14.235   6.485 -0.1230  0.1124 -0.1313
 1079YOPC   PO412398   1.383  14.251   6.724  0.0798  0.1875 -0.1042
 1079YOPC   GL112399   1.630  14.296   7.108  0.0347  0.0240  0.0451
 1079YOPC   GL212400   1.649  14.586   7.129  0.0558  0.1957 -0.1602
 1079YOPC   C1A12401   2.027  14.130   7.407  0.2339  0.1724  0.0059
 1079YOPC   D2A12402   2.314  13.855   7.745 -0.2147  0.0263  0.0212
 1079YOPC   C3A12403   2.198  13.991   8.126  0.1427 -0.0252  0.0433
 1079YOPC   C4A12404   2.428  14.039   8.532  0.1580 -0.0578  0.0311
 1079YOPC   C1B12405   1.803  14.536   7.624 -0.2007 -0.5203  0.1303
 1079YOPC   C2B12406   1.935  14.331   7.977  0.1122 -0.0832  0.5229
 1079YOPC   D3B12407   1.793  14.307   8.374  0.2774  0.1149  0.0050
 1079YOPC   C4B12408   1.585  14.018   8.801  0.0712 -0.0009  0.0934
 1080YOPC   NC312409   3.708   1.086   6.339 -0.1430  0.1734 -0.1388
 1080YOPC   PO412410   3.325   1.218   6.242  0.2218 -0.0982  0.3543
 1080YOPC   GL112411   3.297   1.293   6.641 -0.0167  0.3800  0.1666
 1080YOPC   GL212412   3.034   1.156   6.733 -0.1642 -0.1797 -0.2006
 1080YOPC   C1A12413   3.549   1.389   6.984  0.0280  0.3222  0.0802
 1080YOPC   D2A12414   3.522   1.454   7.351  0.0285 -0.0898 -0.0113
 1080YOPC   C3A12415   3.380   1.625   7.732 -0.0181  0.0541 -0.0387
 1080YOPC   C4A12416   3.324   1.970   7.877  0.1941 -0.0890  0.1228
 1080YOPC   C1B12417   3.099   1.180   7.187  0.2956  0.2878 -0.2245
 1080YOPC   C2B12418   3.187   1.142   7.656  0.2468  0.0647 -0.0751
 1080YOPC   D3B12419   3.051   1.399   8.006  0.0652  0.0354  0.3227
 1080YOPC   C4B12420   3.292   1.644   8.292  0.2611 -0.1706  0.0618
 1081YOPC   NC312421   8.147   7.158   5.739 -0.0250 -0.0964 -0.2311
 1081YOPC   PO412422   8.075   7.338   6.138  0.4717 -0.0380  0.0439
 1081YOPC   GL112423   8.011   7.217   6.597  0.0060  0.3809 -0.0589
 1081YOPC   GL212424   7.987   7.405   6.798  0.1640 -0.0284 -0.0639
 1081YOPC   C1A12425   7.938   6.960   7.004 -0.1186  0.0316  0.0817
 1081YOPC   D2A12426   7.795   6.610   7.274  0.0582  0.2500  0.0458
 1081YOPC   C3A12427   8.011   6.648   7.723 -0.3145 -0.0261 -0.0589
 1081YOPC   C4A12428   8.210   6.714   8.165  0.2781  0.0237 -0.3284
 1081YOPC   C1B12429   8.118   7.420   7.222 -0.0095 -0.0326 -0.2725
 1081YOPC   C2B12430   8.096   7.060   7.505 -0.0217 -0.1449 -0.1405
 1081YOPC   D3B12431   8.390   7.091   7.789  0.0107 -0.2111 -0.2332
 1081YOPC   C4B12432   8.556   7.452   7.992  0.3109  0.2413 -0.1764
 1082YOPC   NC312433   8.490  12.449   5.907  0.0046  0.1763 -0.2701
 1082YOPC   PO412434   8.106  12.463   6.185 -0.3823  0.2669 -0.1002
 1082YOPC   GL112435   8.425  12.732   6.356 -0.1823  0.2717  0.1232
 1082YOPC   GL212436   8.647  12.551   6.571 -0.2404 -0.2787  0.1309
 1082YOPC   C1A12437   8.421  12.957   6.760 -0.0078  0.2449 -0.4488
 1082YOPC   D2A12438   8.416  13.038   7.137  0.2324  0.3974 -0.1706
 1082YOPC   C3A12439   8.652  13.272   7.334 -0.3875 -0.2043 -0.0655
 1082YOPC   C4A12440   8.742  13.477   7.733  0.0596  0.0738  0.1046
 1082YOPC   C1B12441   8.873  12.815   6.890  0.0509 -0.0218 -0.1522
 1082YOPC   C2B12442   8.790  12.767   7.327  0.0214 -0.1384  0.3747
 1082YOPC   D3B12443   8.507  12.976   7.681  0.0456 -0.0632 -0.1263
 1082YOPC   C4B12444   8.282  13.246   7.991  0.2101 -0.7103 -0.0446
 1083YOPC   NC312445   6.730  16.985   6.249  0.3671  0.1543 -0.5535
 1083YOPC   PO412446   6.502  17.305   6.483 -0.0709 -0.4446 -0.4778
 1083YOPC   GL112447   6.798  17.195   6.730  0.2736 -0.0670 -0.0248
 1083YOPC   GL212448   6.768  17.505   6.916  0.0526 -0.2425 -0.0044
 1083YOPC   C1A12449   6.830  16.913   7.116 -0.1691  0.1450 -0.1494
 1083YOPC   D2A12450   6.624  16.985   7.553 -0.0860 -0.0727 -0.0282
 1083YOPC   C3A12451   6.685  16.757   7.998 -0.2130  0.3163 -0.0531
 1083YOPC   C4A12452   6.871  16.783   8.440 -0.2703  0.1773  0.1463
 1083YOPC   C1B12453   6.873  17.347   7.271  0.0556  0.3069 -0.1146
 1083YOPC   C2B12454   6.805  17.425   7.726  0.0470  0.0294  0.2665
 1083YOPC   D3B12455   6.703  17.876   7.669  0.0613 -0.1151  0.0749
 1083YOPC   C4B12456   6.335  18.128   7.713  0.1847 -0.0075  0.0098
 1084YOPC   NC312457   3.425   8.563   5.582 -0.0155 -0.0622 -0.3424
 1084YOPC   PO412458   3.525   8.680   6.048  0.0469  0.1550 -0.0668
 1084YOPC   GL112459   3.480   8.686   6.521 -0.0195  0.0182  0.1846
 1084YOPC   GL212460   3.665   8.889   6.532  0.0374  0.0788 -0.0095
 1084YOPC   C1A12461   3.394   8.520   6.874  0.0008  0.1735  0.0911
 1084YOPC   D2A12462   3.414   8.072   7.220  0.1221  0.0439  0.0734
 1084YOPC   C3A12463   3.375   8.178   7.579  0.1413  0.1845 -0.1360
 1084YOPC   C4A12464   3.591   7.977   7.836  0.2626 -0.0986  0.2197
 1084YOPC   C1B12465   3.818   8.888   6.960 -0.0113 -0.1692 -0.0394
 1084YOPC   C2B12466   4.007   8.806   7.338 -0.0666  0.1250 -0.0481
 1084YOPC   D3B12467   3.971   8.800   7.791 -0.0509  0.0502 -0.0225
 1084YOPC   C4B12468   4.216   8.629   8.098 -0.0442  0.1801 -0.0518
 1085YOPC   NC312469  12.064  17.004   6.785  0.2658  0.0393 -0.1467
 1085YOPC   PO412470  11.660  16.948   6.758  0.3005  0.1292 -0.0759
 1085YOPC   GL112471  11.701  16.785   7.140  0.0990 -0.0358 -0.0932
 1085YOPC   GL212472  11.490  16.652   7.264  0.0219 -0.4940 -0.0803
 1085YOPC   C1A12473  11.869  16.758   7.567 -0.2192 -0.0535 -0.1431
 1085YOPC   D2A12474  11.819  16.591   8.014 -0.1393 -0.0131 -0.1314
 1085YOPC   C3A12475  11.518  16.497   8.183  0.3556 -0.0070 -0.2397
 1085YOPC   C4A12476  11.310  16.500   8.510 -0.0863 -0.3391 -0.2969
 1085YOPC   C1B12477  11.378  16.575   7.720 -0.3115  0.2924 -0.2920
 1085YOPC   C2B12478  10.951  16.506   7.822  0.1198  0.4139  0.2412
 1085YOPC   D3B12479  10.876  16.415   8.227  0.3768  0.0208  0.0581
 1085YOPC   C4B12480  10.868  16.336   8.714 -0.0832 -0.0039  0.2055
 1086YOPC   NC312481   9.728   2.457   6.576 -0.4406 -0.4128 -0.3125
 1086YOPC   PO412482  10.204   2.282   6.587 -0.0571 -0.0011  0.0038
 1086YOPC   GL112483  10.229   2.208   6.969  0.0617  0.0882  0.1495
 1086YOPC   GL212484   9.896   2.100   7.047  0.2222  0.1037  0.1133
 1086YOPC   C1A12485  10.062   2.569   7.288 -0.1198 -0.0708 -0.1761
 1086YOPC   D2A12486   9.923   2.912   7.447 -0.1361  0.1123  0.0199
 1086YOPC   C3A12487  10.155   3.187   7.696 -0.0423  0.5582 -0.1622
 1086YOPC   C4A12488  10.512   3.160   8.100  0.1768 -0.0360  0.0112
 1086YOPC   C1B12489   9.822   2.136   7.399  0.3118  0.1304 -0.1696
 1086YOPC   C2B12490   9.926   2.182   7.828 -0.1370 -0.0206  0.0034
 1086YOPC   D3B12491   9.685   2.023   8.199  0.0582 -0.1462 -0.1312
 1086YOPC   C4B12492   9.674   1.813   8.606 -0.3644 -0.1881 -0.2312
 1087YOPC   NC312493  15.882   8.417   5.621  0.1262  0.0136  0.3209
 1087YOPC   PO412494  15.436   8.323   5.558  0.1755 -0.0483  0.2182
 1087YOPC   GL112495  15.606   8.094   5.889 -0.1749  0.0268  0.1311
 1087YOPC   GL212496  15.203   8.086   6.169 -0.0882 -0.1915 -0.1203
 1087YOPC   C1A12497  15.655   7.967   6.351 -0.0914 -0.2334 -0.1311
 1087YOPC   D2A12498  15.589   8.125   6.749  0.2860 -0.1939 -0.0714
 1087YOPC   C3A12499  15.397   7.811   6.979  0.0458 -0.0711 -0.3759
 1087YOPC   C4A12500  15.681   7.484   7.164 -0.0483 -0.1111 -0.1876
 1087YOPC   C1B12501  15.156   8.192   6.544  0.2155 -0.3167 -0.1271
 1087YOPC   C2B12502  14.791   8.352   6.809 -0.1130  0.1558  0.0432
 1087YOPC   D3B12503  14.819   8.397   7.252 -0.0853  0.0516 -0.0154
 1087YOPC   C4B12504  14.803   8.277   7.655  0.0018 -0.0298 -0.1203
 1088YOPC   NC312505  10.119   3.705   6.647 -0.2108 -0.0079  0.0221
 1088YOPC   PO412506  10.587   3.846   6.386 -0.0507 -0.0872  0.0319
 1088YOPC   GL112507  10.719   3.888   6.756 -0.2979  0.2273  0.0343
 1088YOPC   GL212508  10.507   4.031   6.930 -0.0326 -0.0433 -0.1816
 1088YOPC   C1A12509  10.986   4.172   7.043 -0.0231 -0.0742  0.1053
 1088YOPC   D2A12510  11.055   4.447   7.370  0.0220 -0.2352  0.0043
 1088YOPC   C3A12511  10.759   4.542   7.635  0.0388 -0.0799  0.1423
 1088YOPC   C4A12512  10.412   4.597   7.775 -0.1825 -0.0690  0.1183
 1088YOPC   C1B12513  10.505   4.252   7.251 -0.1598 -0.1544 -0.0302
 1088YOPC   C2B12514  10.375   4.165   7.585 -0.4976  0.0611 -0.2230
 1088YOPC   D3B12515  10.598   4.155   7.996 -0.2109  0.0627 -0.0363
 1088YOPC   C4B12516  10.565   3.989   8.314 -0.1932 -0.0795  0.1205
 1089YOPC   NC312517   9.569   0.097   6.838 -0.0110  0.2557  0.1892
 1089YOPC   PO412518   9.681  -0.177   7.048  0.0176  0.2960 -0.1613
 1089YOPC   GL112519  10.043  -0.221   7.392 -0.0565  0.1909  0.0760
 1089YOPC   GL212520  10.202  -0.581   7.412  0.2761  0.2768 -0.2760
 1089YOPC   C1A12521  10.047  -0.060   7.833  0.0291 -0.0698  0.0927
 1089YOPC   D2A12522   9.925  -0.014   8.244  0.0419 -0.0154 -0.3134
 1089YOPC   C3A12523   9.591   0.104   8.418 -0.1228  0.1322 -0.2708
 1089YOPC   C4A12524   9.197   0.052   8.616 -0.0240  0.0816  0.1739
 1089YOPC   C1B12525   9.938  -0.507   7.919 -0.1649  0.1744  0.1317
 1089YOPC   C2B12526   9.645  -0.373   8.130  0.1998 -0.2989 -0.1879
 1089YOPC   D3B12527   9.501  -0.414   8.579  0.0933  0.1157  0.4547
 1089YOPC   C4B12528   9.252  -0.315   8.907  0.1286  0.1864 -0.1118
 1090YOPC   NC312529   0.676  13.394   6.038  0.0512 -0.1771  0.2506
 1090YOPC   PO412530   0.993  13.387   6.367 -0.0927  0.0148  0.1547
 1090YOPC   GL112531   0.919  13.494   6.761 -0.1604 -0.3546 -0.2640
 1090YOPC   GL212532   0.678  13.460   6.933  0.0496 -0.0012  0.2654
 1090YOPC   C1A12533   0.968  13.903   7.215 -0.0049 -0.1551 -0.4258
 1090YOPC   D2A12534   1.020  13.821   7.666  0.2618 -0.0820 -0.1989
 1090YOPC   C3A12535   1.311  13.698   7.951 -0.1099 -0.0305  0.1596
 1090YOPC   C4A12536   1.409  13.846   8.327  0.1577  0.0637 -0.1841
 1090YOPC   C1B12537   0.719  13.498   7.373 -0.3020  0.1172 -0.0631
 1090YOPC   C2B12538   0.509  13.389   7.767 -0.1436 -0.3605 -0.0280
 1090YOPC   D3B12539   0.689  13.545   8.125  0.0189  0.1509  0.0744
 1090YOPC   C4B12540   0.660  13.570   8.547  0.3914  0.0178  0.0209
 1091YOPC   NC312541   6.130  16.874   6.438  0.1656 -0.2796  0.1170
 1091YOPC   PO412542   6.017  16.592   6.750 -0.0258  0.0543 -0.0019
 1091YOPC   GL112543   5.975  16.531   7.093 -0.1238  0.2160 -0.2299
 1091YOPC   GL212544   6.379  16.640   7.157 -0.0200 -0.0551 -0.0872
 1091YOPC   C1A12545   5.913  16.494   7.548 -0.0051 -0.0210 -0.1074
 1091YOPC   D2A12546   6.210  16.691   7.682 -0.2569  0.1223  0.0480
 1091YOPC   C3A12547   6.224  16.979   7.944  0.1817 -0.1187  0.0890
 1091YOPC   C4A12548   6.541  17.234   8.151  0.0665 -0.0096  0.4414
 1091YOPC   C1B12549   6.341  16.252   7.393  0.2371 -0.0329 -0.0909
 1091YOPC   C2B12550   6.312  15.799   7.508  0.0572 -0.1043 -0.0987
 1091YOPC   D3B12551   6.459  15.649   7.915 -0.1418 -0.0320  0.2643
 1091YOPC   C4B12552   6.704  15.882   8.148 -0.0062 -0.0084  0.0641
 1092YOPC   NC312553  12.120   7.996   5.779  0.1237  0.0958  0.0351
 1092YOPC   PO412554  12.328   8.430   5.826  0.0293 -0.1694  0.2074
 1092YOPC   GL112555  12.440   8.261   6.182 -0.1621 -0.1367 -0.0102
 1092YOPC   GL212556  12.565   7.912   6.163  0.2642  0.0263 -0.1417
 1092YOPC   C1A12557  12.381   8.204   6.600 -0.0549  0.0572  0.0115
 1092YOPC   D2A12558  12.217   7.921   6.876 -0.1144 -0.3394 -0.0576
 1092YOPC   C3A12559  12.060   8.000   7.392  0.2833  0.2149 -0.2581
 1092YOPC   C4A12560  11.696   8.054   7.709 -0.1053 -0.4971 -0.1313
 1092YOPC   C1B12561  12.653   7.558   6.432  0.1709  0.2358  0.5615
 1092YOPC   C2B12562  12.467   7.436   6.822  0.0587  0.0161  0.4157
 1092YOPC   D3B12563  12.329   7.001   6.777 -0.3122 -0.0033 -0.1060
 1092YOPC   C4B12564  12.300   6.791   6.451  0.0563 -0.3844 -0.0602
 1093YOPC   NC312565   1.012  18.169   6.647  0.1939 -0.0069 -0.2170
 1093YOPC   PO412566   1.393  18.144   6.571 -0.1603 -0.1126 -0.1704
 1093YOPC   GL112567   1.430  18.228   6.965  0.0638 -0.1293 -0.2354
 1093YOPC   GL212568   1.146  18.247   7.125 -0.0889  0.0245 -0.2414
 1093YOPC   C1A12569   1.561  18.489   7.345  0.0353  0.2655 -0.2365
 1093YOPC   D2A12570   1.672  18.572   7.781  0.0984  0.2356  0.1015
 1093YOPC   C3A12571   1.930  18.850   8.053 -0.1532 -0.3084 -0.1766
 1093YOPC   C4A12572   2.408  18.871   8.105  0.1160 -0.3155  0.0925
 1093YOPC   C1B12573   1.050  18.464   7.485  0.1393 -0.0832  0.0542
 1093YOPC   C2B12574   1.161  18.432   7.926  0.1220  0.1211  0.1598
 1093YOPC   D3B12575   0.919  18.246   8.194  0.1325  0.0110 -0.0995
 1093YOPC   C4B12576   0.691  18.245   8.528  0.1012 -0.1334 -0.1734
 1094YOPC   NC312577   5.115   8.088   5.855 -0.1833  0.1369 -0.0351
 1094YOPC   PO412578   5.042   7.643   5.952 -0.1194 -0.1547  0.1651
 1094YOPC   GL112579   5.007   7.762   6.327  0.0191  0.0335  0.0804
 1094YOPC   GL212580   5.213   7.521   6.445 -0.3182  0.0189  0.1564
 1094YOPC   C1A12581   4.896   7.804   6.735 -0.0811  0.1462 -0.1285
 1094YOPC   D2A12582   4.885   7.714   7.187 -0.1177 -0.2398 -0.1044
 1094YOPC   C3A12583   4.801   7.947   7.425 -0.2469  0.2924 -0.0503
 1094YOPC   C4A12584   4.830   8.317   7.665  0.0914 -0.0653 -0.0043
 1094YOPC   C1B12585   5.443   7.761   6.736  0.0841 -0.1724 -0.0976
 1094YOPC   C2B12586   5.212   8.051   7.069  0.1636 -0.0008 -0.0263
 1094YOPC   D3B12587   5.281   8.021   7.499  0.0171  0.1099 -0.1095
 1094YOPC   C4B12588   5.112   7.926   7.785  0.2415  0.0227 -0.0096
 1095YOPC   NC312589  17.360   8.715   5.930 -0.1359  0.2419  0.1347
 1095YOPC   PO412590  17.512   9.148   6.051 -0.0608  0.0018 -0.2161
 1095YOPC   GL112591  17.383   9.317   6.363 -0.1178 -0.0691  0.2421
 1095YOPC   GL212592  17.059   9.481   6.379 -0.3663  0.1610 -0.1159
 1095YOPC   C1A12593  17.393   9.287   6.732  0.0004 -0.4745 -0.1275
 1095YOPC   D2A12594  17.505   9.202   7.150 -0.1403  0.0595  0.4573
 1095YOPC   C3A12595  17.389   9.200   7.537  0.4020 -0.0492 -0.0516
 1095YOPC   C4A12596  17.131   9.546   7.761 -0.2338  0.0922 -0.1493
 1095YOPC   C1B12597  16.913   9.413   6.747 -0.0896 -0.2846  0.0301
 1095YOPC   C2B12598  17.044   9.364   7.182  0.1271 -0.0673  0.2142
 1095YOPC   D3B12599  16.924   9.048   7.511  0.1498 -0.1073  0.1583
 1095YOPC   C4B12600  17.123   8.734   7.785  0.0811 -0.0499  0.1172
 1096YOPC   NC312601  10.754   7.001   5.542 -0.1766 -0.1194  0.3739
 1096YOPC   PO412602  11.039   6.782   5.821  0.1414 -0.0809 -0.0269
 1096YOPC   GL112603  11.052   6.943   6.240  0.0714  0.0838 -0.2257
 1096YOPC   GL212604  10.984   7.233   6.306  0.0251  0.1028  0.3045
 1096YOPC   C1A12605  11.321   7.036   6.608  0.3918  0.1779  0.0373
 1096YOPC   D2A12606  11.543   7.317   6.913  0.1581 -0.0642 -0.2328
 1096YOPC   C3A12607  11.668   7.692   7.268 -0.0287  0.2289  0.1133
 1096YOPC   C4A12608  11.455   8.043   7.246  0.0590 -0.0329  0.1907
 1096YOPC   C1B12609  10.899   7.301   6.731  0.1069  0.2717 -0.1410
 1096YOPC   C2B12610  11.081   7.018   7.153  0.2873 -0.3237 -0.0155
 1096YOPC   D3B12611  11.388   7.215   7.402 -0.0318  0.2984  0.2981
 1096YOPC   C4B12612  11.557   7.394   7.669  0.0036  0.0591 -0.0992
 1097YOPC   NC312613  13.562  14.418   6.469 -0.0590  0.0906  0.2714
 1097YOPC   PO412614  13.576  14.931   6.656  0.0709  0.1625  0.0433
 1097YOPC   GL112615  13.757  15.140   7.137  0.1731 -0.1118  0.0521
 1097YOPC   GL212616  13.592  15.416   7.157  0.0342  0.1180 -0.1788
 1097YOPC   C1A12617  13.726  14.873   7.409  0.0592  0.0410  0.1483
 1097YOPC   D2A12618  13.539  14.679   7.868  0.0167 -0.0377 -0.2738
 1097YOPC   C3A12619  13.882  14.601   8.197  0.2338  0.2325 -0.1885
 1097YOPC   C4A12620  14.127  14.478   8.572 -0.4462 -0.1535 -0.1304
 1097YOPC   C1B12621  13.535  15.311   7.581 -0.2345 -0.0704 -0.3216
 1097YOPC   C2B12622  13.589  15.624   7.939 -0.0187 -0.0260  0.0765
 1097YOPC   D3B12623  13.543  16.067   8.177  0.1307  0.2785  0.0438
 1097YOPC   C4B12624  13.672  16.181   8.558  0.1549 -0.1325  0.2594
 1098YOPC   NC312625   3.950   0.130   6.372  0.1196  0.1845 -0.2040
 1098YOPC   PO412626   3.901  -0.203   6.161  0.2915  0.2983  0.0224
 1098YOPC   GL112627   3.691  -0.286   6.633 -0.1175 -0.1612 -0.1522
 1098YOPC   GL212628   4.049  -0.249   6.699 -0.1804  0.0305 -0.1150
 1098YOPC   C1A12629   3.741  -0.582   6.932  0.2003  0.4452  0.0114
 1098YOPC   D2A12630   3.340  -0.919   7.156 -0.0858 -0.1931  0.0735
 1098YOPC   C3A12631   3.362  -1.405   7.117 -0.1306 -0.2690 -0.1554
 1098YOPC   C4A12632   3.394  -1.695   7.542 -0.2869 -0.2535  0.0780
 1098YOPC   C1B12633   3.825  -0.087   7.072  0.1232 -0.3428  0.1971
 1098YOPC   C2B12634   3.658  -0.124   7.477  0.4580  0.2759  0.0349
 1098YOPC   D3B12635   3.659  -0.001   7.867  0.2921  0.1974 -0.1438
 1098YOPC   C4B12636   3.750  -0.024   8.258  0.1020 -0.0502 -0.0685
 1099YOPC   NC312637  17.190  12.225   6.444 -0.2066  0.1075  0.1466
 1099YOPC   PO412638  17.620  12.291   6.517 -0.0560 -0.3077  0.0389
 1099YOPC   GL112639  17.473  12.203   6.818  0.2380  0.1311 -0.0488
 1099YOPC   GL212640  17.730  12.246   7.019  0.3520  0.2957  0.1438
 1099YOPC   C1A12641  17.385  11.949   7.187 -0.0127 -0.0859  0.1188
 1099YOPC   D2A12642  17.272  11.746   7.428 -0.0328 -0.1932  0.3655
 1099YOPC   C3A12643  17.105  11.344   7.437 -0.2176  0.0297  0.1845
 1099YOPC   C4A12644  16.950  10.967   7.212  0.0096  0.0438  0.0870
 1099YOPC   C1B12645  17.751  12.026   7.511 -0.1935  0.0117  0.0835
 1099YOPC   C2B12646  17.628  11.973   7.936 -0.2225  0.0918 -0.3524
 1099YOPC   D3B12647  17.662  11.703   8.287  0.0537 -0.1665  0.0789
 1099YOPC   C4B12648  17.691  11.342   8.413 -0.1525  0.0431  0.1808
 1100YOPC   NC312649   0.731   5.363   5.187  0.1370  0.0165 -0.1929
 1100YOPC   PO412650   0.768   5.183   5.634  0.2231  0.0791 -0.2739
 1100YOPC   GL112651   0.578   5.188   6.032  0.0959 -0.0901 -0.1713
 1100YOPC   GL212652   0.319   5.435   6.056 -0.0698 -0.0641 -0.0291
 1100YOPC   C1A12653   0.480   5.117   6.416 -0.1922  0.0065  0.2001
 1100YOPC   D2A12654   0.164   4.966   6.651 -0.2570 -0.3115  0.4457
 1100YOPC   C3A12655   0.340   4.908   7.058  0.1691 -0.0106 -0.3578
 1100YOPC   C4A12656   0.528   4.682   7.315 -0.0014  0.3377 -0.1111
 1100YOPC   C1B12657   0.060   5.327   6.310  0.1304 -0.5337  0.6339
 1100YOPC   C2B12658  -0.340   5.194   6.562  0.1261  0.2214  0.3699
 1100YOPC   D3B12659  -0.718   5.229   6.176 -0.0415  0.3196 -0.0178
 1100YOPC   C4B12660  -1.036   4.881   6.067  0.0005  0.0408 -0.0018
 1101YOPC   NC312661   9.128  11.148   6.102  0.0694 -0.1340  0.2151
 1101YOPC   PO412662   8.871  10.859   6.212 -0.0216  0.1207  0.1522
 1101YOPC   GL112663   8.857  10.605   6.534  0.1849  0.0423 -0.1751
 1101YOPC   GL212664   8.554  10.315   6.541 -0.1658  0.1219  0.0516
 1101YOPC   C1A12665   9.104  10.322   6.914  0.1329 -0.1892 -0.1716
 1101YOPC   D2A12666   9.050  10.295   7.225 -0.1190  0.2813  0.3176
 1101YOPC   C3A12667   9.054   9.935   7.546 -0.2826 -0.0297 -0.1561
 1101YOPC   C4A12668   8.879   9.730   7.888  0.2611 -0.0980 -0.1982
 1101YOPC   C1B12669   8.649  10.589   6.966 -0.3911 -0.2081  0.0590
 1101YOPC   C2B12670   8.652  10.451   7.460 -0.0586 -0.0912  0.1763
 1101YOPC   D3B12671   9.079  10.434   7.727 -0.0790  0.2307 -0.0250
 1101YOPC   C4B12672   9.157  10.566   8.091 -0.0109  0.0129  0.1280
 1102YOPC   NC312673  12.820  17.609   6.598  0.2410 -0.1169  0.1066
 1102YOPC   PO412674  12.796  18.016   6.342 -0.2434  0.1449 -0.0790
 1102YOPC   GL112675  12.938  18.214   6.659 -0.3134 -0.0144  0.1316
 1102YOPC   GL212676  12.911  18.529   6.790 -0.2046  0.0534 -0.3070
 1102YOPC   C1A12677  13.136  18.153   7.030  0.0520 -0.1573  0.0736
 1102YOPC   D2A12678  13.262  18.514   7.267 -0.1709  0.2593 -0.0349
 1102YOPC   C3A12679  13.764  18.600   7.116  0.2399 -0.0304 -0.1039
 1102YOPC   C4A12680  14.084  18.946   7.244  0.0973 -0.0804  0.1258
 1102YOPC   C1B12681  12.741  18.390   7.211  0.3512  0.2489 -0.2239
 1102YOPC   C2B12682  12.889  18.217   7.557  0.0709  0.3681 -0.2019
 1102YOPC   D3B12683  12.671  18.270   7.991 -0.1961 -0.0859  0.4685
 1102YOPC   C4B12684  12.555  18.059   8.385  0.0924  0.1978 -0.1141
 1103YOPC   NC312685   0.402  16.532   6.420  0.2326  0.0860  0.2416
 1103YOPC   PO412686   0.110  16.440   6.684 -0.0902  0.0633  0.2327
 1103YOPC   GL112687   0.092  16.652   7.010 -0.1939 -0.4723 -0.0368
 1103YOPC   GL212688  -0.142  16.423   7.212  0.3391  0.0084  0.2178
 1103YOPC   C1A12689   0.381  16.775   7.299  0.4386 -0.1811  0.0211
 1103YOPC   D2A12690   0.595  16.649   7.629  0.3638  0.0119 -0.4118
 1103YOPC   C3A12691   0.865  16.465   7.573  0.0881 -0.0994 -0.1601
 1103YOPC   C4A12692   0.972  16.129   7.366  0.3161  0.2451 -0.2498
 1103YOPC   C1B12693  -0.295  16.442   7.637  0.0764  0.2264  0.1837
 1103YOPC   C2B12694  -0.355  16.484   8.198 -0.3610  0.3085  0.0677
 1103YOPC   D3B12695  -0.272  16.449   8.550 -0.0029  0.0795 -0.1166
 1103YOPC   C4B12696   0.099  16.591   8.792  0.0787 -0.0181 -0.0681
 1104YOPC   NC312697  17.340   2.484   5.790  0.1311  0.2873  0.2005
 1104YOPC   PO412698  17.710   2.746   5.674  0.2251  0.2147 -0.2697
 1104YOPC   GL112699  17.659   2.904   5.958 -0.1025  0.1334  0.0497
 1104YOPC   GL212700  17.369   2.796   6.128 -0.0387 -0.0165 -0.5570
 1104YOPC   C1A12701  17.932   2.979   6.298  0.2487 -0.0746  0.0617
 1104YOPC   D2A12702  17.816   3.136   6.689 -0.1132 -0.0283  0.1696
 1104YOPC   C3A12703  17.994   3.010   7.070  0.1979  0.1669  0.3077
 1104YOPC   C4A12704  18.309   2.780   7.318 -0.0236 -0.1867 -0.2324
 1104YOPC   C1B12705  17.525   2.748   6.542  0.1227 -0.0373  0.0347
 1104YOPC   C2B12706  17.539   2.852   6.966 -0.0375  0.4360  0.0657
 1104YOPC   D3B12707  17.673   2.657   7.301 -0.2710 -0.2964  0.0612
 1104YOPC   C4B12708  17.835   2.339   7.566 -0.3507  0.0754  0.0225
 1105YOPC   NC312709  14.076  16.675   6.037  0.5967 -0.1484  0.0607
 1105YOPC   PO412710  13.699  16.886   6.254 -0.1961 -0.0449 -0.0892
 1105YOPC   GL112711  13.882  16.647   6.564 -0.0503 -0.1074  0.1471
 1105YOPC   GL212712  13.649  16.569   6.759 -0.1967 -0.0269 -0.2926
 1105YOPC   C1A12713  14.153  16.804   6.937  0.1367  0.0415  0.2008
 1105YOPC   D2A12714  14.290  16.937   7.431  0.1278 -0.1874  0.0465
 1105YOPC   C3A12715  14.185  17.152   7.758 -0.1416 -0.1424  0.0838
 1105YOPC   C4A12716  14.389  17.421   8.010 -0.0286  0.0360 -0.1061
 1105YOPC   C1B12717  13.531  16.691   7.140 -0.0722 -0.0276  0.1369
 1105YOPC   C2B12718  13.626  16.983   7.484 -0.0626  0.0286  0.0194
 1105YOPC   D3B12719  13.358  16.977   7.770  0.0875  0.2739  0.0052
 1105YOPC   C4B12720  13.203  17.016   8.073  0.2547  0.3416 -0.0065
 1106YOPC   NC312721   3.068   2.987   6.293  0.1577  0.2568  0.1816
 1106YOPC   PO412722   2.710   2.718   6.244 -0.2514 -0.2807 -0.3161
 1106YOPC   GL112723   2.559   2.363   6.504 -0.2709 -0.1023 -0.0775
 1106YOPC   GL212724   2.662   2.310   6.709  0.1848  0.1360 -0.0631
 1106YOPC   C1A12725   2.367   1.984   6.852  0.0810 -0.1244  0.3941
 1106YOPC   D2A12726   2.433   1.618   7.091  0.0082  0.0875 -0.1306
 1106YOPC   C3A12727   2.371   1.699   7.495 -0.0795 -0.0483  0.3261
 1106YOPC   C4A12728   2.513   1.457   7.943 -0.1201  0.0758 -0.1890
 1106YOPC   C1B12729   2.595   2.218   7.200  0.0963  0.0658 -0.1406
 1106YOPC   C2B12730   2.518   2.156   7.567  0.1156  0.1880  0.2181
 1106YOPC   D3B12731   2.673   2.389   7.896 -0.2113  0.2976 -0.2795
 1106YOPC   C4B12732   2.489   2.691   8.218  0.4034 -0.2122  0.1126
 1107YOPC   NC312733  10.741  10.939   6.167 -0.0790  0.0474  0.1014
 1107YOPC   PO412734  10.556  10.549   6.151 -0.0060  0.3984  0.0483
 1107YOPC   GL112735  10.830  10.643   6.534  0.1662  0.1020  0.2767
 1107YOPC   GL212736  11.050  10.889   6.506 -0.0828 -0.0003  0.3046
 1107YOPC   C1A12737  10.674  10.769   6.936  0.3245  0.0369 -0.0287
 1107YOPC   D2A12738  10.658  10.908   7.250  0.1075 -0.2263 -0.0541
 1107YOPC   C3A12739  10.353  11.218   7.228 -0.0149  0.0860 -0.1991
 1107YOPC   C4A12740  10.041  11.239   7.098 -0.1503  0.0999  0.0717
 1107YOPC   C1B12741  10.930  11.147   6.835 -0.1361 -0.2535 -0.5295
 1107YOPC   C2B12742  11.218  11.130   7.151  0.1397  0.1474 -0.0424
 1107YOPC   D3B12743  11.108  10.922   7.560  0.2271  0.0651  0.2767
 1107YOPC   C4B12744  10.999  10.705   7.970 -0.0594 -0.0974  0.0039
 1108YOPC   NC312745  13.385  13.647   6.958 -0.3818  0.1866 -0.0193
 1108YOPC   PO412746  13.445  14.092   6.936 -0.0557  0.2228 -0.2590
 1108YOPC   GL112747  13.390  14.419   7.203 -0.0448 -0.1226 -0.4264
 1108YOPC   GL212748  13.607  14.378   7.454 -0.1791 -0.0397 -0.2459
 1108YOPC   C1A12749  13.227  14.770   7.473  0.1245 -0.0173 -0.0155
 1108YOPC   D2A12750  13.083  14.982   7.854  0.0912 -0.2320 -0.0809
 1108YOPC   C3A12751  13.181  15.274   8.078 -0.1405 -0.3749  0.1667
 1108YOPC   C4A12752  13.137  15.670   8.143  0.1142 -0.2883  0.0297
 1108YOPC   C1B12753  13.519  14.228   7.890 -0.3703 -0.0735 -0.1278
 1108YOPC   C2B12754  13.509  14.216   8.235 -0.0024  0.0683 -0.0176
 1108YOPC   D3B12755  13.597  14.324   8.738 -0.3541 -0.3533 -0.2932
 1108YOPC   C4B12756  13.499  14.547   9.143 -0.2613  0.1949  0.0208
 1109YOPC   NC312757   1.929   6.915   6.043 -0.1230  0.0840  0.1185
 1109YOPC   PO412758   1.609   6.890   5.941 -0.3998 -0.1592 -0.1276
 1109YOPC   GL112759   1.478   6.805   6.328 -0.2269 -0.1248 -0.3110
 1109YOPC   GL212760   1.523   6.515   6.410 -0.0093 -0.0559 -0.3281
 1109YOPC   C1A12761   1.642   6.929   6.695  0.1049 -0.0917 -0.0074
 1109YOPC   D2A12762   1.391   6.963   7.161 -0.0586 -0.3204  0.2879
 1109YOPC   C3A12763   1.393   7.176   7.540 -0.0198 -0.0223  0.0702
 1109YOPC   C4A12764   1.145   7.502   7.619 -0.1011 -0.1601  0.0448
 1109YOPC   C1B12765   1.471   6.512   6.845 -0.1036  0.0376 -0.0828
 1109YOPC   C2B12766   1.202   6.433   7.349  0.0482  0.1237 -0.1924
 1109YOPC   D3B12767   0.813   6.197   7.381  0.2508 -0.2829  0.1364
 1109YOPC   C4B12768   0.600   6.237   7.824 -0.1955 -0.4147 -0.0102
 1110YOPC   NC312769   0.013   7.549   5.866  0.1325  0.1194  0.1918
 1110YOPC   PO412770   0.254   7.298   5.550  0.1569 -0.3229 -0.3410
 1110YOPC   GL112771   0.398   7.241   6.033  0.0084 -0.1381 -0.1603
 1110YOPC   GL212772   0.151   7.093   6.068  0.0033  0.2788  0.0324
 1110YOPC   C1A12773   0.396   7.502   6.396  0.0349 -0.0763  0.0072
 1110YOPC   D2A12774   0.642   7.751   6.570  0.1239 -0.1939  0.1381
 1110YOPC   C3A12775   0.821   7.696   6.942 -0.1014 -0.3540  0.1694
 1110YOPC   C4A12776   0.926   7.864   7.367 -0.0623 -0.1211 -0.2792
 1110YOPC   C1B12777  -0.003   7.143   6.402  0.0066 -0.0870 -0.1012
 1110YOPC   C2B12778   0.029   7.267   6.792 -0.1368  0.0092  0.0889
 1110YOPC   D3B12779  -0.106   7.093   7.128 -0.0182  0.0245  0.0181
 1110YOPC   C4B12780  -0.326   7.130   7.448  0.0441  0.0805  0.0361
 1111YOPC   NC312781   6.885  15.664   6.019  0.0938  0.1381 -0.1228
 1111YOPC   PO412782   7.056  15.625   6.392 -0.0354 -0.0737  0.2859
 1111YOPC   GL112783   7.200  15.764   6.864  0.0577 -0.3990 -0.1033
 1111YOPC   GL212784   7.148  16.119   6.936  0.0651 -0.0179 -0.1963
 1111YOPC   C1A12785   7.234  15.812   7.336 -0.0522 -0.0909 -0.0119
 1111YOPC   D2A12786   7.323  15.642   7.746 -0.0883  0.1308  0.2429
 1111YOPC   C3A12787   7.721  15.575   7.803 -0.0544  0.0275 -0.1724
 1111YOPC   C4A12788   8.042  15.560   8.021  0.2823  0.1335  0.3060
 1111YOPC   C1B12789   7.009  16.465   7.227  0.1071  0.2477  0.2588
 1111YOPC   C2B12790   6.886  16.502   7.649 -0.1382  0.0451 -0.0710
 1111YOPC   D3B12791   6.863  16.321   8.080 -0.2596 -0.0662  0.3368
 1111YOPC   C4B12792   6.927  16.203   8.494 -0.0853 -0.1359 -0.2548
 1112YOPC   NC312793  15.826  14.321   6.202  0.2390 -0.0045  0.0687
 1112YOPC   PO412794  16.125  14.164   6.529 -0.1001  0.0202 -0.0415
 1112YOPC   GL112795  16.079  14.068   6.897  0.0602  0.0471  0.2678
 1112YOPC   GL212796  15.754  13.981   7.122  0.2638 -0.0731 -0.4098
 1112YOPC   C1A12797  16.172  14.205   7.223  0.1567  0.1506 -0.0765
 1112YOPC   D2A12798  16.356  14.006   7.611 -0.0221  0.4589  0.2324
 1112YOPC   C3A12799  16.489  14.163   8.015 -0.0762  0.1059  0.1728
 1112YOPC   C4A12800  16.655  14.255   8.394 -0.0933  0.0791  0.2050
 1112YOPC   C1B12801  15.946  13.762   7.453  0.4985 -0.2687 -0.0400
 1112YOPC   C2B12802  16.061  13.650   7.877  0.1835 -0.2930 -0.1850
 1112YOPC   D3B12803  16.107  13.688   8.341 -0.0831 -0.1031 -0.1097
 1112YOPC   C4B12804  16.276  13.984   8.541  0.2459  0.1951  0.1620
 1113YOPC   NC312805   5.260  11.334   6.187  0.1470  0.3041  0.1392
 1113YOPC   PO412806   5.164  10.864   6.179 -0.0883  0.0001  0.1392
 1113YOPC   GL112807   5.621  10.941   6.347  0.0376 -0.1187  0.0311
 1113YOPC   GL212808   5.797  11.132   6.505 -0.3111 -0.2942 -0.0420
 1113YOPC   C1A12809   5.734  10.760   6.812 -0.0940  0.0444 -0.1940
 1113YOPC   D2A12810   5.886  10.690   7.165 -0.1017  0.0136  0.0470
 1113YOPC   C3A12811   5.698  10.910   7.469 -0.0410  0.1285 -0.0670
 1113YOPC   C4A12812   5.590  10.806   7.811  0.1988  0.0257 -0.0598
 1113YOPC   C1B12813   5.756  11.275   6.959 -0.0286  0.0327  0.2977
 1113YOPC   C2B12814   5.802  11.372   7.324 -0.2301 -0.1080  0.1197
 1113YOPC   D3B12815   6.174  11.579   7.502  0.2546 -0.1811 -0.1406
 1113YOPC   C4B12816   6.390  11.940   7.327 -0.1222 -0.2086  0.0976
 1114YOPC   NC312817  14.388   3.944   5.680  0.1250  0.1370 -0.0877
 1114YOPC   PO412818  14.180   3.958   5.996 -0.1150 -0.1714 -0.0868
 1114YOPC   GL112819  14.138   3.857   6.328 -0.1190  0.2224 -0.0810
 1114YOPC   GL212820  14.186   4.112   6.449  0.1802  0.1742 -0.0954
 1114YOPC   C1A12821  13.939   3.701   6.793 -0.0830 -0.1696  0.2569
 1114YOPC   D2A12822  14.065   3.608   7.249 -0.2981  0.1301 -0.0541
 1114YOPC   C3A12823  14.290   3.752   7.498  0.1601 -0.3590 -0.0606
 1114YOPC   C4A12824  14.536   3.862   7.758 -0.0321 -0.2110  0.2103
 1114YOPC   C1B12825  14.296   4.053   6.863  0.0244 -0.0966  0.2514
 1114YOPC   C2B12826  14.067   4.159   7.364  0.0197 -0.1314  0.5191
 1114YOPC   D3B12827  14.120   4.076   7.843  0.0465  0.1260 -0.1051
 1114YOPC   C4B12828  13.865   3.971   8.168 -0.0492 -0.1182  0.0133
 1115YOPC   NC312829  10.734   9.348   5.815 -0.0303  0.2232 -0.0057
 1115YOPC   PO412830  10.324   9.385   5.959 -0.1475  0.3113 -0.2316
 1115YOPC   GL112831  10.674   9.146   6.249  0.1702  0.1369 -0.1690
 1115YOPC   GL212832  11.008   9.181   6.309  0.0342 -0.2702  0.1219
 1115YOPC   C1A12833  10.629   8.883   6.574  0.0503 -0.0126 -0.0417
 1115YOPC   D2A12834  10.877   8.707   6.901 -0.3546 -0.2785  0.1931
 1115YOPC   C3A12835  10.842   8.696   7.277 -0.1020  0.2634  0.0699
 1115YOPC   C4A12836  10.712   8.526   7.694  0.3616 -0.2705 -0.0836
 1115YOPC   C1B12837  10.966   9.245   6.714  0.0731 -0.0739 -0.0724
 1115YOPC   C2B12838  11.064   9.545   6.981  0.0519 -0.3367 -0.2955
 1115YOPC   D3B12839  10.702   9.665   7.247  0.0667 -0.2852  0.0781
 1115YOPC   C4B12840  10.604   9.942   7.568  0.1080  0.0048  0.4952
 1116YOPC   NC312841  17.963   9.371   5.926  0.3614 -0.2145  0.0296
 1116YOPC   PO412842  18.381   9.214   6.098 -0.0698 -0.0463  0.4000
 1116YOPC   GL112843  18.236   9.068   6.417  0.0425 -0.2900 -0.2217
 1116YOPC   GL212844  17.886   9.234   6.417 -0.2378 -0.0637 -0.2807
 1116YOPC   C1A12845  18.247   9.002   6.892 -0.3942 -0.0810 -0.2919
 1116YOPC   D2A12846  18.388   8.783   7.328 -0.2154  0.2172  0.2663
 1116YOPC   C3A12847  18.328   9.013   7.697 -0.2221  0.0209  0.1399
 1116YOPC   C4A12848  18.422   9.147   8.068  0.0724 -0.0249 -0.1669
 1116YOPC   C1B12849  17.901   9.382   6.886  0.1528  0.0283 -0.1719
 1116YOPC   C2B12850  17.978   9.219   7.284  0.0064 -0.0916  0.1035
 1116YOPC   D3B12851  17.959   9.405   7.643 -0.3352 -0.0838 -0.0907
 1116YOPC   C4B12852  18.068   9.594   8.031 -0.2240  0.1052 -0.0719
 1117YOPC   NC312853   9.379  15.893   5.894 -0.1755 -0.1706  0.0506
 1117YOPC   PO412854   9.617  16.277   6.051  0.2224 -0.0615 -0.0659
 1117YOPC   GL112855   9.646  16.170   6.488 -0.1539  0.0789 -0.0429
 1117YOPC   GL212856   9.315  15.957   6.521 -0.3028 -0.1005 -0.0062
 1117YOPC   C1A12857   9.697  16.314   6.836 -0.1931  0.0110 -0.1197
 1117YOPC   D2A12858   9.558  16.077   7.193 -0.0964  0.1048  0.0477
 1117YOPC   C3A12859   9.748  16.060   7.654  0.0489 -0.1425  0.1048
 1117YOPC   C4A12860   9.825  16.328   8.132  0.1641 -0.0042  0.2084
 1117YOPC   C1B12861   9.076  15.625   6.732  0.0862 -0.2208  0.1495
 1117YOPC   C2B12862   8.997  15.808   7.117 -0.0580 -0.1943  0.0770
 1117YOPC   D3B12863   8.822  15.601   7.478 -0.0376  0.1955  0.3001
 1117YOPC   C4B12864   9.033  15.240   7.596  0.0043 -0.2299 -0.1002
 1118YOPC   NC312865   4.665   1.198   6.528  0.0254 -0.2075 -0.1687
 1118YOPC   PO412866   4.236   1.054   6.607  0.0199  0.1406  0.2428
 1118YOPC   GL112867   4.297   1.230   6.947 -0.2011 -0.1544 -0.0939
 1118YOPC   GL212868   4.555   1.335   7.006 -0.2252 -0.0875 -0.1494
 1118YOPC   C1A12869   4.078   1.620   7.139  0.0238 -0.3509 -0.0129
 1118YOPC   D2A12870   4.288   1.878   7.470  0.0903 -0.0048  0.1488
 1118YOPC   C3A12871   4.431   1.787   7.961 -0.1432 -0.1328 -0.2609
 1118YOPC   C4A12872   4.397   1.753   8.491 -0.3502  0.1476 -0.0938
 1118YOPC   C1B12873   4.527   1.340   7.415  0.0055  0.3671  0.0550
 1118YOPC   C2B12874   4.622   1.337   7.789  0.3356  0.1474 -0.1516
 1118YOPC   D3B12875   4.642   1.428   8.226  0.1131  0.2271 -0.1032
 1118YOPC   C4B12876   4.622   1.307   8.639  0.1725 -0.4237 -0.2753
 1119YOPC   NC312877   1.046   7.205   5.361 -0.4592  0.0711 -0.0832
 1119YOPC   PO412878   1.174   7.677   5.551  0.1650  0.1012 -0.0410
 1119YOPC   GL112879   1.142   7.675   6.073 -0.1780 -0.0868  0.0649
 1119YOPC   GL212880   0.857   7.397   6.157 -0.1150  0.3319 -0.0039
 1119YOPC   C1A12881   1.131   7.822   6.536 -0.0249  0.1307 -0.0301
 1119YOPC   D2A12882   1.008   8.179   6.716 -0.2691 -0.0938 -0.2788
 1119YOPC   C3A12883   1.318   8.487   6.900 -0.0019 -0.0535 -0.0933
 1119YOPC   C4A12884   1.443   8.960   6.686  0.3209 -0.1593 -0.2582
 1119YOPC   C1B12885   0.931   7.343   6.547 -0.0331 -0.2253  0.0069
 1119YOPC   C2B12886   1.368   7.404   6.855  0.0845  0.0862  0.2941
 1119YOPC   D3B12887   1.058   7.339   7.136  0.4660 -0.1629  0.0299
 1119YOPC   C4B12888   0.738   7.405   7.351  0.0337  0.1452 -0.0856
 1120YOPC   NC312889  10.401   4.912   5.852  0.1997 -0.0248  0.1802
 1120YOPC   PO412890  10.300   4.678   6.267 -0.0182  0.0413 -0.0336
 1120YOPC   GL112891  10.156   4.853   6.625 -0.0441 -0.0671 -0.0566
 1120YOPC   GL212892  10.468   4.809   6.745  0.1112  0.0058  0.0805
 1120YOPC   C1A12893   9.959   4.970   7.033  0.1264  0.0671  0.1669
 1120YOPC   D2A12894   9.850   5.055   7.486  0.1093  0.1922 -0.4403
 1120YOPC   C3A12895  10.121   5.002   7.842 -0.3483  0.0463 -0.0561
 1120YOPC   C4A12896  10.218   5.283   8.197 -0.0421  0.1851 -0.2252
 1120YOPC   C1B12897  10.462   4.755   7.235  0.1590  0.0056 -0.0163
 1120YOPC   C2B12898  10.498   5.035   7.567  0.0091  0.0475 -0.0647
 1120YOPC   D3B12899  10.700   4.912   7.940 -0.0715 -0.2502 -0.1409
 1120YOPC   C4B12900  10.708   4.649   8.315 -0.2313  0.2799  0.0156
 1121YOPC   NC312901   6.465   4.810   5.912  0.1670 -0.0782 -0.0434
 1121YOPC   PO412902   6.486   4.250   5.906  0.0969  0.2204  0.1939
 1121YOPC   GL112903   6.419   4.215   6.335 -0.0042  0.1718 -0.1194
 1121YOPC   GL212904   6.618   3.839   6.458 -0.1445 -0.3959  0.1272
 1121YOPC   C1A12905   6.125   4.528   6.572 -0.2116 -0.0820 -0.0017
 1121YOPC   D2A12906   6.280   4.772   6.886  0.2711  0.1412  0.2442
 1121YOPC   C3A12907   6.233   4.868   7.283 -0.2786 -0.3003 -0.2710
 1121YOPC   C4A12908   6.022   5.175   7.449  0.0243 -0.0303 -0.0907
 1121YOPC   C1B12909   6.952   4.064   6.401  0.0745  0.0738 -0.0336
 1121YOPC   C2B12910   7.205   4.287   6.733  0.0834 -0.2881  0.0868
 1121YOPC   D3B12911   7.286   4.159   7.123  0.1537 -0.3422  0.0665
 1121YOPC   C4B12912   7.379   4.233   7.646 -0.4230  0.4378  0.1056
 1122YOPC   NC312913   6.354  13.215   5.524 -0.0007 -0.0006 -0.2315
 1122YOPC   PO412914   6.167  13.315   5.971 -0.3123  0.1722 -0.4507
 1122YOPC   GL112915   6.107  12.999   6.305 -0.2488 -0.1066  0.0869
 1122YOPC   GL212916   6.290  12.809   6.327 -0.0518 -0.1173  0.1017
 1122YOPC   C1A12917   5.890  12.911   6.654  0.3920  0.1015 -0.1358
 1122YOPC   D2A12918   5.695  12.831   6.963 -0.0560  0.1821  0.2188
 1122YOPC   C3A12919   5.845  12.873   7.323  0.0684 -0.1801 -0.2657
 1122YOPC   C4A12920   5.995  13.206   7.599  0.0819 -0.1593  0.0340
 1122YOPC   C1B12921   6.381  12.857   6.784 -0.0129 -0.0860  0.5281
 1122YOPC   C2B12922   6.616  12.734   7.087 -0.0788  0.4327 -0.2419
 1122YOPC   D3B12923   6.615  12.381   7.348  0.0218 -0.0637 -0.1419
 1122YOPC   C4B12924   6.535  12.171   7.713 -0.1924 -0.1629 -0.0168
 1123YOPC   NC312925   9.136  17.568   6.396  0.0896 -0.0993  0.0810
 1123YOPC   PO412926   8.621  17.626   6.581 -0.0326 -0.1702  0.6076
 1123YOPC   GL112927   8.363  17.835   6.940 -0.0074  0.1515 -0.4421
 1123YOPC   GL212928   8.547  18.204   7.192  0.0864 -0.2931  0.1627
 1123YOPC   C1A12929   8.300  17.787   7.388 -0.2301  0.0721  0.3082
 1123YOPC   D2A12930   8.353  17.650   7.860  0.1925 -0.2518  0.0118
 1123YOPC   C3A12931   8.132  17.447   8.112  0.1509  0.1072  0.0469
 1123YOPC   C4A12932   8.002  17.034   8.363  0.2790  0.1143 -0.3347
 1123YOPC   C1B12933   8.416  18.532   7.582 -0.0080 -0.0147 -0.0131
 1123YOPC   C2B12934   8.407  18.613   8.027  0.0765 -0.2127  0.0055
 1123YOPC   D3B12935   8.467  18.822   8.427  0.0740 -0.2522 -0.0470
 1123YOPC   C4B12936   8.248  18.769   8.692 -0.0864  0.1865 -0.0034
 1124YOPC   NC312937   7.927   1.340   6.601  0.0461  0.0026 -0.0127
 1124YOPC   PO412938   7.600   1.558   6.550 -0.1971  0.0869 -0.2493
 1124YOPC   GL112939   7.503   1.469   6.875  0.0805  0.0185 -0.2510
 1124YOPC   GL212940   7.234   1.677   7.036 -0.0784  0.1627 -0.1153
 1124YOPC   C1A12941   7.612   1.666   7.315 -0.0760  0.0328 -0.2219
 1124YOPC   D2A12942   7.367   1.691   7.609 -0.2590 -0.1218 -0.0449
 1124YOPC   C3A12943   7.499   1.633   7.989  0.0763  0.0376 -0.3340
 1124YOPC   C4A12944   7.783   1.677   8.341  0.0914  0.0234  0.0319
 1124YOPC   C1B12945   7.003   1.644   7.319 -0.1064 -0.1802 -0.1894
 1124YOPC   C2B12946   6.869   1.874   7.739  0.1681  0.0896 -0.1471
 1124YOPC   D3B12947   6.912   1.558   8.079  0.3324  0.0995  0.1875
 1124YOPC   C4B12948   6.421   1.455   8.345  0.2272 -0.2129  0.0003
 1125YOPC   NC312949  11.578  15.285   6.546 -0.0939 -0.0324  0.3650
 1125YOPC   PO412950  11.621  14.856   6.516 -0.1115  0.2738 -0.0278
 1125YOPC   GL112951  11.344  14.865   6.878 -0.0996  0.0612 -0.2220
 1125YOPC   GL212952  11.300  15.191   7.190 -0.1783 -0.0888 -0.2111
 1125YOPC   C1A12953  11.147  14.759   7.344 -0.0173 -0.0221  0.1097
 1125YOPC   D2A12954  11.048  14.648   7.779 -0.1585 -0.1760 -0.0328
 1125YOPC   C3A12955  11.129  14.877   8.121 -0.0132  0.2535 -0.1938
 1125YOPC   C4A12956  10.837  15.087   8.510  0.0971  0.1427 -0.2812
 1125YOPC   C1B12957  11.268  15.239   7.565  0.0313  0.0590  0.0446
 1125YOPC   C2B12958  11.454  15.237   7.948 -0.0395  0.1661 -0.0967
 1125YOPC   D3B12959  11.717  14.799   8.076  0.3999 -0.4531 -0.3495
 1125YOPC   C4B12960  11.799  14.577   8.361  0.1175 -0.0349  0.0362
 1126YOPC   NC312961   8.228  11.440   6.200  0.1556  0.0221 -0.2956
 1126YOPC   PO412962   7.796  11.501   6.142  0.1910  0.1173 -0.1170
 1126YOPC   GL112963   7.811  11.317   6.495  0.1405 -0.4680  0.0436
 1126YOPC   GL212964   7.806  10.978   6.507  0.0189 -0.0423 -0.0601
 1126YOPC   C1A12965   7.737  11.327   6.931 -0.0148  0.3831  0.1107
 1126YOPC   D2A12966   7.665  11.494   7.325 -0.0166  0.1780  0.0283
 1126YOPC   C3A12967   7.624  11.517   7.798 -0.0710  0.0454  0.0658
 1126YOPC   C4A12968   7.852  11.309   8.109  0.2380  0.1100 -0.0045
 1126YOPC   C1B12969   7.693  10.828   6.817  0.0143 -0.2371  0.1782
 1126YOPC   C2B12970   7.773  10.737   7.271 -0.1173  0.0181 -0.2334
 1126YOPC   D3B12971   7.887  10.376   7.507  0.0655  0.2664 -0.1194
 1126YOPC   C4B12972   8.242  10.355   7.888 -0.1231  0.0149  0.1460
 1127YOPC   NC312973   1.375   3.617   5.798 -0.0294  0.0236 -0.3691
 1127YOPC   PO412974   1.654   3.856   5.883  0.4301 -0.1794  0.0902
 1127YOPC   GL112975   1.926   3.828   6.284 -0.1441  0.0568  0.0254
 1127YOPC   GL212976   2.213   3.658   6.320  0.2015  0.1827  0.2323
 1127YOPC   C1A12977   1.765   3.616   6.723  0.0749 -0.1573 -0.0860
 1127YOPC   D2A12978   1.415   3.579   6.998 -0.1012 -0.0514 -0.2358
 1127YOPC   C3A12979   1.300   3.808   7.372 -0.2591  0.0803  0.0236
 1127YOPC   C4A12980   1.056   3.846   7.686 -0.2219  0.2285  0.0297
 1127YOPC   C1B12981   2.267   3.540   6.839  0.0388  0.1124  0.3222
 1127YOPC   C2B12982   1.935   3.570   7.234  0.1457  0.1946 -0.0832
 1127YOPC   D3B12983   1.775   3.907   7.316 -0.0048  0.0361  0.3129
 1127YOPC   C4B12984   1.698   4.228   7.658 -0.1470 -0.3450  0.0853
 1128YOPC   NC312985  17.223   5.018   4.572  0.0818 -0.1198  0.1393
 1128YOPC   PO412986  17.346   4.735   4.945 -0.0498 -0.0358 -0.1491
 1128YOPC   GL112987  17.345   4.890   5.374  0.0135 -0.2814 -0.0632
 1128YOPC   GL212988  17.378   4.717   5.556 -0.1278 -0.1333  0.2335
 1128YOPC   C1A12989  17.120   5.176   5.692  0.1401  0.1258 -0.1888
 1128YOPC   D2A12990  16.895   5.245   6.116 -0.0878  0.1411  0.2372
 1128YOPC   C3A12991  17.110   5.248   6.410 -0.1348  0.0999 -0.1102
 1128YOPC   C4A12992  17.039   5.137   6.867  0.3209 -0.0172 -0.0066
 1128YOPC   C1B12993  17.695   4.769   5.842  0.0202  0.0466  0.0696
 1128YOPC   C2B12994  17.976   5.002   6.110 -0.0521 -0.1422  0.1079
 1128YOPC   D3B12995  18.398   4.883   6.101  0.0046  0.0195 -0.6149
 1128YOPC   C4B12996  18.742   4.691   6.196 -0.3536 -0.0874  0.2252
 1129YOPC   NC312997   1.289  16.803   6.325  0.0918 -0.1879  0.4527
 1129YOPC   PO412998   1.724  17.058   6.547 -0.0001  0.0400  0.0915
 1129YOPC   GL112999   2.017  16.909   6.850  0.0213  0.0197  0.1488
 1129YOPC   GL213000   2.349  17.136   6.889 -0.0291 -0.1565  0.0471
 1129YOPC   C1A13001   2.079  17.035   7.347 -0.1022  0.1334  0.0862
 1129YOPC   D2A13002   2.083  17.009   7.802  0.0311 -0.0689  0.1046
 1129YOPC   C3A13003   1.842  17.102   8.216 -0.2661  0.1918 -0.1953
 1129YOPC   C4A13004   1.733  16.919   8.519 -0.0297  0.1054  0.3080
 1129YOPC   C1B13005   2.466  16.791   7.197 -0.0602  0.4976 -0.0374
 1129YOPC   C2B13006   2.366  16.680   7.536 -0.0804 -0.0987  0.1806
 1129YOPC   D3B13007   2.607  16.871   7.904 -0.1348  0.0522 -0.0195
 1129YOPC   C4B13008   2.833  17.126   8.186  0.1188 -0.1492 -0.0013
 1130YOPC   NC313009   5.790  10.049   5.837 -0.0912 -0.0983 -0.1254
 1130YOPC   PO413010   6.122   9.775   5.884 -0.0209  0.1350  0.0709
 1130YOPC   GL113011   6.184   9.815   6.319 -0.3870  0.0149 -0.2183
 1130YOPC   GL213012   6.180  10.084   6.500 -0.0643  0.1642 -0.1442
 1130YOPC   C1A13013   5.927   9.669   6.638  0.2113  0.0269  0.0645
 1130YOPC   D2A13014   5.632   9.378   6.641 -0.0568  0.0002 -0.0488
 1130YOPC   C3A13015   5.434   9.297   6.967  0.0985  0.0013 -0.0387
 1130YOPC   C4A13016   5.380   9.135   7.378 -0.2931 -0.0585 -0.0652
 1130YOPC   C1B13017   6.348   9.904   6.843 -0.1879  0.0600 -0.1143
 1130YOPC   C2B13018   6.296   9.561   7.103 -0.3820  0.0873 -0.1027
 1130YOPC   D3B13019   6.474   9.522   7.534 -0.2048 -0.0999  0.2486
 1130YOPC   C4B13020   6.331   9.424   7.952 -0.1011  0.2180  0.0261
 1131YOPC   NC313021   4.550   3.590   6.432 -0.0629 -0.0066  0.2670
 1131YOPC   PO413022   4.561   3.229   6.263  0.1673 -0.1523 -0.1110
 1131YOPC   GL113023   4.618   3.144   6.685 -0.0194 -0.1097  0.1170
 1131YOPC   GL213024   4.331   3.380   6.825  0.2031 -0.0664  0.0374
 1131YOPC   C1A13025   4.839   3.263   7.072 -0.0640  0.1748 -0.1017
 1131YOPC   D2A13026   5.038   3.262   7.560 -0.2437  0.0510  0.2968
 1131YOPC   C3A13027   5.432   3.172   7.738  0.2991 -0.1505 -0.1450
 1131YOPC   C4A13028   5.560   3.113   8.188 -0.1942  0.0929 -0.1981
 1131YOPC   C1B13029   4.115   3.537   7.193 -0.0480 -0.2456  0.3749
 1131YOPC   C2B13030   3.981   3.416   7.594 -0.3768  0.0700 -0.0164
 1131YOPC   D3B13031   3.717   3.232   7.792  0.0685  0.0626  0.0546
 1131YOPC   C4B13032   3.323   3.302   7.944  0.1244  0.1599 -0.0168
 1132YOPC   NC313033  11.648   4.521   5.855 -0.1431  0.1414  0.1167
 1132YOPC   PO413034  11.427   4.702   6.144 -0.2200 -0.0641  0.3348
 1132YOPC   GL113035  11.461   4.708   6.606  0.1953  0.0640 -0.2581
 1132YOPC   GL213036  11.712   4.775   6.693  0.1468  0.2956 -0.1692
 1132YOPC   C1A13037  11.437   4.442   7.040 -0.2308 -0.1805 -0.1424
 1132YOPC   D2A13038  11.510   4.555   7.537  0.2557  0.2752  0.3247
 1132YOPC   C3A13039  11.246   4.628   7.837  0.1224  0.3305 -0.0661
 1132YOPC   C4A13040  11.133   4.874   8.229  0.3020 -0.1634  0.1221
 1132YOPC   C1B13041  11.694   4.887   7.195  0.0414 -0.2860 -0.1241
 1132YOPC   C2B13042  11.796   5.042   7.692  0.1594  0.0983  0.1699
 1132YOPC   D3B13043  11.510   5.133   7.948  0.1126  0.0743 -0.1219
 1132YOPC   C4B13044  11.359   5.274   8.389 -0.0864 -0.1287 -0.0649
 1133YOPC   NC313045  14.939  13.482   6.476  0.3161 -0.1754 -0.0495
 1133YOPC   PO413046  14.490  13.506   6.639 -0.1627 -0.3639 -0.1523
 1133YOPC   GL113047  14.506  13.412   7.082  0.3955 -0.0017 -0.4447
 1133YOPC   GL213048  14.634  13.223   7.034 -0.0243  0.0346 -0.0238
 1133YOPC   C1A13049  14.476  13.395   7.490 -0.0066 -0.0656 -0.1585
 1133YOPC   D2A13050  14.510  13.334   7.922 -0.0188 -0.1547 -0.1887
 1133YOPC   C3A13051  14.606  13.578   8.364 -0.3377  0.1951  0.1696
 1133YOPC   C4A13052  14.740  13.575   8.742 -0.1600 -0.0338 -0.2109
 1133YOPC   C1B13053  14.479  12.960   7.269  0.2699  0.0285  0.2903
 1133YOPC   C2B13054  14.373  12.782   7.504  0.0082 -0.1887 -0.0237
 1133YOPC   D3B13055  14.449  12.815   7.971 -0.0982 -0.2277  0.0711
 1133YOPC   C4B13056  14.619  13.087   8.307 -0.1799  0.1322  0.1819
 1134YOPC   NC313057  10.598   6.547   5.872 -0.0885  0.0954  0.0531
 1134YOPC   PO413058  10.562   6.967   6.140  0.0701  0.5074  0.2371
 1134YOPC   GL113059  10.610   6.572   6.405  0.0868 -0.0019 -0.0178
 1134YOPC   GL213060  10.895   6.727   6.663 -0.3356 -0.0779  0.3069
 1134YOPC   C1A13061  10.240   6.543   6.673  0.1134 -0.0855  0.0870
 1134YOPC   D2A13062   9.906   6.452   6.972 -0.1350 -0.1653  0.1258
 1134YOPC   C3A13063   9.898   6.179   7.289  0.2462 -0.0893 -0.0424
 1134YOPC   C4A13064   9.850   6.092   7.694 -0.0415 -0.1217  0.1826
 1134YOPC   C1B13065  10.615   6.790   6.960  0.2405  0.1380 -0.2471
 1134YOPC   C2B13066  10.604   6.773   7.437  0.0381  0.1211  0.1893
 1134YOPC   D3B13067  10.352   7.217   7.630  0.1360 -0.0035  0.0259
 1134YOPC   C4B13068  10.336   7.544   7.881 -0.1935 -0.0617 -0.1133
 1135YOPC   NC313069   0.536   2.477   6.039  0.2916 -0.3377 -0.1654
 1135YOPC   PO413070   0.980   2.416   6.123 -0.0585  0.1572 -0.1055
 1135YOPC   GL113071   0.936   2.217   6.552  0.1936  0.1460 -0.1651
 1135YOPC   GL213072   0.673   2.174   6.523  0.0338  0.1247  0.0846
 1135YOPC   C1A13073   0.910   2.383   7.054  0.1136  0.1478  0.0598
 1135YOPC   D2A13074   0.917   2.521   7.439 -0.2707  0.0187 -0.0172
 1135YOPC   C3A13075   1.393   2.526   7.632  0.3777  0.2171 -0.1382
 1135YOPC   C4A13076   1.872   2.449   7.703 -0.1000  0.0451 -0.3985
 1135YOPC   C1B13077   0.474   2.405   6.863  0.1136 -0.1902  0.0417
 1135YOPC   C2B13078   0.448   2.472   7.287 -0.1479 -0.0674  0.1331
 1135YOPC   D3B13079   0.579   2.242   7.767  0.1289  0.0780 -0.0182
 1135YOPC   C4B13080   0.609   2.250   8.210  0.2475  0.1271  0.0911
 1136YOPC   NC313081  15.585   3.399   5.876 -0.1979 -0.1672 -0.3306
 1136YOPC   PO413082  15.435   3.019   6.020  0.0351  0.1232 -0.2025
 1136YOPC   GL113083  15.257   3.012   6.423  0.1470  0.0788 -0.2338
 1136YOPC   GL213084  15.538   2.778   6.475  0.5262  0.1763 -0.1227
 1136YOPC   C1A13085  14.984   3.144   6.792 -0.2398  0.3684 -0.0166
 1136YOPC   D2A13086  14.824   3.126   7.252 -0.2521 -0.1280 -0.1031
 1136YOPC   C3A13087  14.624   2.868   7.590 -0.2648 -0.0917 -0.0222
 1136YOPC   C4A13088  14.721   2.510   7.798 -0.2202 -0.2064 -0.1337
 1136YOPC   C1B13089  15.306   2.699   6.896 -0.2397 -0.0476  0.1284
 1136YOPC   C2B13090  15.145   2.715   7.258  0.0141  0.1824  0.0449
 1136YOPC   D3B13091  15.308   2.584   7.568  0.1022  0.1689 -0.1836
 1136YOPC   C4B13092  15.558   2.197   7.545  0.1912  0.2855  0.2723
 1137YOPC   NC313093   3.120  17.202   6.638 -0.0530 -0.0659  0.1736
 1137YOPC   PO413094   2.709  17.200   6.535 -0.1951 -0.0813 -0.3312
 1137YOPC   GL113095   2.571  17.553   6.792  0.3735  0.4412 -0.3278
 1137YOPC   GL213096   2.804  17.657   6.948 -0.0919  0.1907  0.0383
 1137YOPC   C1A13097   2.368  17.481   7.224 -0.0167  0.1449 -0.1006
 1137YOPC   D2A13098   2.479  17.283   7.562 -0.2820  0.0076 -0.0675
 1137YOPC   C3A13099   2.347  17.390   7.871  0.5512 -0.0568 -0.0593
 1137YOPC   C4A13100   2.603  17.592   8.171 -0.0330  0.1870  0.1322
 1137YOPC   C1B13101   2.782  17.740   7.333 -0.0479  0.0482 -0.1668
 1137YOPC   C2B13102   2.943  17.516   7.739 -0.0017 -0.0195  0.2068
 1137YOPC   D3B13103   3.331  17.401   8.116 -0.2462  0.0780 -0.1796
 1137YOPC   C4B13104   3.299  17.133   8.483 -0.4194 -0.1690 -0.0907
 1138YOPC   NC313105  12.502  17.175   6.185 -0.2071 -0.3331  0.1216
 1138YOPC   PO413106  12.421  17.341   6.640  0.3233  0.0235 -0.1858
 1138YOPC   GL113107  12.419  17.486   7.061  0.0022  0.1600  0.0198
 1138YOPC   GL213108  12.257  17.721   7.349 -0.2284  0.2295 -0.0794
 1138YOPC   C1A13109  12.564  17.266   7.353 -0.1841 -0.1771  0.0758
 1138YOPC   D2A13110  12.925  17.179   7.556 -0.1097 -0.0101  0.0010
 1138YOPC   C3A13111  13.120  17.446   7.888 -0.1276 -0.0537 -0.0358
 1138YOPC   C4A13112  13.284  17.462   8.265  0.1322 -0.0370  0.1608
 1138YOPC   C1B13113  12.334  18.054   7.653  0.1396  0.1720  0.3041
 1138YOPC   C2B13114  12.055  18.224   7.978 -0.1187  0.0101 -0.0218
 1138YOPC   D3B13115  12.188  18.462   8.252 -0.0279 -0.0346  0.1218
 1138YOPC   C4B13116  12.497  18.693   8.425 -0.1626 -0.1817  0.0876
 1139YOPC   NC313117   3.433   5.115   5.754  0.0130  0.0881  0.2307
 1139YOPC   PO413118   3.214   5.476   5.902 -0.0172 -0.0360 -0.0026
 1139YOPC   GL113119   3.244   5.300   6.314 -0.1046 -0.0307  0.1268
 1139YOPC   GL213120   3.433   5.085   6.278  0.1537  0.1610 -0.3195
 1139YOPC   C1A13121   3.360   5.189   6.788 -0.2981  0.1700  0.0655
 1139YOPC   D2A13122   3.512   5.227   7.311  0.0982 -0.0487 -0.0227
 1139YOPC   C3A13123   3.788   5.529   7.500  0.0283  0.1673  0.0889
 1139YOPC   C4A13124   3.937   5.803   7.721 -0.1213  0.1382  0.0404
 1139YOPC   C1B13125   3.645   4.853   6.572 -0.0795 -0.2552 -0.3531
 1139YOPC   C2B13126   3.773   4.807   7.057  0.0336  0.1488  0.1895
 1139YOPC   D3B13127   3.728   4.629   7.468  0.2154 -0.1992 -0.1373
 1139YOPC   C4B13128   3.514   4.613   7.864 -0.1098 -0.1131 -0.1760
 1140YOPC   NC313129  11.233  14.472   6.550 -0.2189  0.2502  0.2085
 1140YOPC   PO413130  10.924  14.089   6.470 -0.0372  0.0918  0.0356
 1140YOPC   GL113131  11.017  13.939   6.900  0.1022  0.0371 -0.2912
 1140YOPC   GL213132  10.989  14.296   6.983 -0.0056  0.0700  0.2102
 1140YOPC   C1A13133  11.003  14.010   7.371 -0.0528 -0.1775  0.3175
 1140YOPC   D2A13134  11.050  14.077   7.817 -0.1767 -0.0225 -0.3565
 1140YOPC   C3A13135  10.851  13.667   8.139 -0.2618 -0.0070 -0.1962
 1140YOPC   C4A13136  10.936  13.385   8.460  0.1192  0.1008  0.2014
 1140YOPC   C1B13137  11.438  14.309   7.224 -0.1445 -0.0421  0.1055
 1140YOPC   C2B13138  11.477  14.483   7.623  0.2833 -0.0949  0.4362
 1140YOPC   D3B13139  11.444  14.353   8.013  0.0052 -0.2211  0.2077
 1140YOPC   C4B13140  11.226  14.177   8.280 -0.4228 -0.1803 -0.0124
 1141ERGO   ROH13141   5.305   5.170   9.733 -0.0003 -0.0530 -0.1819
 1141ERGO    R113142   5.405   5.410   9.621 -0.1493  0.1181  0.0442
 1141ERGO    R213143   5.604   5.413   9.430  0.0833  0.4392  0.2869
 1141ERGO    R313144   5.423   5.560   9.290  0.0771  0.2837  0.1280
 1141ERGO    R413145   5.680   5.609   9.156  0.1133  0.2900  0.1868
 1141ERGO    R513146   5.542   5.760   9.232  0.0283  0.2916  0.0429
 1141ERGO    C113147   5.554   5.861   8.864  0.1250  0.0570 -0.0206
 1141ERGO    C213148   5.573   5.949   8.574  0.1327 -0.2213 -0.0178
 1142ERGO   ROH13149  11.113   2.326   9.860 -0.0085  0.1957 -0.0583
 1142ERGO    R113150  11.129   2.290   9.579  0.0285  0.1684 -0.0538
 1142ERGO    R213151  11.324   2.135   9.460 -0.0172  0.0659 -0.0077
 1142ERGO    R313152  11.111   2.009   9.348 -0.0573  0.1586 -0.0336
 1142ERGO    R413153  11.344   1.891   9.216 -0.1136  0.2450 -0.1965
 1142ERGO    R513154  11.172   1.982   9.118 -0.1375  0.3240 -0.0723
 1142ERGO    C113155  11.156   1.631   8.968 -0.2076  0.4364 -0.3306
 1142ERGO    C213156  11.058   1.211   9.012 -0.0135  0.1910 -0.2067
 1143ERGO   ROH13157   9.313  18.076   7.396 -0.1462 -0.1103 -0.0535
 1143ERGO    R113158   9.238  18.325   7.508  0.0058 -0.0303 -0.1256
 1143ERGO    R213159   9.194  18.550   7.354 -0.2296 -0.1447 -0.2337
 1143ERGO    R313160   8.955  18.552   7.482 -0.0470 -0.0663  0.1190
 1143ERGO    R413161   8.945  18.784   7.301 -0.4273 -0.3563 -0.2507
 1143ERGO    R513162   8.908  18.785   7.517 -0.1110 -0.0297 -0.1893
 1143ERGO    C113163   8.575  18.922   7.391 -0.3710 -0.4060  0.0704
 1143ERGO    C213164   8.419  19.201   7.221 -0.1064  0.4359 -0.0608
 1144ERGO   ROH13165  13.987   3.419   9.692  0.1726  0.1675  0.1097
 1144ERGO    R113166  13.890   3.509   9.441  0.0940 -0.0570  0.0582
 1144ERGO    R213167  13.851   3.776   9.383 -0.1446 -0.1215 -0.0900
 1144ERGO    R313168  14.010   3.720   9.171 -0.0923 -0.0964 -0.0577
 1144ERGO    R413169  13.847   3.947   9.083 -0.0513 -0.0668 -0.0606
 1144ERGO    R513170  13.870   3.756   8.980 -0.0392 -0.0509 -0.0887
 1144ERGO    C113171  13.995   3.993   8.708  0.0524 -0.0114 -0.0132
 1144ERGO    C213172  14.111   4.299   8.548 -0.0959 -0.1782  0.1919
 1145ERGO   ROH13173   4.229   2.595   9.909 -0.0838  0.1093 -0.0777
 1145ERGO    R113174   4.121   2.512   9.661  0.0416  0.0341 -0.1085
 1145ERGO    R213175   3.990   2.685   9.491 -0.1424 -0.0793 -0.0871
 1145ERGO    R313176   4.171   2.593   9.310 -0.0095  0.1692 -0.0847
 1145ERGO    R413177   3.948   2.694   9.148 -0.1802 -0.1997 -0.0863
 1145ERGO    R513178   4.037   2.495   9.137  0.1276 -0.0673 -0.0597
 1145ERGO    C113179   4.095   2.613   8.778 -0.0774 -0.0365 -0.0833
 1145ERGO    C213180   3.972   2.627   8.439 -0.0881 -0.1133 -0.0169
 1146ERGO   ROH13181   4.624  18.072   6.875  0.0243 -0.2934 -0.1354
 1146ERGO    R113182   4.483  17.881   7.029  0.0670 -0.1483  0.0894
 1146ERGO    R213183   4.369  17.942   7.274 -0.0563  0.1484 -0.0344
 1146ERGO    R313184   4.144  17.843   7.157  0.0388 -0.1367  0.0170
 1146ERGO    R413185   4.093  17.824   7.445 -0.0559  0.2339  0.0248
 1146ERGO    R513186   4.078  17.662   7.300  0.0848  0.0224  0.2418
 1146ERGO    C113187   3.721  17.663   7.436  0.0335  0.0159  0.1077
 1146ERGO    C213188   3.481  17.572   7.637 -0.1421  0.0171 -0.0713
 1147ERGO   ROH13189   1.885   9.243   9.803  0.0255 -0.0175  0.1925
 1147ERGO    R113190   2.064   9.115   9.626 -0.0947 -0.1815  0.1868
 1147ERGO    R213191   1.979   8.983   9.398 -0.2093  0.0756  0.0755
 1147ERGO    R313192   2.157   9.147   9.275  0.0855 -0.1110  0.2399
 1147ERGO    R413193   2.210   8.883   9.161 -0.3323 -0.1144  0.0334
 1147ERGO    R513194   2.356   9.016   9.254 -0.1232 -0.4256  0.1672
 1147ERGO    C113195   2.512   8.980   8.908 -0.1272 -0.4005  0.1631
 1147ERGO    C213196   2.741   9.175   8.731  0.4370 -0.5387  0.1263
 1148ERGO   ROH13197   1.371  13.398   7.032  0.0727  0.2106  0.1259
 1148ERGO    R113198   1.185  13.324   7.233  0.0077  0.1301  0.0370
 1148ERGO    R213199   1.244  13.141   7.430 -0.0649  0.0315 -0.0312
 1148ERGO    R313200   1.166  13.342   7.596 -0.0973 -0.0399  0.0408
 1148ERGO    R413201   1.195  13.108   7.771 -0.0525 -0.0954 -0.0411
 1148ERGO    R513202   1.019  13.236   7.752 -0.0751 -0.1203  0.0074
 1148ERGO    C113203   1.093  13.278   8.124 -0.0755 -0.2363  0.0208
 1148ERGO    C213204   1.086  13.473   8.397  0.1570  0.0166 -0.0083
 1149ERGO   ROH13205   5.385  16.172   7.033  0.1211 -0.0238  0.0182
 1149ERGO    R113206   5.329  16.168   7.310  0.1041 -0.0648  0.0142
 1149ERGO    R213207   5.512  16.081   7.498  0.1165 -0.0309  0.0186
 1149ERGO    R313208   5.463  16.324   7.610  0.0412 -0.0542  0.0367
 1149ERGO    R413209   5.518  16.148   7.837  0.0977 -0.0522  0.0232
 1149ERGO    R513210   5.342  16.274   7.811  0.0583 -0.1055  0.0338
 1149ERGO    C113211   5.475  16.415   8.140  0.0160 -0.0865  0.0428
 1149ERGO    C213212   5.463  16.387   8.592  0.1475 -0.0310  0.1822
 1150ERGO   ROH13213   2.205   4.689   9.565  0.0012 -0.1886 -0.1303
 1150ERGO    R113214   2.199   4.767   9.293 -0.1414  0.0109 -0.0725
 1150ERGO    R213215   2.332   4.626   9.095 -0.0454  0.2880 -0.2133
 1150ERGO    R313216   2.086   4.621   8.979 -0.0724  0.1300 -0.1522
 1150ERGO    R413217   2.274   4.651   8.755 -0.1585  0.2348 -0.1990
 1150ERGO    R513218   2.102   4.779   8.799 -0.2228  0.1281 -0.1639
 1150ERGO    C113219   2.009   4.661   8.448 -0.2497  0.0555 -0.1333
 1150ERGO    C213220   2.025   4.476   8.138 -0.1911 -0.2532  0.2322
 1151ERGO   ROH13221   2.102   7.040   6.556  0.1524 -0.0000  0.0644
 1151ERGO    R113222   2.292   7.059   6.765  0.1784 -0.0988  0.0509
 1151ERGO    R213223   2.225   7.144   7.020  0.2443 -0.0446  0.0530
 1151ERGO    R313224   2.340   6.908   7.092  0.1110 -0.1092  0.0555
 1151ERGO    R413225   2.354   7.075   7.333  0.2597 -0.0962  0.0348
 1151ERGO    R513226   2.520   6.972   7.236  0.1769 -0.2089  0.0156
 1151ERGO    C113227   2.537   6.814   7.583  0.1435 -0.1868  0.0267
 1151ERGO    C213228   2.436   6.668   7.877  0.0064 -0.1157 -0.0707
 1152ERGO   ROH13229  17.563  17.711   6.458  0.1109  0.3598  0.1140
 1152ERGO    R113230  17.425  17.779   6.695  0.2319  0.3955  0.1756
 1152ERGO    R213231  17.342  17.589   6.879 -0.1212  0.3664  0.0003
 1152ERGO    R313232  17.481  17.744   7.053  0.1733 -0.0464  0.1465
 1152ERGO    R413233  17.307  17.581   7.223 -0.2201  0.2069 -0.0127
 1152ERGO    R513234  17.324  17.798   7.225  0.2446  0.1760  0.1406
 1152ERGO    C113235  17.419  17.722   7.586 -0.0016 -0.2734  0.1170
 1152ERGO    C213236  17.440  17.854   7.903  0.2887 -0.1707  0.5734
 1153ERGO   ROH13237   7.642   2.540   6.820  0.2565 -0.0213 -0.0195
 1153ERGO    R113238   7.476   2.601   7.042  0.1711  0.0115 -0.0913
 1153ERGO    R213239   7.528   2.507   7.297  0.0134 -0.0412 -0.0754
 1153ERGO    R313240   7.513   2.771   7.361  0.0811 -0.0438 -0.0517
 1153ERGO    R413241   7.567   2.636   7.615 -0.1977 -0.1030 -0.0235
 1153ERGO    R513242   7.404   2.774   7.574 -0.0985 -0.0227 -0.1433
 1153ERGO    C113243   7.575   2.958   7.861 -0.2572 -0.1414  0.0290
 1153ERGO    C213244   7.533   3.022   8.073  0.1230 -0.2157 -0.0229
 1154ERGO   ROH13245  13.891   9.182   9.389  0.1835  0.1997  0.0569
 1154ERGO    R113246  13.839   9.104   9.121  0.1269  0.0854  0.1019
 1154ERGO    R213247  13.737   9.279   8.933  0.0840 -0.0053  0.0478
 1154ERGO    R313248  13.956   9.202   8.791  0.0455 -0.0582  0.0318
 1154ERGO    R413249  13.757   9.270   8.588  0.1029  0.1393  0.0436
 1154ERGO    R513250  13.867   9.083   8.603 -0.0035  0.0772 -0.0299
 1154ERGO    C113251  13.974   9.193   8.254  0.0778  0.1738  0.0261
 1154ERGO    C213252  14.130   9.434   8.034  0.0555 -0.1692  0.0849
 1155ERGO   ROH13253  11.821  15.820   8.976  0.0314  0.3134 -0.0104
 1155ERGO    R113254  11.964  15.703   8.762 -0.0318  0.3139 -0.0531
 1155ERGO    R213255  11.856  15.505   8.602 -0.0671  0.2920 -0.0014
 1155ERGO    R313256  11.924  15.675   8.401 -0.1561  0.2849 -0.0376
 1155ERGO    R413257  11.760  15.469   8.272  0.0777  0.0842 -0.0226
 1155ERGO    R513258  11.960  15.533   8.212  0.0413  0.2490  0.0242
 1155ERGO    C113259  11.767  15.607   7.891  0.0785 -0.0434 -0.0690
 1155ERGO    C213260  11.430  15.747   7.649 -0.1539  0.0850 -0.0047
 1156ERGO   ROH13261   0.774   2.744   6.517 -0.0360  0.1704 -0.0381
 1156ERGO    R113262   0.805   2.891   6.757 -0.0405  0.0838  0.0163
 1156ERGO    R213263   0.591   2.969   6.913 -0.0419 -0.0045  0.0618
 1156ERGO    R313264   0.728   2.841   7.109 -0.0110 -0.0615  0.0027
 1156ERGO    R413265   0.511   2.981   7.249  0.1649  0.1117  0.1077
 1156ERGO    R513266   0.725   2.994   7.293  0.2019 -0.0242 -0.0218
 1156ERGO    C113267   0.594   2.868   7.629  0.3144  0.1260  0.0789
 1156ERGO    C213268   0.400   2.704   7.775 -0.0813  0.1379 -0.0541
 1157ERGO   ROH13269   9.153  17.757   9.880  0.0527 -0.1705  0.1390
 1157ERGO    R113270   8.983  17.917   9.719  0.0484 -0.0624  0.2510
 1157ERGO    R213271   9.065  18.154   9.605  0.1691 -0.1847  0.0887
 1157ERGO    R313272   8.979  18.037   9.376 -0.1739 -0.1809  0.2089
 1157ERGO    R413273   8.941  18.324   9.330  0.4962 -0.1043 -0.0145
 1157ERGO    R513274   8.790  18.168   9.309  0.1089  0.2229  0.1577
 1157ERGO    C113275   8.788  18.312   8.955  0.3647 -0.0537  0.0382
 1157ERGO    C213276   8.662  18.540   8.775 -0.2582  0.0082  0.2044
 1158ERGO   ROH13277   5.394  18.165   9.935  0.0007 -0.0891  0.0588
 1158ERGO    R113278   5.341  18.040   9.687 -0.0613 -0.1040  0.0790
 1158ERGO    R213279   5.087  17.959   9.612 -0.1078  0.0315  0.0809
 1158ERGO    R313280   5.139  18.111   9.393 -0.0052 -0.0376  0.0570
 1158ERGO    R413281   4.999  17.875   9.289 -0.0989  0.0093  0.0845
 1158ERGO    R513282   5.192  17.952   9.221 -0.0546 -0.0951  0.0968
 1158ERGO    C113283   4.996  17.969   8.894  0.0027 -0.0687  0.0643
 1158ERGO    C213284   4.701  17.910   8.638  0.0200  0.0012  0.2860
 1159ERGO   ROH13285  15.104   1.541   6.458 -0.0288  0.4336 -0.1817
 1159ERGO    R113286  15.190   1.408   6.692  0.0123  0.2419 -0.3039
 1159ERGO    R213287  15.369   1.520   6.870  0.0031  0.1150 -0.2123
 1159ERGO    R313288  15.173   1.466   7.051  0.0283 -0.0804 -0.2499
 1159ERGO    R413289  15.421   1.463   7.207  0.0196 -0.0783 -0.2469
 1159ERGO    R513290  15.272   1.305   7.199  0.0895 -0.1305 -0.3496
 1159ERGO    C113291  15.268   1.378   7.573  0.0529 -0.3743 -0.3024
 1159ERGO    C213292  15.360   1.596   7.759 -0.2355  0.3023 -0.0481
 1160ERGO   ROH13293  16.090   2.005   6.453  0.2780 -0.0339 -0.1412
 1160ERGO    R113294  16.234   1.858   6.647  0.2300 -0.0202 -0.0942
 1160ERGO    R213295  16.494   1.922   6.719  0.1575  0.0871  0.0872
 1160ERGO    R313296  16.389   1.927   6.970 -0.0041 -0.0376  0.0231
 1160ERGO    R413297  16.672   1.864   7.009 -0.0378 -0.0936  0.1738
 1160ERGO    R513298  16.503   1.751   7.085 -0.1015 -0.1144  0.0019
 1160ERGO    C113299  16.678   1.836   7.413 -0.3033 -0.3159  0.1642
 1160ERGO    C213300  16.828   1.896   7.608  0.1089 -0.1308  0.1947
 1161ERGO   ROH13301   6.268  17.855  10.063 -0.1684  0.1785  0.0297
 1161ERGO    R113302   6.398  17.816   9.814 -0.1336 -0.1501  0.0937
 1161ERGO    R213303   6.296  17.653   9.617 -0.4287  0.0587  0.0633
 1161ERGO    R313304   6.321  17.876   9.463  0.1637 -0.0009  0.0511
 1161ERGO    R413305   6.251  17.662   9.274 -0.4811  0.1730  0.0731
 1161ERGO    R513306   6.423  17.797   9.261 -0.0943 -0.2973  0.0314
 1161ERGO    C113307   6.249  17.876   8.931  0.0445  0.1835  0.0673
 1161ERGO    C213308   6.055  18.120   8.746  0.0241 -0.0928 -0.0970
 1162ERGO   ROH13309  15.471  17.652   7.185  0.1133  0.0117  0.1118
 1162ERGO    R113310  15.452  17.698   7.464 -0.0545 -0.0066  0.1054
 1162ERGO    R213311  15.328  17.521   7.636  0.0519 -0.1394  0.0539
 1162ERGO    R313312  15.566  17.533   7.767 -0.0111  0.1079  0.1506
 1162ERGO    R413313  15.385  17.400   7.955  0.0960 -0.2297  0.0117
 1162ERGO    R513314  15.507  17.576   7.995 -0.1523 -0.0890  0.1503
 1162ERGO    C113315  15.641  17.341   8.264  0.0625 -0.0500  0.0779
 1162ERGO    C213316  15.818  17.076   8.432 -0.3696  0.1545 -0.0068
 1163ERGO   ROH13317   8.347   6.698   7.230  0.0025 -0.0233  0.0402
 1163ERGO    R113318   8.542   6.621   7.419 -0.0296 -0.0176  0.0759
 1163ERGO    R213319   8.499   6.634   7.692 -0.0681  0.0113  0.0693
 1163ERGO    R313320   8.571   6.372   7.684 -0.0840  0.0059  0.1037
 1163ERGO    R413321   8.604   6.449   7.965 -0.0681  0.0423  0.0902
 1163ERGO    R513322   8.754   6.356   7.837 -0.0794  0.0157  0.0981
 1163ERGO    C113323   8.732   6.096   8.116 -0.0831  0.0553  0.1348
 1163ERGO    C213324   8.583   5.985   8.334  0.1874  0.0180 -0.0079
 1164ERGO   ROH13325  14.058  10.627   9.282  0.1037  0.2156 -0.0427
 1164ERGO    R113326  14.221  10.706   9.064  0.0639  0.0606 -0.1299
 1164ERGO    R213327  14.200  10.592   8.814 -0.1599  0.0594 -0.1107
 1164ERGO    R313328  14.169  10.850   8.733  0.0222  0.0820 -0.1149
 1164ERGO    R413329  14.267  10.709   8.495 -0.3857 -0.0671 -0.2069
 1164ERGO    R513330  14.353  10.888   8.585 -0.0950 -0.1382 -0.3267
 1164ERGO    C113331  14.276  11.019   8.235 -0.3461 -0.1196 -0.2669
 1164ERGO    C213332  14.409  11.298   8.083 -0.0238  0.0365  0.0783
 1165ERGO   ROH13333  11.888   6.573   8.128  0.0502  0.0563  0.0261
 1165ERGO    R113334  12.156   6.495   8.176 -0.0351 -0.0884  0.2809
 1165ERGO    R213335  12.233   6.364   8.407 -0.3620 -0.3153  0.2645
 1165ERGO    R313336  12.334   6.183   8.231 -0.2209 -0.2061  0.2307
 1165ERGO    R413337  12.504   6.158   8.469 -0.4008 -0.3399  0.3556
 1165ERGO    R513338  12.571   6.193   8.265 -0.2432 -0.2134  0.4229
 1165ERGO    C113339  12.756   5.868   8.339 -0.2908 -0.2517  0.3768
 1165ERGO    C213340  12.931   5.541   8.127 -0.1054  0.0635 -0.0937
 1166ERGO   ROH13341  12.199  18.226   7.227  0.1157 -0.0654 -0.1334
 1166ERGO    R113342  12.248  18.475   7.353  0.1723 -0.0360 -0.2151
 1166ERGO    R213343  12.243  18.507   7.627  0.0708  0.0775 -0.2330
 1166ERGO    R313344  12.492  18.609   7.587  0.1328 -0.0450 -0.1676
 1166ERGO    R413345  12.425  18.680   7.864  0.0217  0.1278 -0.2309
 1166ERGO    R513346  12.490  18.817   7.707  0.1547  0.0213 -0.2752
 1166ERGO    C113347  12.764  18.878   7.965  0.0515  0.0421 -0.1684
 1166ERGO    C213348  12.804  19.045   8.206  0.2344  0.0445  0.0886
 1167ERGO   ROH13349  10.483   0.688  10.362  0.0130 -0.0483  0.0378
 1167ERGO    R113350  10.476   0.734  10.082  0.0487 -0.1568  0.0185
 1167ERGO    R213351  10.267   0.651   9.923  0.0099 -0.1105  0.0429
 1167ERGO    R313352  10.262   0.912   9.849  0.1517 -0.1365 -0.0608
 1167ERGO    R413353  10.188   0.764   9.606 -0.0755 -0.1846  0.0376
 1167ERGO    R513354  10.347   0.912   9.625  0.0360 -0.2861 -0.1054
 1167ERGO    C113355  10.137   1.076   9.352  0.0079 -0.2520 -0.0628
 1167ERGO    C213356  10.042   1.130   9.065  0.1955 -0.1385 -0.3230
 1168ERGO   ROH13357  12.997  16.403  10.268 -0.1917 -0.1294 -0.1049
 1168ERGO    R113358  13.029  16.303  10.005 -0.1867 -0.0853 -0.1214
 1168ERGO    R213359  12.837  16.335   9.810 -0.1256  0.0699 -0.1612
 1168ERGO    R313360  13.043  16.443   9.669 -0.0302 -0.0114 -0.0844
 1168ERGO    R413361  12.832  16.401   9.470  0.0194  0.1057 -0.1569
 1168ERGO    R513362  13.038  16.330   9.459 -0.0114  0.0133 -0.0960
 1168ERGO    C113363  13.022  16.541   9.141  0.1934  0.0501 -0.0823
 1168ERGO    C213364  12.722  16.665   8.879  0.2140 -0.0306 -0.3166
 1169ERGO   ROH13365   9.018  16.072   9.930  0.0042  0.0908  0.0461
 1169ERGO    R113366   9.014  15.957   9.671  0.1683  0.0997  0.0417
 1169ERGO    R213367   8.817  16.015   9.485  0.1134 -0.1415  0.0427
 1169ERGO    R313368   9.029  16.078   9.328  0.0395  0.1328  0.0424
 1169ERGO    R413369   8.800  16.084   9.147  0.0161 -0.3277  0.0056
 1169ERGO    R513370   8.984  15.971   9.119  0.2211 -0.0547  0.0816
 1169ERGO    C113371   8.990  16.184   8.803 -0.1100 -0.1787 -0.0165
 1169ERGO    C213372   9.162  16.573   8.609 -0.0390 -0.1000 -0.1882
 1170ERGO   ROH13373  10.213  11.264   9.967 -0.1481  0.2977  0.0751
 1170ERGO    R113374  10.080  11.188   9.730 -0.0743  0.2917  0.0358
 1170ERGO    R213375  10.043  11.361   9.518  0.1544  0.2317 -0.0546
 1170ERGO    R313376  10.163  11.162   9.376  0.0959  0.0922  0.0884
 1170ERGO    R413377   9.967  11.278   9.191  0.3031  0.1812 -0.0776
 1170ERGO    R513378   9.986  11.067   9.246  0.1076  0.1835  0.0055
 1170ERGO    C113379  10.035  11.042   8.868  0.3347  0.0208  0.0433
 1170ERGO    C213380  10.208  11.077   8.457  0.1829  0.1472 -0.0504
 1171ERGO   ROH13381   2.281   0.435   9.869  0.0042 -0.2610  0.0133
 1171ERGO    R113382   2.245   0.323   9.612 -0.0021 -0.1398 -0.0389
 1171ERGO    R213383   2.015   0.362   9.463 -0.1144 -0.2831  0.0988
 1171ERGO    R313384   2.191   0.447   9.274 -0.2918  0.0151  0.0597
 1171ERGO    R413385   1.948   0.379   9.125 -0.2006 -0.4636  0.1048
 1171ERGO    R513386   2.149   0.305   9.086 -0.0587 -0.1008  0.0896
 1171ERGO    C113387   2.075   0.469   8.750 -0.4173 -0.2888  0.0716
 1171ERGO    C213388   2.122   0.749   8.556 -0.1737  0.1810  0.1990
 1172ERGO   ROH13389  14.060  17.480   9.863 -0.1522 -0.1585 -0.0009
 1172ERGO    R113390  13.977  17.439   9.595 -0.1035  0.1391 -0.0657
 1172ERGO    R213391  14.058  17.602   9.387  0.4802 -0.0128  0.0271
 1172ERGO    R313392  14.138  17.366   9.277 -0.0875 -0.2178  0.0181
 1172ERGO    R413393  14.175  17.565   9.064  0.6455 -0.2241  0.1084
 1172ERGO    R513394  14.063  17.379   9.050  0.1205  0.0802 -0.0430
 1172ERGO    C113395  14.319  17.323   8.772  0.2087 -0.5397  0.1472
 1172ERGO    C213396  14.313  17.393   8.481 -0.1272 -0.0277  0.0175
 1173ERGO   ROH13397   9.305  14.961   6.773  0.0918 -0.2186  0.0480
 1173ERGO    R113398   9.496  14.987   6.979  0.0658 -0.2324  0.0740
 1173ERGO    R213399   9.452  15.140   7.205  0.1120 -0.0919 -0.0093
 1173ERGO    R313400   9.514  14.909   7.335 -0.0553 -0.0676  0.1169
 1173ERGO    R413401   9.536  15.118   7.539 -0.1208 -0.0058  0.0570
 1173ERGO    R513402   9.689  14.971   7.486 -0.1361 -0.0775  0.2130
 1173ERGO    C113403   9.644  14.888   7.856 -0.4133  0.0670  0.2140
 1173ERGO    C213404   9.516  14.733   8.216  0.0612 -0.0652  0.0023
 1174ERGO   ROH13405   7.345  12.721   6.596  0.3234 -0.0417  0.0351
 1174ERGO    R113406   7.284  12.504   6.768  0.1675 -0.0016  0.0316
 1174ERGO    R213407   7.403  12.473   7.015  0.0410 -0.0166  0.0888
 1174ERGO    R313408   7.146  12.463   7.102 -0.0029  0.0809 -0.0265
 1174ERGO    R413409   7.306  12.361   7.327 -0.1391 -0.0655  0.0160
 1174ERGO    R513410   7.136  12.261   7.232 -0.1504  0.0423 -0.0898
 1174ERGO    C113411   7.008  12.286   7.590 -0.2851 -0.0026 -0.1346
 1174ERGO    C213412   7.141  12.274   7.898  0.0297 -0.1722 -0.1460
 1175ERGO   ROH13413  14.592   0.633   9.689 -0.3933 -0.2860 -0.0997
 1175ERGO    R113414  14.562   0.570   9.415 -0.2074 -0.1928 -0.1428
 1175ERGO    R213415  14.425   0.732   9.239 -0.1268 -0.1575 -0.1697
 1175ERGO    R313416  14.656   0.720   9.097 -0.0354 -0.0604 -0.0320
 1175ERGO    R413417  14.484   0.899   8.942 -0.0963 -0.2799 -0.2337
 1175ERGO    R513418  14.586   0.722   8.868  0.0864 -0.2478 -0.0754
 1175ERGO    C113419  14.736   0.985   8.637  0.0073 -0.2600 -0.1417
 1175ERGO    C213420  14.844   1.158   8.370 -0.1194  0.4348 -0.0295
 1176ERGO   ROH13421   5.840  14.484   6.722 -0.0514 -0.1930  0.1536
 1176ERGO    R113422   5.712  14.577   6.956 -0.0288 -0.0735  0.1175
 1176ERGO    R213423   5.578  14.409   7.129 -0.1259  0.0371  0.1409
 1176ERGO    R313424   5.743  14.520   7.315 -0.0950  0.0011  0.1370
 1176ERGO    R413425   5.544  14.371   7.471  0.0973 -0.2851  0.1326
 1176ERGO    R513426   5.597  14.582   7.495 -0.0421 -0.2582  0.2792
 1176ERGO    C113427   5.680  14.454   7.844  0.2564 -0.5065  0.1242
 1176ERGO    C213428   5.598  14.501   8.152 -0.0337  0.1816  0.2147
 1177ERGO   ROH13429  12.319  10.001   6.049  0.1748  0.3002  0.1151
 1177ERGO    R113430  12.196   9.952   6.299  0.1015  0.1739  0.0547
 1177ERGO    R213431  12.244   9.723   6.446  0.1942  0.1808  0.0334
 1177ERGO    R313432  12.306   9.900   6.642 -0.0088  0.1891  0.0929
 1177ERGO    R413433  12.192   9.669   6.783  0.3008 -0.0142  0.0206
 1177ERGO    R513434  12.128   9.877   6.801  0.0358 -0.0988  0.1067
 1177ERGO    C113435  12.220   9.804   7.164  0.1723 -0.1201  0.0691
 1177ERGO    C213436  12.420   9.921   7.430  0.3161 -0.1677 -0.1756
 1178ERGO   ROH13437   2.696   3.438   9.799  0.0112  0.0437 -0.0489
 1178ERGO    R113438   2.661   3.297   9.556 -0.2270  0.1120 -0.0565
 1178ERGO    R213439   2.512   3.397   9.346 -0.0755  0.3691 -0.0466
 1178ERGO    R313440   2.739   3.351   9.205 -0.1487  0.0072 -0.0554
 1178ERGO    R413441   2.551   3.462   9.009  0.0898  0.5461  0.0053
 1178ERGO    R513442   2.662   3.275   8.991 -0.2882  0.3240 -0.1225
 1178ERGO    C113443   2.788   3.457   8.680  0.1174  0.3094  0.0271
 1178ERGO    C213444   2.895   3.457   8.288  0.1186 -0.0469 -0.3535
 1179ERGO   ROH13445  11.900  16.173   7.004  0.1272 -0.0891  0.0629
 1179ERGO    R113446  11.927  16.244   7.276  0.0878 -0.1021  0.0705
 1179ERGO    R213447  11.712  16.253   7.450  0.0428  0.0152  0.0098
 1179ERGO    R313448  11.866  16.085   7.598 -0.0899 -0.0676  0.0546
 1179ERGO    R413449  11.663  16.185   7.785  0.0368  0.2123  0.0500
 1179ERGO    R513450  11.879  16.191   7.813  0.0501  0.0175  0.0060
 1179ERGO    C113451  11.778  15.987   8.119 -0.0914  0.2495  0.1154
 1179ERGO    C213452  11.660  16.092   8.485  0.1565  0.1472  0.0156
 1180ERGO   ROH13453  15.869   4.910   6.006 -0.2956 -0.1955  0.1897
 1180ERGO    R113454  15.940   4.994   6.267 -0.2638 -0.2363  0.1922
 1180ERGO    R213455  15.953   4.819   6.481  0.1317 -0.3391  0.0793
 1180ERGO    R313456  16.205   4.919   6.506  0.0015  0.0313 -0.0061
 1180ERGO    R413457  16.137   4.822   6.774  0.3360 -0.3986 -0.0445
 1180ERGO    R513458  16.207   5.022   6.722 -0.0131 -0.2097  0.1216
 1180ERGO    C113459  16.479   4.917   6.968  0.3325 -0.0854 -0.1967
 1180ERGO    C213460  16.520   4.895   7.256 -0.1001 -0.1732 -0.3823
 1181ERGO   ROH13461  10.173   5.323   6.385 -0.0969 -0.2001  0.0582
 1181ERGO    R113462  10.362   5.371   6.590  0.0827 -0.0962 -0.1250
 1181ERGO    R213463  10.535   5.587   6.587 -0.1650  0.1151 -0.2033
 1181ERGO    R313464  10.428   5.634   6.832  0.0419 -0.1497 -0.0578
 1181ERGO    R413465  10.675   5.791   6.828 -0.0435 -0.0335 -0.1484
 1181ERGO    R513466  10.616   5.645   6.979  0.1683 -0.1899 -0.2219
 1181ERGO    C113467  10.656   5.954   7.199  0.2216 -0.3687  0.0202
 1181ERGO    C213468  10.736   6.237   7.483  0.0174  0.0842 -0.1354
 1182ERGO   ROH13469   2.047  11.368   9.763 -0.3712  0.1490 -0.0424
 1182ERGO    R113470   2.003  11.465   9.501  0.0466  0.6451  0.0538
 1182ERGO    R213471   2.179  11.638   9.374  0.8265  0.0671  0.2612
 1182ERGO    R313472   2.175  11.447   9.180  0.0152  0.2559  0.0556
 1182ERGO    R413473   2.321  11.672   9.061  0.6691 -0.0914  0.1717
 1182ERGO    R513474   2.147  11.570   8.977  0.2372  0.5653  0.2083
 1182ERGO    C113475   2.400  11.513   8.697 -0.1842 -0.0066 -0.0734
 1182ERGO    C213476   2.532  11.347   8.272  0.0083  0.0707  0.1084
 1183ERGO   ROH13477   7.526   7.109   6.750  0.0924 -0.2851 -0.1120
 1183ERGO    R113478   7.461   7.166   7.020 -0.0385 -0.2291 -0.1539
 1183ERGO    R213479   7.417   6.968   7.208 -0.0158 -0.1917 -0.1070
 1183ERGO    R313480   7.609   7.101   7.346 -0.1312 -0.0550 -0.0762
 1183ERGO    R413481   7.485   6.924   7.544 -0.0443 -0.1336 -0.0938
 1183ERGO    R513482   7.512   7.139   7.561 -0.1951 -0.1147 -0.0950
 1183ERGO    C113483   7.705   7.024   7.869 -0.1692  0.0286 -0.0573
 1183ERGO    C213484   7.761   6.910   8.090  0.4755  0.1949  0.0251
 1184ERGO   ROH13485  15.488   3.330   9.642  0.2195 -0.0571 -0.1309
 1184ERGO    R113486  15.481   3.479   9.401  0.3515  0.1458 -0.0121
 1184ERGO    R213487  15.709   3.543   9.259  0.3841 -0.3410 -0.1971
 1184ERGO    R313488  15.575   3.425   9.054 -0.1478  0.1477 -0.1548
 1184ERGO    R413489  15.756   3.617   8.924  0.5235 -0.4790 -0.2091
 1184ERGO    R513490  15.540   3.603   8.896  0.4309  0.3099 -0.1235
 1184ERGO    C113491  15.657   3.549   8.537  0.1054 -0.1006 -0.1764
 1184ERGO    C213492  15.545   3.700   8.268 -0.0396  0.1573  0.0239
 1185ERGO   ROH13493   9.572   1.730   7.437  0.0832 -0.0235  0.0251
 1185ERGO    R113494   9.578   1.721   7.720  0.0422 -0.0520  0.0255
 1185ERGO    R213495   9.380   1.833   7.876  0.0672  0.0186  0.0109
 1185ERGO    R313496   9.369   1.584   7.984 -0.0520  0.0119 -0.0160
 1185ERGO    R413497   9.226   1.754   8.176  0.1040  0.0713  0.0437
 1185ERGO    R513498   9.393   1.620   8.220  0.0352 -0.0326 -0.0192
 1185ERGO    C113499   9.127   1.473   8.451  0.0135  0.0957  0.0374
 1185ERGO    C213500   8.938   1.283   8.792 -0.1816  0.3986 -0.1015
 1186ERGO   ROH13501  17.099  10.040   6.557 -0.2222 -0.0903 -0.1201
 1186ERGO    R113502  17.008   9.891   6.780 -0.0118  0.0103  0.0360
 1186ERGO    R213503  17.142   9.889   7.022  0.0774  0.3294 -0.0066
 1186ERGO    R313504  16.900   9.964   7.120  0.0432  0.1943  0.0154
 1186ERGO    R413505  17.074   9.950   7.355  0.0836  0.3308 -0.0053
 1186ERGO    R513506  16.883   9.850   7.330  0.1406  0.2097  0.0328
 1186ERGO    C113507  16.808  10.057   7.641  0.0552  0.2047  0.0162
 1186ERGO    C213508  16.764  10.236   7.993  0.0951 -0.0009  0.0465
 1187ERGO   ROH13509   0.067  17.129   7.170  0.0983  0.3734  0.1043
 1187ERGO    R113510  -0.127  17.084   7.371  0.0641  0.4292  0.0809
 1187ERGO    R213511  -0.107  16.878   7.554 -0.1433  0.2741 -0.0845
 1187ERGO    R313512  -0.134  17.079   7.735  0.0754  0.1606  0.0833
 1187ERGO    R413513  -0.255  16.845   7.865 -0.2603  0.1698 -0.1484
 1187ERGO    R513514  -0.348  17.040   7.835 -0.0120  0.3325 -0.0067
 1187ERGO    C113515  -0.367  17.015   8.216 -0.1228  0.0025 -0.0280
 1187ERGO    C213516  -0.449  17.009   8.585  0.5531 -0.0542  0.0032
 1188ERGO   ROH13517   9.295   2.202  10.108 -0.0274  0.1994 -0.0810
 1188ERGO    R113518   9.441   2.285   9.880 -0.0533  0.1677 -0.1098
 1188ERGO    R213519   9.593   2.111   9.729  0.0555  0.1746 -0.0147
 1188ERGO    R313520   9.442   2.208   9.525  0.0171 -0.0060 -0.0719
 1188ERGO    R413521   9.597   1.991   9.405  0.0500 -0.0526  0.0682
 1188ERGO    R513522   9.585   2.196   9.333 -0.0021 -0.1096 -0.0765
 1188ERGO    C113523   9.457   2.012   9.025  0.0107 -0.3544  0.0627
 1188ERGO    C213524   9.210   1.864   8.728  0.3684 -0.2035 -0.2449
 1189ERGO   ROH13525  14.214  11.547   9.935 -0.0350  0.3044  0.1284
 1189ERGO    R113526  14.306  11.522   9.668 -0.1305  0.1044  0.1136
 1189ERGO    R213527  14.136  11.469   9.456 -0.2579  0.3094  0.1708
 1189ERGO    R313528  14.249  11.694   9.352  0.0571  0.1183  0.0837
 1189ERGO    R413529  14.154  11.545   9.119 -0.4048  0.2669  0.1520
 1189ERGO    R513530  14.356  11.619   9.151 -0.2320 -0.0828 -0.0086
 1189ERGO    C113531  14.270  11.799   8.825 -0.1947  0.0627  0.0593
 1189ERGO    C213532  14.059  11.969   8.563  0.1628 -0.0229  0.1908
 1190ERGO   ROH13533   4.951  17.755   6.721 -0.0192  0.1796  0.2057
 1190ERGO    R113534   4.930  17.781   7.002 -0.1150 -0.2753  0.2479
 1190ERGO    R213535   4.943  17.565   7.173  0.5913 -0.4923 -0.0516
 1190ERGO    R313536   5.140  17.711   7.290  0.1287  0.0060  0.1461
 1190ERGO    R413537   5.057  17.520   7.496  0.6687 -0.5206 -0.0821
 1190ERGO    R513538   5.068  17.737   7.517 -0.0117 -0.4803  0.1721
 1190ERGO    C113539   5.308  17.632   7.795  0.2796 -0.0691  0.0858
 1190ERGO    C213540   5.606  17.732   7.966 -0.3143 -0.0396 -0.1355
 1191ERGO   ROH13541  12.827   9.484   9.439 -0.0186  0.2628  0.0575
 1191ERGO    R113542  12.727   9.465   9.175 -0.0462  0.2133  0.0716
 1191ERGO    R213543  12.778   9.656   8.982 -0.0117  0.1429  0.0123
 1191ERGO    R313544  12.866   9.441   8.840 -0.0816  0.0789  0.0654
 1191ERGO    R413545  12.766   9.627   8.638  0.1233  0.1356  0.0075
 1191ERGO    R513546  12.708   9.419   8.662 -0.0190  0.1698 -0.0046
 1191ERGO    C113547  12.841   9.410   8.304  0.1364  0.0712  0.0547
 1191ERGO    C213548  12.984   9.463   8.056 -0.1793 -0.1300  0.0135
 1192ERGO   ROH13549   9.035   7.870  10.054  0.1195 -0.3736  0.0048
 1192ERGO    R113550   8.952   8.036   9.841 -0.0753 -0.2281  0.1890
 1192ERGO    R213551   9.043   8.003   9.582 -0.0790  0.1303  0.1351
 1192ERGO    R313552   8.778   7.993   9.524 -0.0802 -0.0694  0.1694
 1192ERGO    R413553   8.912   7.960   9.265 -0.0896  0.1982  0.1304
 1192ERGO    R513554   8.758   8.107   9.315 -0.2121  0.0356  0.2385
 1192ERGO    C113555   8.586   7.926   9.027 -0.0969  0.0503  0.1596
 1192ERGO    C213556   8.514   7.771   8.703  0.3332  0.4828  0.3080
 1193ERGO   ROH13557  15.543   0.484   9.474 -0.1442 -0.0266  0.1394
 1193ERGO    R113558  15.664   0.567   9.232  0.0269 -0.1835  0.1671
 1193ERGO    R213559  15.679   0.404   9.009 -0.0804 -0.2292  0.1857
 1193ERGO    R313560  15.558   0.614   8.887  0.1844 -0.1059  0.1304
 1193ERGO    R413561  15.617   0.426   8.670 -0.0421 -0.2208  0.1797
 1193ERGO    R513562  15.674   0.636   8.678  0.2165 -0.2921  0.1325
 1193ERGO    C113563  15.468   0.637   8.357  0.2289 -0.1003  0.1245
 1193ERGO    C213564  15.534   0.551   8.093  0.0442 -0.2034 -0.3795
 1194ERGO   ROH13565   4.859  13.182   6.863  0.0757 -0.0426  0.1382
 1194ERGO    R113566   4.756  13.126   7.120 -0.1249 -0.0953  0.0480
 1194ERGO    R213567   4.854  13.246   7.349 -0.1633 -0.2954  0.1707
 1194ERGO    R313568   4.594  13.315   7.386 -0.1320 -0.1031  0.0497
 1194ERGO    R413569   4.737  13.442   7.608 -0.1372 -0.2013  0.1120
 1194ERGO    R513570   4.564  13.310   7.624 -0.2434 -0.0757  0.0378
 1194ERGO    C113571   4.424  13.621   7.794 -0.0925  0.0339 -0.0358
 1194ERGO    C213572   4.300  13.888   7.998  0.0455 -0.0644  0.0296
 1195ERGO   ROH13573   1.119  10.573   9.855  0.0266 -0.0181 -0.0208
 1195ERGO    R113574   1.085  10.463   9.596 -0.0654  0.0722 -0.0471
 1195ERGO    R213575   0.883  10.545   9.425 -0.0443  0.2262  0.0038
 1195ERGO    R313576   1.090  10.587   9.254 -0.0454  0.1646 -0.0141
 1195ERGO    R413577   0.853  10.571   9.082 -0.0505  0.1025 -0.0059
 1195ERGO    R513578   1.036  10.454   9.062 -0.0493  0.0939  0.0337
 1195ERGO    C113579   1.029  10.626   8.721 -0.0552 -0.0273 -0.0284
 1195ERGO    C213580   0.967  10.795   8.479 -0.0486 -0.0629 -0.2523
 1196ERGO   ROH13581  13.130   2.635   6.479  0.0212  0.0469  0.0122
 1196ERGO    R113582  13.151   2.717   6.750 -0.0772  0.0690  0.0130
 1196ERGO    R213583  12.967   2.642   6.943 -0.0348 -0.0847 -0.0064
 1196ERGO    R313584  13.189   2.554   7.073  0.0273  0.1056  0.0194
 1196ERGO    R413585  12.980   2.558   7.278 -0.0389 -0.2130 -0.0373
 1196ERGO    R513586  13.175   2.655   7.289 -0.1469 -0.0004  0.0592
 1196ERGO    C113587  13.196   2.428   7.595  0.0169 -0.1092 -0.0310
 1196ERGO    C213588  13.196   2.495   7.867  0.0704 -0.0354 -0.0504
 1197ERGO   ROH13589   3.286   9.654   6.883 -0.3098  0.0372  0.0754
 1197ERGO    R113590   3.415   9.694   7.131 -0.2154 -0.0370  0.0392
 1197ERGO    R213591   3.282   9.784   7.356 -0.0754  0.1648  0.0466
 1197ERGO    R313592   3.386   9.560   7.468 -0.2917  0.0783  0.0782
 1197ERGO    R413593   3.350   9.745   7.692  0.2061  0.2746  0.0049
 1197ERGO    R513594   3.534   9.641   7.639  0.0026 -0.0308 -0.1192
 1197ERGO    C113595   3.487   9.512   7.994  0.1669  0.2575  0.0103
 1197ERGO    C213596   3.442   9.248   8.264 -0.0979  0.1516 -0.0998
 1198ERGO   ROH13597   0.258   6.473   8.974 -0.1140 -0.1683  0.0076
 1198ERGO    R113598   0.256   6.550   8.702 -0.2683 -0.0821  0.0320
 1198ERGO    R213599   0.415   6.428   8.511 -0.0682  0.2469 -0.0206
 1198ERGO    R313600   0.178   6.394   8.383 -0.0264 -0.1206 -0.0108
 1198ERGO    R413601   0.373   6.432   8.168 -0.1258  0.4750 -0.0128
 1198ERGO    R513602   0.188   6.543   8.197 -0.3575  0.0788  0.1218
 1198ERGO    C113603   0.125   6.402   7.848 -0.1201  0.2628  0.0010
 1198ERGO    C213604   0.211   6.164   7.547 -0.0294  0.0959  0.0293
 1199ERGO   ROH13605  18.184   7.747   9.418  0.0366  0.0575  0.1025
 1199ERGO    R113606  18.153   7.655   9.152 -0.0311 -0.0171  0.1356
 1199ERGO    R213607  18.309   7.746   8.943 -0.1616  0.0115  0.0475
 1199ERGO    R313608  18.358   7.482   8.906 -0.0506  0.0266  0.0890
 1199ERGO    R413609  18.484   7.613   8.677  0.1077  0.0630  0.1963
 1199ERGO    R513610  18.340   7.450   8.670  0.1622  0.0202  0.0724
 1199ERGO    C113611  18.633   7.287   8.488  0.3688  0.1072  0.3217
 1199ERGO    C213612  18.710   7.042   8.367 -0.0218  0.1423  0.0779
 1200ERGO   ROH13613  14.247  16.127   6.744 -0.2034  0.0491  0.1467
 1200ERGO    R113614  14.089  16.283   6.920 -0.0806  0.0633  0.2432
 1200ERGO    R213615  14.010  16.193   7.169  0.0805  0.0791  0.2945
 1200ERGO    R313616  14.126  16.424   7.253  0.1419  0.0793  0.2149
 1200ERGO    R413617  13.922  16.367   7.454  0.0350  0.2620  0.1721
 1200ERGO    R513618  13.946  16.553   7.343  0.1513  0.1989  0.0784
 1200ERGO    C113619  13.979  16.685   7.699  0.0660  0.3688  0.0262
 1200ERGO    C213620  13.795  16.864   7.957  0.0829  0.1348  0.1550
 1201ERGO   ROH13621   9.730   4.495   9.848 -0.1086 -0.0307 -0.0940
 1201ERGO    R113622   9.850   4.366   9.626 -0.1505 -0.0519 -0.1058
 1201ERGO    R213623   9.822   4.458   9.368 -0.1232 -0.0209 -0.1035
 1201ERGO    R313624  10.094   4.452   9.370 -0.1259 -0.1054 -0.0984
 1201ERGO    R413625  10.020   4.415   9.088 -0.1226 -0.0181 -0.1026
 1201ERGO    R513626  10.150   4.286   9.206 -0.1683 -0.0821 -0.1312
 1201ERGO    C113627  10.390   4.384   8.927 -0.1249 -0.0958 -0.0972
 1201ERGO    C213628  10.410   4.441   8.641  0.0543 -0.2872 -0.0609
 1202ERGO   ROH13629   8.471   7.359   6.587 -0.0709 -0.0448  0.0877
 1202ERGO    R113630   8.446   7.363   6.869 -0.0928  0.0618  0.0853
 1202ERGO    R213631   8.497   7.141   7.025 -0.2790  0.0672  0.1591
 1202ERGO    R313632   8.665   7.311   7.154 -0.1558 -0.0227  0.1185
 1202ERGO    R413633   8.639   7.081   7.334 -0.3092  0.0329  0.1661
 1202ERGO    R513634   8.605   7.290   7.385 -0.1619  0.0672  0.1245
 1202ERGO    C113635   8.879   7.206   7.636 -0.2111 -0.0714  0.1320
 1202ERGO    C213636   9.073   7.302   7.942  0.0415 -0.1155 -0.0115
 1203ERGO   ROH13637   3.732  10.335  10.003  0.1059  0.2012  0.2373
 1203ERGO    R113638   3.864  10.489   9.805 -0.0349  0.1491  0.1014
 1203ERGO    R213639   4.049  10.380   9.631 -0.0168  0.1427  0.1265
 1203ERGO    R313640   3.887  10.489   9.442 -0.1288 -0.0761  0.0935
 1203ERGO    R413641   4.157  10.499   9.325 -0.1621 -0.0033  0.0172
 1203ERGO    R513642   4.018  10.666   9.347 -0.2515 -0.0646 -0.0604
 1203ERGO    C113643   4.067  10.669   8.969 -0.3520 -0.2936 -0.0777
 1203ERGO    C213644   4.041  10.715   8.666 -0.1371 -0.1433 -0.0131
 1204ERGO   ROH13645   9.500  15.012  10.155  0.0651 -0.0004 -0.0299
 1204ERGO    R113646   9.342  15.154   9.967  0.0794  0.1852  0.0953
 1204ERGO    R213647   9.393  15.416   9.896  0.4055  0.0906 -0.0340
 1204ERGO    R313648   9.393  15.313   9.644 -0.0137  0.0102 -0.0075
 1204ERGO    R413649   9.277  15.580   9.616  0.2417  0.1323  0.0575
 1204ERGO    R513650   9.189  15.393   9.548 -0.0494  0.2039  0.2180
 1204ERGO    C113651   9.209  15.580   9.216 -0.2473  0.0811  0.1355
 1204ERGO    C213652   9.153  15.658   8.842 -0.1767  0.2850  0.0777
 1205ERGO   ROH13653   3.215  12.430   9.945 -0.0478 -0.0427 -0.1081
 1205ERGO    R113654   3.110  12.289   9.723  0.2401 -0.1036 -0.2105
 1205ERGO    R213655   2.901  12.385   9.571 -0.1427 -0.5260  0.0178
 1205ERGO    R313656   3.075  12.347   9.366 -0.1194  0.2184 -0.1292
 1205ERGO    R413657   2.811  12.352   9.239 -0.2409 -0.5413  0.0464
 1205ERGO    R513658   2.961  12.196   9.218  0.2790 -0.0458 -0.1796
 1205ERGO    C113659   2.922  12.297   8.853 -0.2764  0.1487 -0.0749
 1205ERGO    C213660   2.805  12.146   8.557 -0.1266 -0.0018  0.2089
 1206ERGO   ROH13661  13.353   4.899   6.587  0.0692 -0.0629 -0.2239
 1206ERGO    R113662  13.497   4.746   6.776  0.0123  0.0553 -0.0802
 1206ERGO    R213663  13.766   4.785   6.826  0.0156  0.0607 -0.0490
 1206ERGO    R313664  13.681   4.810   7.083 -0.0475  0.2626 -0.0894
 1206ERGO    R413665  13.938   4.669   7.102 -0.3295 -0.2266  0.0519
 1206ERGO    R513666  13.748   4.605   7.188 -0.4882  0.1527 -0.0199
 1206ERGO    C113667  13.960   4.625   7.504 -0.5896 -0.2042  0.0727
 1206ERGO    C213668  14.027   4.563   7.730  0.3084  0.1169 -0.2103
 1207ERGO   ROH13669  16.494  18.040   9.708  0.1053 -0.1417  0.2478
 1207ERGO    R113670  16.408  18.121   9.450 -0.0104 -0.2942  0.2369
 1207ERGO    R213671  16.499  18.352   9.329 -0.3664 -0.1516  0.2246
 1207ERGO    R313672  16.563  18.181   9.127 -0.0834 -0.0709  0.2430
 1207ERGO    R413673  16.475  18.425   8.992 -0.3993 -0.2008  0.2162
 1207ERGO    R513674  16.399  18.224   8.958 -0.1091 -0.3096  0.2067
 1207ERGO    C113675  16.522  18.308   8.606 -0.1527 -0.1537  0.2284
 1207ERGO    C213676  16.583  18.559   8.409  0.0355 -0.2000 -0.1107
 1208ERGO   ROH13677  12.766   4.154   6.830  0.2360  0.1569 -0.1890
 1208ERGO    R113678  12.790   4.042   7.089  0.2546 -0.0198 -0.2647
 1208ERGO    R213679  13.032   3.962   7.195  0.3118  0.2032 -0.2156
 1208ERGO    R313680  12.960   4.127   7.399  0.0026 -0.0431 -0.1179
 1208ERGO    R413681  13.142   3.933   7.522  0.3721  0.2224 -0.2346
 1208ERGO    R513682  12.941   3.983   7.589  0.2748 -0.1916 -0.2000
 1208ERGO    C113683  13.138   4.071   7.903  0.1170  0.0024 -0.1541
 1208ERGO    C213684  13.147   4.109   8.255 -0.0385 -0.1798  0.0225
 1209ERGO   ROH13685   1.192   3.970   6.122  0.2564  0.1201 -0.0655
 1209ERGO    R113686   1.158   3.964   6.404  0.0332  0.1694 -0.0878
 1209ERGO    R213687   1.368   3.918   6.578 -0.1480 -0.0941  0.0817
 1209ERGO    R313688   1.285   4.151   6.689  0.0585  0.0208 -0.0041
 1209ERGO    R413689   1.483   4.047   6.877 -0.1046 -0.1107  0.0709
 1209ERGO    R513690   1.279   4.107   6.924 -0.0474  0.1044  0.0017
 1209ERGO    C113691   1.471   4.342   7.156  0.1147 -0.0124 -0.0159
 1209ERGO    C213692   1.444   4.589   7.447 -0.0138  0.2895  0.1329
 1210ERGO   ROH13693  11.994  13.304   7.014  0.0671  0.1329 -0.2759
 1210ERGO    R113694  12.107  13.411   7.250  0.0695  0.0573 -0.2426
 1210ERGO    R213695  11.982  13.608   7.399  0.0443 -0.0297 -0.1470
 1210ERGO    R313696  12.015  13.431   7.602  0.1020 -0.1087 -0.2244
 1210ERGO    R413697  11.948  13.683   7.734  0.2500 -0.1359 -0.1011
 1210ERGO    R513698  12.121  13.557   7.775  0.2339 -0.2014 -0.2378
 1210ERGO    C113699  11.960  13.560   8.121  0.4236 -0.2720 -0.1470
 1210ERGO    C213700  12.005  13.584   8.560 -0.2179  0.0544  0.1750
 1211ERGO   ROH13701   4.299  11.596  10.087  0.0666  0.0047 -0.2977
 1211ERGO    R113702   4.097  11.662   9.900 -0.0258 -0.0345 -0.2112
 1211ERGO    R213703   4.128  11.863   9.712 -0.1341 -0.0509 -0.2380
 1211ERGO    R313704   4.064  11.664   9.537 -0.1956 -0.0680 -0.1987
 1211ERGO    R413705   3.987  11.912   9.400  0.0078 -0.0483 -0.3034
 1211ERGO    R513706   3.861  11.738   9.435 -0.1184  0.0361 -0.2922
 1211ERGO    C113707   3.846  11.754   9.055  0.0327 -0.0628 -0.3045
 1211ERGO    C213708   3.709  11.739   8.810 -0.1088  0.0091 -0.2805
 1212ERGO   ROH13709   0.159  14.810  10.623  0.0440  0.0027  0.0950
 1212ERGO    R113710   0.004  14.810  10.386  0.1703  0.0508  0.0123
 1212ERGO    R213711  -0.244  14.930  10.370  0.1229 -0.0654 -0.0549
 1212ERGO    R313712  -0.131  15.059  10.159  0.1665  0.1025  0.0681
 1212ERGO    R413713  -0.416  15.040  10.092  0.2075 -0.0856 -0.1160
 1212ERGO    R513714  -0.249  14.975   9.968  0.3424  0.0837 -0.0409
 1212ERGO    C113715  -0.411  15.226   9.731  0.2978  0.0599 -0.0360
 1212ERGO    C213716  -0.620  15.384   9.546  0.0464  0.1809  0.1652
 1213ERGO   ROH13717   6.745  15.286   6.723 -0.0821  0.0198  0.1337
 1213ERGO    R113718   6.810  15.430   6.958 -0.1559  0.0322  0.1465
 1213ERGO    R213719   6.643  15.440   7.177 -0.1076 -0.1747  0.1947
 1213ERGO    R313720   6.864  15.353   7.310  0.0135  0.0069  0.1156
 1213ERGO    R413721   6.679  15.436   7.521  0.0004 -0.1956  0.1837
 1213ERGO    R513722   6.885  15.503   7.496 -0.0673 -0.0025  0.1318
 1213ERGO    C113723   6.907  15.352   7.845  0.1770 -0.0374  0.1030
 1213ERGO    C213724   6.772  15.246   8.151 -0.0072 -0.3385 -0.2583
 1214ERGO   ROH13725   6.216   0.400   9.926  0.1062  0.1886  0.1725
 1214ERGO    R113726   6.369   0.490   9.706  0.0096  0.2463  0.1282
 1214ERGO    R213727   6.379   0.354   9.466  0.1545  0.1364  0.1956
 1214ERGO    R313728   6.304   0.594   9.363 -0.1055  0.0089  0.0753
 1214ERGO    R413729   6.453   0.464   9.147  0.1938  0.1285  0.2018
 1214ERGO    R513730   6.491   0.662   9.229 -0.1137  0.2101  0.1616
 1214ERGO    C113731   6.426   0.755   8.865 -0.0273  0.0044  0.0924
 1214ERGO    C213732   6.630   1.030   8.597 -0.2413 -0.2638 -0.5114
 1215ERGO   ROH13733   0.128  18.019   6.828 -0.0641  0.1878 -0.0597
 1215ERGO    R113734   0.139  18.206   7.041 -0.2198  0.1339 -0.0042
 1215ERGO    R213735  -0.077  18.254   7.208 -0.1621 -0.3424  0.2202
 1215ERGO    R313736   0.103  18.195   7.403  0.1439 -0.0711  0.0318
 1215ERGO    R413737  -0.097  18.365   7.534 -0.0470 -0.4555  0.2673
 1215ERGO    R513738   0.119  18.397   7.532 -0.0943 -0.0651  0.0608
 1215ERGO    C113739   0.060  18.375   7.908  0.3072 -0.2669  0.1178
 1215ERGO    C213740   0.062  18.269   8.215 -0.1359  0.0182  0.0426
 1216ERGO   ROH13741  11.272  11.829   9.845  0.0310 -0.0854 -0.1556
 1216ERGO    R113742  11.277  11.926   9.579  0.0702  0.0174 -0.1179
 1216ERGO    R213743  11.196  11.775   9.362  0.1765  0.0725 -0.1991
 1216ERGO    R313744  11.034  11.988   9.315  0.1201  0.0380 -0.1594
 1216ERGO    R413745  11.064  11.858   9.054  0.2133  0.1332 -0.1979
 1216ERGO    R513746  11.102  12.068   9.100  0.1391  0.1303 -0.1196
 1216ERGO    C113747  10.835  12.107   8.831  0.1816  0.1360 -0.1599
 1216ERGO    C213748  10.555  12.190   8.855  0.0105  0.2576  0.0804
 1217ERGO   ROH13749   4.395  14.559   9.995 -0.0715  0.0013  0.1798
 1217ERGO    R113750   4.318  14.480   9.734 -0.0465  0.1398  0.1305
 1217ERGO    R213751   4.378  14.629   9.510  0.1885  0.1372  0.1921
 1217ERGO    R313752   4.487  14.396   9.423 -0.0050  0.0499  0.1764
 1217ERGO    R413753   4.514  14.579   9.196  0.3086  0.1019  0.2482
 1217ERGO    R513754   4.422  14.382   9.193  0.1029  0.1944  0.1342
 1217ERGO    C113755   4.696  14.331   8.932  0.1968 -0.0004  0.2662
 1217ERGO    C213756   4.659  14.227   8.553  0.0108  0.0601  0.1394
 1218ERGO   ROH13757   6.646   8.452   6.646  0.0479  0.0654 -0.0083
 1218ERGO    R113758   6.695   8.407   6.921 -0.1245 -0.0155  0.0117
 1218ERGO    R213759   6.854   8.575   7.073 -0.0060 -0.2002  0.1000
 1218ERGO    R313760   6.635   8.585   7.233 -0.0726  0.0245 -0.0016
 1218ERGO    R413761   6.821   8.778   7.351  0.1303 -0.2721  0.1689
 1218ERGO    R513762   6.724   8.613   7.454 -0.1404 -0.1870  0.0529
 1218ERGO    C113763   6.596   8.905   7.663  0.1473 -0.1031  0.1137
 1218ERGO    C213764   6.762   9.179   7.924 -0.1298 -0.1594 -0.1429
 1219ERGO   ROH13765  15.513  14.597   7.023  0.2559 -0.0092 -0.1192
 1219ERGO    R113766  15.717  14.499   7.194  0.1508 -0.1949 -0.0993
 1219ERGO    R213767  15.744  14.583   7.455  0.3146 -0.0748 -0.1574
 1219ERGO    R313768  15.732  14.316   7.508 -0.0492 -0.0330  0.0084
 1219ERGO    R413769  15.832  14.437   7.756  0.3479 -0.0247 -0.1418
 1219ERGO    R513770  15.925  14.274   7.645  0.0099 -0.2405 -0.1293
 1219ERGO    C113771  15.872  14.103   7.981  0.0256  0.0438  0.0228
 1219ERGO    C213772  15.827  14.056   8.348  0.1308 -0.1489 -0.1186
 1220ERGO   ROH13773  10.213   4.324   6.704 -0.0059 -0.0928 -0.0552
 1220ERGO    R113774  10.138   4.477   6.930  0.1406 -0.0659 -0.0241
 1220ERGO    R213775   9.900   4.436   7.064  0.0740  0.1718 -0.0691
 1220ERGO    R313776  10.064   4.412   7.280  0.0181 -0.0764 -0.0510
 1220ERGO    R413777   9.817   4.530   7.387  0.0846  0.0513 -0.0304
 1220ERGO    R513778  10.019   4.608   7.411  0.1423 -0.1144  0.0525
 1220ERGO    C113779   9.922   4.561   7.777  0.0386 -0.2518  0.0091
 1220ERGO    C213780   9.656   4.590   8.012 -0.2190 -0.2753  0.1554
 1221ERGO   ROH13781  14.683   3.840   6.274 -0.3018 -0.0636  0.0902
 1221ERGO    R113782  14.601   3.825   6.544 -0.3257 -0.1930  0.0778
 1221ERGO    R213783  14.522   3.588   6.663 -0.0296 -0.3165  0.0514
 1221ERGO    R313784  14.713   3.653   6.845 -0.1386 -0.0689  0.0784
 1221ERGO    R413785  14.504   3.521   7.001  0.0061 -0.3171  0.0519
 1221ERGO    R513786  14.591   3.717   7.040 -0.2441 -0.2102  0.0546
 1221ERGO    C113787  14.673   3.544   7.369 -0.0754 -0.0850  0.0774
 1221ERGO    C213788  14.836   3.381   7.654  0.2883 -0.0832  0.0766
 1222ERGO   ROH13789  13.304  13.946   7.472 -0.1177  0.0044 -0.0823
 1222ERGO    R113790  13.134  13.844   7.674  0.0185 -0.1369 -0.0363
 1222ERGO    R213791  13.210  13.641   7.844  0.2622 -0.0236 -0.0035
 1222ERGO    R313792  13.140  13.819   8.037  0.1003 -0.0552 -0.0320
 1222ERGO    R413793  13.064  13.558   8.146  0.0717 -0.0762 -0.1086
 1222ERGO    R513794  12.935  13.732   8.126  0.0548 -0.0981 -0.1779
 1222ERGO    C113795  12.913  13.677   8.503 -0.1914 -0.1365 -0.1965
 1222ERGO    C213796  12.964  13.678   8.842 -0.0097  0.1341  0.0210
 1223ERGO   ROH13797   1.046   6.919   6.226  0.2985 -0.0786 -0.0007
 1223ERGO    R113798   0.940   6.861   6.482  0.2756 -0.1388 -0.0231
 1223ERGO    R213799   1.087   6.732   6.678  0.2926 -0.0966 -0.0040
 1223ERGO    R313800   1.017   6.949   6.827  0.1813 -0.1324 -0.0045
 1223ERGO    R413801   1.007   6.723   7.014  0.1646 -0.1510 -0.0356
 1223ERGO    R513802   0.847   6.867   6.975  0.1460 -0.1884 -0.0792
 1223ERGO    C113803   0.895   6.921   7.350 -0.0145 -0.2163 -0.0545
 1223ERGO    C213804   0.976   6.825   7.630 -0.0334  0.1224  0.1246
 1224ERGO   ROH13805   8.168   1.684  10.447 -0.2037  0.0999 -0.1352
 1224ERGO    R113806   8.314   1.759  10.217  0.0126 -0.0750 -0.0584
 1224ERGO    R213807   8.410   1.575  10.035 -0.2534 -0.1848 -0.0917
 1224ERGO    R313808   8.274   1.729   9.857  0.0775  0.1285 -0.0837
 1224ERGO    R413809   8.477   1.592   9.696 -0.1196 -0.1945 -0.0660
 1224ERGO    R513810   8.442   1.807   9.705  0.2705 -0.1259 -0.0071
 1224ERGO    C113811   8.389   1.747   9.332  0.2691  0.0940 -0.0435
 1224ERGO    C213812   8.303   1.473   9.064 -0.0596 -0.1107  0.0540
 1225ERGO   ROH13813   9.253   4.539   9.874 -0.0524  0.0593 -0.0135
 1225ERGO    R113814   9.255   4.361   9.654 -0.0216 -0.0407  0.0676
 1225ERGO    R213815   9.157   4.430   9.405 -0.0092 -0.1622  0.0309
 1225ERGO    R313816   9.404   4.353   9.322  0.0025 -0.1808  0.0807
 1225ERGO    R413817   9.255   4.405   9.075  0.1413  0.1101  0.0509
 1225ERGO    R513818   9.362   4.222   9.126  0.0449  0.0173 -0.0656
 1225ERGO    C113819   9.544   4.317   8.804  0.2399  0.2513  0.1093
 1225ERGO    C213820   9.587   4.284   8.445  0.1285  0.4991 -0.2566
 1226ERGO   ROH13821   5.847   9.684   9.937 -0.1736 -0.3872  0.1397
 1226ERGO    R113822   5.855   9.807   9.683 -0.2231 -0.2254  0.2148
 1226ERGO    R213823   6.069   9.778   9.510 -0.1637  0.0530  0.2368
 1226ERGO    R313824   5.876   9.697   9.336 -0.0644 -0.0001  0.1505
 1226ERGO    R413825   6.059   9.860   9.175 -0.1932  0.2962  0.2953
 1226ERGO    R513826   5.843   9.886   9.193 -0.2222  0.0793  0.2871
 1226ERGO    C113827   5.872   9.832   8.816 -0.1172  0.3880  0.2484
 1226ERGO    C213828   5.774   9.695   8.446 -0.1620 -0.1529 -0.0340
 1227ERGO   ROH13829  11.769   6.531   9.852  0.0735 -0.3242 -0.0710
 1227ERGO    R113830  11.769   6.385   9.610  0.0826 -0.2518 -0.1147
 1227ERGO    R213831  11.779   6.507   9.362  0.0986 -0.1782 -0.0762
 1227ERGO    R313832  11.993   6.343   9.326  0.0963 -0.1736 -0.1162
 1227ERGO    R413833  11.837   6.316   9.080  0.0961 -0.1066 -0.1261
 1227ERGO    R513834  11.904   6.154   9.209  0.0921 -0.1424 -0.1660
 1227ERGO    C113835  12.071   6.051   8.882  0.0925 -0.0604 -0.1926
 1227ERGO    C213836  12.119   5.904   8.620 -0.0150  0.0790 -0.2117
 1228ERGO   ROH13837   3.147   5.734   9.475  0.2253 -0.0454 -0.0804
 1228ERGO    R113838   3.264   5.839   9.239  0.1400 -0.0665 -0.1327
 1228ERGO    R213839   3.219   5.729   8.989  0.0389 -0.0810 -0.1095
 1228ERGO    R313840   3.145   5.983   8.926  0.0266 -0.0819 -0.0970
 1228ERGO    R413841   3.209   5.858   8.669  0.0118 -0.0737 -0.1052
 1228ERGO    R513842   3.290   6.044   8.747  0.0117 -0.0731 -0.1060
 1228ERGO    C113843   3.133   6.171   8.423 -0.0155 -0.0703 -0.0911
 1228ERGO    C213844   3.210   6.283   8.129 -0.4372  0.0579  0.0149
 1229ERGO   ROH13845   0.136  17.151  10.009 -0.1238  0.0380 -0.0749
 1229ERGO    R113846   0.202  16.961   9.810 -0.3374 -0.0303 -0.0818
 1229ERGO    R213847   0.109  16.979   9.551 -0.1289  0.2187 -0.1421
 1229ERGO    R313848   0.373  16.962   9.489 -0.1079 -0.2531  0.0357
 1229ERGO    R413849   0.236  16.970   9.230  0.0835  0.3856 -0.0650
 1229ERGO    R513850   0.379  16.820   9.296 -0.2733 -0.0157 -0.1516
 1229ERGO    C113851   0.558  16.950   8.985  0.2268  0.0399  0.1468
 1229ERGO    C213852   0.718  16.871   8.643 -0.2991  0.1820 -0.1481
 1230ERGO   ROH13853  15.750   8.921   9.458 -0.0762  0.0880  0.1049
 1230ERGO    R113854  15.586   9.023   9.250 -0.0226  0.1186  0.0776
 1230ERGO    R213855  15.685   9.180   9.046  0.0718 -0.0349  0.0047
 1230ERGO    R313856  15.569   8.992   8.888 -0.0750 -0.0185  0.0913
 1230ERGO    R413857  15.637   9.211   8.705  0.4525 -0.3095 -0.0822
 1230ERGO    R513858  15.441   9.118   8.730  0.2752  0.0266 -0.1681
 1230ERGO    C113859  15.499   9.052   8.358  0.5364 -0.4541 -0.0513
 1230ERGO    C213860  15.653   9.122   8.138  0.1438  0.1397  0.0422
 1231ERGO   ROH13861  13.150   6.300   6.568  0.2067 -0.2019  0.0587
 1231ERGO    R113862  13.160   6.223   6.840  0.0790 -0.1189  0.0870
 1231ERGO    R213863  13.349   6.321   7.015  0.0603 -0.1464  0.1188
 1231ERGO    R313864  13.131   6.389   7.163  0.0397 -0.0034  0.0256
 1231ERGO    R413865  13.359   6.439   7.340  0.0048 -0.1099  0.1079
 1231ERGO    R513866  13.184   6.316   7.385 -0.0846 -0.0070  0.0571
 1231ERGO    C113867  13.160   6.572   7.667 -0.0468  0.0455  0.0141
 1231ERGO    C213868  13.110   6.630   7.930 -0.1954 -0.2021  0.1263
 1232ERGO   ROH13869  14.777   0.413   6.427  0.1275  0.0819 -0.0272
 1232ERGO    R113870  14.838   0.412   6.703  0.1047  0.0471 -0.0231
 1232ERGO    R213871  14.997   0.218   6.819  0.2223  0.1216 -0.0654
 1232ERGO    R313872  15.139   0.432   6.907  0.0744  0.1914  0.0099
 1232ERGO    R413873  15.233   0.207   7.071  0.3178  0.1664 -0.1512
 1232ERGO    R513874  15.156   0.398   7.144  0.1809  0.0645 -0.0126
 1232ERGO    C113875  15.504   0.401   7.301  0.2347  0.2580 -0.1305
 1232ERGO    C213876  15.679   0.264   7.584  0.0676  0.2021 -0.1914
 1233ERGO   ROH13877   2.020   4.418   9.920 -0.2702 -0.0012  0.0415
 1233ERGO    R113878   2.045   4.257   9.689 -0.1539  0.0137  0.0432
 1233ERGO    R213879   1.855   4.254   9.488 -0.0879 -0.0266 -0.0187
 1233ERGO    R313880   2.069   4.311   9.330 -0.0501  0.0333  0.0530
 1233ERGO    R413881   1.868   4.201   9.147 -0.0120  0.1199 -0.0396
 1233ERGO    R513882   2.074   4.133   9.170 -0.0205  0.1021 -0.0231
 1233ERGO    C113883   2.077   4.223   8.800  0.0676  0.2615  0.0154
 1233ERGO    C213884   2.016   4.142   8.520  0.1038  0.3891 -0.1594
 1234ERGO   ROH13885  16.720   6.423   9.168 -0.0968 -0.1711  0.1526
 1234ERGO    R113886  16.844   6.274   8.961 -0.1623 -0.2471  0.1668
 1234ERGO    R213887  16.742   6.034   8.869 -0.4299 -0.0778 -0.0026
 1234ERGO    R313888  16.752   6.159   8.628 -0.1108  0.0212  0.0578
 1234ERGO    R413889  16.693   5.879   8.564 -0.2275  0.0889 -0.1225
 1234ERGO    R513890  16.855   5.999   8.482 -0.0692  0.0212  0.0903
 1234ERGO    C113891  16.674   5.905   8.160  0.1898  0.2787 -0.1356
 1234ERGO    C213892  16.591   5.841   7.809 -0.2617  0.0593 -0.0263
 1235ERGO   ROH13893   0.086  11.495   7.016  0.0991 -0.0268 -0.0953
 1235ERGO    R113894   0.318  11.345   7.076  0.0585 -0.0708 -0.0466
 1235ERGO    R213895   0.430  11.337   7.329  0.0399 -0.0425 -0.0370
 1235ERGO    R313896   0.405  11.068   7.296 -0.0242 -0.0436  0.0202
 1235ERGO    R413897   0.512  11.100   7.566  0.0319 -0.0152 -0.0069
 1235ERGO    R513898   0.595  10.976   7.408 -0.0243 -0.0637  0.0025
 1235ERGO    C113899   0.536  10.710   7.674 -0.0329 -0.0004  0.0643
 1235ERGO    C213900   0.405  10.420   7.835 -0.1020 -0.0577  0.1172
 1236ERGO   ROH13901   9.823   7.394   6.650 -0.1599  0.0009 -0.0919
 1236ERGO    R113902   9.963   7.600   6.786 -0.0685 -0.0754 -0.0697
 1236ERGO    R213903   9.925   7.868   6.730  0.0279 -0.0516 -0.0193
 1236ERGO    R313904   9.876   7.883   6.998  0.0600 -0.0783 -0.0118
 1236ERGO    R413905   9.918   8.161   6.914  0.0913 -0.0727  0.0170
 1236ERGO    R513906  10.022   8.057   7.075  0.0947 -0.1085 -0.0071
 1236ERGO    C113907   9.869   8.346   7.271  0.1585 -0.1100  0.0453
 1236ERGO    C213908   9.862   8.409   7.633  0.1048  0.0891 -0.4316
 1237ERGO   ROH13909  15.260  16.947   9.859 -0.0366  0.2332 -0.1334
 1237ERGO    R113910  15.433  16.842   9.661  0.0622  0.1333  0.0043
 1237ERGO    R213911  15.392  16.882   9.391  0.0881 -0.1641 -0.0470
 1237ERGO    R313912  15.647  16.976   9.399  0.0317 -0.0046 -0.0919
 1237ERGO    R413913  15.586  16.952   9.114 -0.0124 -0.0134 -0.0804
 1237ERGO    R513914  15.757  16.866   9.217  0.0636  0.0834 -0.1256
 1237ERGO    C113915  15.938  17.081   8.960 -0.1239  0.2237 -0.1420
 1237ERGO    C213916  15.971  17.412   8.802 -0.2696  0.0277 -0.4051
 1238ERGO   ROH13917  11.993   4.414   6.987  0.0284 -0.0665 -0.0437
 1238ERGO    R113918  11.894   4.449   7.250 -0.0957  0.2067 -0.1247
 1238ERGO    R213919  12.005   4.324   7.469 -0.5684 -0.0503 -0.0224
 1238ERGO    R313920  12.021   4.577   7.566 -0.0213 -0.0655 -0.0408
 1238ERGO    R413921  12.050   4.406   7.802 -0.6753 -0.1325  0.0134
 1238ERGO    R513922  11.907   4.568   7.776 -0.2544  0.2378 -0.1447
 1238ERGO    C113923  12.091   4.691   8.086 -0.2240 -0.1947  0.0171
 1238ERGO    C213924  12.304   4.715   8.398  0.0244  0.0509 -0.0075
 1239ERGO   ROH13925  13.534  17.094   6.802 -0.1210  0.0918  0.0152
 1239ERGO    R113926  13.691  17.163   7.027 -0.0789  0.0996 -0.0172
 1239ERGO    R213927  13.937  17.287   7.004 -0.0538  0.0325 -0.0711
 1239ERGO    R313928  13.824  17.469   7.172  0.0142  0.0967 -0.0927
 1239ERGO    R413929  14.074  17.389   7.304  0.0350  0.0798 -0.1267
 1239ERGO    R513930  13.874  17.385   7.391  0.0483  0.1380 -0.0810
 1239ERGO    C113931  14.048  17.619   7.637  0.1506  0.1676 -0.1794
 1239ERGO    C213932  14.090  17.794   7.861 -0.0920 -0.0277 -0.2933
 1240ERGO   ROH13933   7.464  16.490   6.776 -0.0180 -0.0360 -0.0253
 1240ERGO    R113934   7.573  16.390   7.018  0.0319  0.0856  0.0033
 1240ERGO    R213935   7.521  16.505   7.263 -0.0160  0.1364 -0.0289
 1240ERGO    R313936   7.446  16.252   7.329  0.0990  0.1211  0.0461
 1240ERGO    R413937   7.424  16.405   7.579  0.0306  0.1823  0.0001
 1240ERGO    R513938   7.535  16.219   7.549  0.1141  0.2247  0.0547
 1240ERGO    C113939   7.297  16.109   7.826  0.1657  0.1947  0.0873
 1240ERGO    C213940   7.199  15.924   8.156  0.2359  0.3128  0.1944
 1241ERGO   ROH13941   4.113   6.172   9.766  0.0186 -0.0967 -0.2063
 1241ERGO    R113942   4.243   6.240   9.524  0.0786 -0.0738 -0.1664
 1241ERGO    R213943   4.228   6.082   9.298  0.0272  0.0163 -0.2185
 1241ERGO    R313944   4.143   6.312   9.182  0.1562  0.0985 -0.1557
 1241ERGO    R413945   4.195   6.131   8.958 -0.2880 -0.0099 -0.1956
 1241ERGO    R513946   4.276   6.332   8.984 -0.0288 -0.0870 -0.3091
 1241ERGO    C113947   4.095   6.376   8.650 -0.3503  0.0519 -0.1231
 1241ERGO    C213948   4.062   6.454   8.282  0.3704 -0.1174 -0.2645
 1242ERGO   ROH13949  14.287   1.462   6.618 -0.2653  0.1822 -0.0734
 1242ERGO    R113950  14.283   1.610   6.859 -0.3524  0.0859 -0.0144
 1242ERGO    R213951  14.096   1.565   7.058 -0.2229 -0.2200  0.0451
 1242ERGO    R313952  14.318   1.538   7.214 -0.1246 -0.0117 -0.0552
 1242ERGO    R413953  14.093   1.534   7.402 -0.0261 -0.0882  0.0599
 1242ERGO    R513954  14.267   1.665   7.411 -0.1081  0.0315 -0.0796
 1242ERGO    C113955  14.299   1.491   7.749  0.1806  0.1840 -0.0255
 1242ERGO    C213956  14.232   1.414   7.956 -0.0474 -0.2410 -0.0490
 1243ERGO   ROH13957  17.067   2.520   9.456 -0.0559 -0.2038  0.0950
 1243ERGO    R113958  17.180   2.318   9.294 -0.0520 -0.1444  0.0226
 1243ERGO    R213959  17.071   2.244   9.051 -0.0819 -0.0972  0.0207
 1243ERGO    R313960  17.322   2.295   8.960 -0.1049 -0.0347 -0.0079
 1243ERGO    R413961  17.194   2.145   8.743 -0.1153 -0.0065 -0.0216
 1243ERGO    R513962  17.383   2.097   8.840 -0.0916  0.0027 -0.0630
 1243ERGO    C113963  17.501   2.136   8.479 -0.1564  0.1049 -0.0733
 1243ERGO    C213964  17.600   2.179   8.229 -0.0989  0.0469  0.2494
 1244ERGO   ROH13965   7.634   6.420   9.844  0.2402  0.0865 -0.0003
 1244ERGO    R113966   7.519   6.429   9.586  0.1147 -0.0778  0.0477
 1244ERGO    R213967   7.517   6.659   9.432 -0.2695 -0.0803  0.0409
 1244ERGO    R313968   7.635   6.498   9.248 -0.1225  0.0767 -0.0044
 1244ERGO    R413969   7.554   6.736   9.097 -0.2024  0.1102  0.0910
 1244ERGO    R513970   7.505   6.529   9.049 -0.0755  0.1071 -0.0306
 1244ERGO    C113971   7.687   6.630   8.729 -0.0254  0.3685  0.0776
 1244ERGO    C213972   7.807   6.575   8.424 -0.0010 -0.1950 -0.0445
 1245ERGO   ROH13973  13.149  11.153   9.730 -0.0943 -0.1069  0.0501
 1245ERGO    R113974  13.213  11.041   9.478  0.1017 -0.0751  0.0847
 1245ERGO    R213975  13.035  11.039   9.266  0.1923 -0.2295  0.0081
 1245ERGO    R313976  13.240  11.161   9.135  0.1553 -0.0774  0.0882
 1245ERGO    R413977  13.107  10.997   8.931  0.3582 -0.1774  0.0360
 1245ERGO    R513978  13.319  10.994   8.982  0.3408 -0.0195  0.1194
 1245ERGO    C113979  13.342  11.086   8.612  0.4201 -0.0044  0.1275
 1245ERGO    C213980  13.185  11.320   8.384 -0.0503 -0.1013  0.3161
 1246ERGO   ROH13981  16.141  14.486  10.123  0.1558 -0.3158 -0.0914
 1246ERGO    R113982  15.934  14.531   9.934  0.1821 -0.2264 -0.0999
 1246ERGO    R213983  15.854  14.785   9.858  0.2406 -0.1895 -0.0443
 1246ERGO    R313984  15.903  14.690   9.609  0.2458 -0.1383 -0.0629
 1246ERGO    R413985  15.741  14.929   9.565  0.2774 -0.1116 -0.0203
 1246ERGO    R513986  15.701  14.730   9.488  0.2597 -0.0883 -0.0680
 1246ERGO    C113987  15.722  14.924   9.160  0.3037 -0.0182 -0.0235
 1246ERGO    C213988  15.797  15.008   8.845 -0.0123 -0.0015 -0.0422
 1247ERGO   ROH13989   1.663  10.630   6.499 -0.2489 -0.1103  0.1445
 1247ERGO    R113990   1.648  10.697   6.774 -0.1667 -0.1151  0.1505
 1247ERGO    R213991   1.432  10.628   6.932 -0.0893 -0.1772  0.2305
 1247ERGO    R313992   1.624  10.517   7.089  0.0011 -0.1228  0.1594
 1247ERGO    R413993   1.452  10.662   7.275  0.0283 -0.1757  0.2242
 1247ERGO    R513994   1.668  10.682   7.257  0.0153 -0.1125  0.1451
 1247ERGO    C113995   1.643  10.577   7.622  0.1815 -0.1236  0.1538
 1247ERGO    C213996   1.725  10.573   7.959  0.1410 -0.2349  0.2518
 1248ERGO   ROH13997   2.870  11.137  10.064  0.0930 -0.0979  0.0924
 1248ERGO    R113998   3.006  11.000   9.857  0.1127  0.0042  0.0359
 1248ERGO    R213999   2.874  10.853   9.663  0.1423 -0.1210  0.1059
 1248ERGO    R314000   3.015  11.011   9.493 -0.0711 -0.0073  0.0307
 1248ERGO    R414001   2.886  10.813   9.320  0.0132 -0.1183  0.1006
 1248ERGO    R514002   3.098  10.860   9.327 -0.0237  0.0598 -0.0038
 1248ERGO    C114003   3.026  10.938   8.961 -0.2622 -0.0100  0.0271
 1248ERGO    C214004   3.210  10.894   8.623  0.1873  0.0349  0.1238
 1249ERGO   ROH14005   2.130   1.280   6.762 -0.1510 -0.0058 -0.0416
 1249ERGO    R114006   1.905   1.141   6.863 -0.0727 -0.0918  0.0135
 1249ERGO    R214007   1.924   0.890   6.978  0.0692 -0.0305  0.1138
 1249ERGO    R314008   1.797   1.011   7.186 -0.0045 -0.0229  0.0666
 1249ERGO    R414009   1.658   0.755   7.153  0.1454 -0.1298  0.1546
 1249ERGO    R514010   1.567   0.952   7.157  0.0262 -0.1742  0.0773
 1249ERGO    C114011   1.385   0.789   7.451  0.1205 -0.1804  0.1341
 1249ERGO    C214012   1.306   0.592   7.568 -0.1028  0.1469 -0.0430
 1250ERGO   ROH14013  10.293   5.252   9.623 -0.0287 -0.0257  0.0490
 1250ERGO    R114014  10.310   5.243   9.341  0.0277 -0.0086  0.0518
 1250ERGO    R214015  10.178   5.424   9.178  0.0103 -0.0358  0.0357
 1250ERGO    R314016  10.427   5.463   9.076  0.0205  0.0348  0.0849
 1250ERGO    R414017  10.245   5.522   8.854  0.0413  0.3288  0.1464
 1250ERGO    R514018  10.412   5.381   8.851  0.0120  0.2981 -0.0121
 1250ERGO    C114019  10.518   5.614   8.568  0.0688  0.6074  0.2571
 1250ERGO    C214020  10.781   5.721   8.278  0.2074  0.2439  0.0984
 1251ERGO   ROH14021   9.445  13.874   6.688  0.0957 -0.0695 -0.1169
 1251ERGO    R114022   9.287  13.917   6.919  0.0474 -0.0783 -0.1485
 1251ERGO    R214023   9.172  13.710   7.061  0.1489 -0.0938 -0.0895
 1251ERGO    R314024   9.301  13.826   7.271  0.0626  0.0517 -0.1147
 1251ERGO    R414025   9.128  13.622   7.393  0.2010 -0.0391 -0.0675
 1251ERGO    R514026   9.137  13.834   7.445  0.0509 -0.0186 -0.1220
 1251ERGO    C114027   9.224  13.679   7.782  0.1504  0.1293 -0.0785
 1251ERGO    C214028   9.169  13.481   8.047 -0.1675 -0.0893  0.0965
 1252ERGO   ROH14029   4.215   0.713   6.992  0.0560  0.0329  0.1413
 1252ERGO    R114030   4.224   0.660   7.270  0.0304  0.0913  0.1525
 1252ERGO    R214031   4.291   0.854   7.455 -0.0860  0.1549  0.1242
 1252ERGO    R314032   4.054   0.782   7.568 -0.0740  0.0747  0.1013
 1252ERGO    R414033   4.223   0.862   7.794 -0.1330  0.1786  0.1149
 1252ERGO    R514034   4.116   0.674   7.772 -0.0546  0.1288  0.1272
 1252ERGO    C114035   3.961   0.800   8.097 -0.1490  0.1172  0.0881
 1252ERGO    C214036   3.748   0.836   8.360  0.0314  0.1469  0.0200
 1253ERGO   ROH14037   5.735   3.311   9.451  0.0677  0.0581 -0.1527
 1253ERGO    R114038   5.605   3.241   9.209 -0.0328  0.0723 -0.1036
 1253ERGO    R214039   5.743   3.199   8.973 -0.1262  0.0403 -0.1523
 1253ERGO    R314040   5.612   2.961   8.977 -0.1664  0.0632 -0.0976
 1253ERGO    R414041   5.722   2.981   8.706 -0.1183 -0.0399 -0.0876
 1253ERGO    R514042   5.514   2.944   8.759 -0.1340  0.0114 -0.1087
 1253ERGO    C114043   5.587   2.630   8.554 -0.1515 -0.0652  0.0014
 1253ERGO    C214044   5.472   2.505   8.340 -0.1824 -0.1902 -0.0196
 1254ERGO   ROH14045   7.781   3.000   6.693  0.1149 -0.0241  0.0876
 1254ERGO    R114046   7.788   2.972   6.975 -0.0858  0.0636  0.1027
 1254ERGO    R214047   8.024   2.936   7.115 -0.2072 -0.1401  0.2563
 1254ERGO    R314048   7.936   3.151   7.255 -0.0635  0.0030  0.1307
 1254ERGO    R414049   8.153   3.040   7.418 -0.2553 -0.1596  0.2841
 1254ERGO    R514050   7.950   3.083   7.484 -0.2502  0.0711  0.1652
 1254ERGO    C114051   8.147   3.303   7.726 -0.1484 -0.0365  0.1824
 1254ERGO    C214052   8.374   3.271   7.982 -0.0170  0.0451 -0.2134
 1255ERGO   ROH14053  15.406  11.691   9.860 -0.1826 -0.3007 -0.1356
 1255ERGO    R114054  15.481  11.670   9.588 -0.2543 -0.1660 -0.1679
 1255ERGO    R214055  15.297  11.672   9.382 -0.2935  0.2392 -0.1445
 1255ERGO    R314056  15.452  11.875   9.289 -0.0525  0.1295  0.0118
 1255ERGO    R414057  15.358  11.739   9.048 -0.2629  0.4685 -0.0935
 1255ERGO    R514058  15.565  11.783   9.099 -0.2003  0.1619 -0.0876
 1255ERGO    C114059  15.539  11.969   8.767 -0.0189  0.4991  0.0830
 1255ERGO    C214060  15.487  11.998   8.382 -0.0069 -0.0978  0.1126
 1256ERGO   ROH14061   7.162   1.355  10.214 -0.0321  0.0951 -0.0327
 1256ERGO    R114062   7.187   1.530   9.992  0.0175  0.0686 -0.0475
 1256ERGO    R214063   7.430   1.632   9.909  0.0462 -0.0244 -0.0672
 1256ERGO    R314064   7.355   1.527   9.670 -0.0015 -0.0143 -0.0577
 1256ERGO    R414065   7.575   1.711   9.606 -0.0283  0.0129 -0.0937
 1256ERGO    R514066   7.375   1.710   9.516 -0.0522  0.0023 -0.0484
 1256ERGO    C114067   7.589   1.659   9.204 -0.1163  0.0441 -0.1002
 1256ERGO    C214068   7.872   1.705   9.102 -0.1460  0.1283  0.0445
 1257ERGO   ROH14069  11.906   9.217   9.238  0.0613  0.1262  0.0538
 1257ERGO    R114070  11.798   9.329   9.002  0.0527  0.0969  0.0446
 1257ERGO    R214071  11.860   9.584   8.917  0.0357  0.0909  0.0218
 1257ERGO    R314072  11.927   9.456   8.686  0.0414  0.0753  0.0309
 1257ERGO    R414073  11.882   9.736   8.607  0.0900  0.0797  0.0192
 1257ERGO    R514074  11.788   9.559   8.520  0.0730  0.0910  0.0135
 1257ERGO    C114075  11.958   9.705   8.210  0.1268  0.0586  0.0262
 1257ERGO    C214076  11.965   9.780   7.804 -0.0916  0.0030 -0.0132
 1258ERGO   ROH14077  17.604   0.740   9.772 -0.0257  0.0325 -0.0290
 1258ERGO    R114078  17.639   0.587   9.536 -0.3111 -0.0863 -0.0010
 1258ERGO    R214079  17.461   0.595   9.325 -0.2771  0.2544 -0.0346
 1258ERGO    R314080  17.684   0.655   9.182 -0.1192 -0.2259 -0.0026
 1258ERGO    R414081  17.494   0.552   8.984 -0.2995  0.1769 -0.0256
 1258ERGO    R514082  17.697   0.482   9.017 -0.4560 -0.2570  0.0067
 1258ERGO    C114083  17.722   0.583   8.650 -0.1639 -0.3192  0.0096
 1258ERGO    C214084  17.766   0.606   8.422 -0.0842  0.2611 -0.2126
 1259ERGO   ROH14085   6.896   3.873   9.493 -0.0951  0.0217  0.0345
 1259ERGO    R114086   6.817   3.951   9.232  0.0105  0.0047 -0.0040
 1259ERGO    R214087   6.900   3.817   9.005  0.0521 -0.0492  0.0356
 1259ERGO    R314088   6.633   3.802   8.956  0.0671  0.0103 -0.0410
 1259ERGO    R414089   6.758   3.815   8.690  0.1317 -0.0190 -0.0001
 1259ERGO    R514090   6.600   3.945   8.766  0.1459  0.0108 -0.0477
 1259ERGO    C114091   6.425   3.800   8.460  0.1921  0.0545 -0.0928
 1259ERGO    C214092   6.320   3.448   8.272 -0.3676  0.2089  0.4456
 1260ERGO   ROH14093  12.650  14.398  10.104 -0.1185  0.1229 -0.0930
 1260ERGO    R114094  12.752  14.301   9.858  0.0362  0.0417  0.0013
 1260ERGO    R214095  12.630  14.352   9.616  0.0580 -0.2316 -0.0710
 1260ERGO    R314096  12.876  14.446   9.548 -0.0033 -0.0618 -0.0633
 1260ERGO    R414097  12.721  14.455   9.299  0.0623 -0.3860 -0.1207
 1260ERGO    R514098  12.914  14.358   9.328  0.1420 -0.1930  0.0126
 1260ERGO    C114099  13.005  14.603   9.050  0.0072 -0.3165 -0.1423
 1260ERGO    C214100  13.156  14.590   8.786 -0.1124  0.2303  0.3227
 1261ERGO   ROH14101   4.646   8.112   6.176  0.1027  0.2875  0.1555
 1261ERGO    R114102   4.562   8.010   6.427 -0.0132  0.0049  0.0064
 1261ERGO    R214103   4.467   8.172   6.629  0.1628 -0.1848  0.2482
 1261ERGO    R314104   4.254   8.004   6.620 -0.0253  0.0588 -0.0113
 1261ERGO    R414105   4.251   8.112   6.892  0.0548 -0.2952  0.1356
 1261ERGO    R514106   4.249   7.902   6.836 -0.1712 -0.2252 -0.1432
 1261ERGO    C114107   3.925   7.919   7.037 -0.1848 -0.1308 -0.1737
 1261ERGO    C214108   3.822   7.876   7.379  0.0477  0.0747 -0.0733
 1262ERGO   ROH14109   8.097  13.167   9.990 -0.1566  0.3282 -0.1161
 1262ERGO    R114110   8.220  13.045   9.767 -0.0524  0.2687 -0.0257
 1262ERGO    R214111   8.078  12.958   9.548  0.0357  0.0929 -0.0118
 1262ERGO    R314112   8.254  13.114   9.412 -0.0034  0.1005 -0.0557
 1262ERGO    R414113   8.108  12.968   9.203  0.0026  0.0340 -0.0172
 1262ERGO    R514114   8.325  12.978   9.228  0.0049  0.0773 -0.0374
 1262ERGO    C114115   8.291  13.120   8.875 -0.0534  0.0068 -0.0614
 1262ERGO    C214116   8.292  13.142   8.509 -0.2150 -0.0248  0.0187
 1263ERGO   ROH14117   5.418  12.406   6.691 -0.1202  0.3425 -0.1402
 1263ERGO    R114118   5.374  12.369   6.968 -0.2526  0.3020 -0.1660
 1263ERGO    R214119   5.581  12.340   7.149 -0.3433 -0.0487 -0.1147
 1263ERGO    R314120   5.458  12.547   7.275 -0.0967  0.0793 -0.0761
 1263ERGO    R414121   5.571  12.386   7.492 -0.4740 -0.2308 -0.0923
 1263ERGO    R514122   5.364  12.449   7.472 -0.3708  0.1076 -0.1860
 1263ERGO    C114123   5.449  12.607   7.809 -0.3186 -0.2167 -0.0429
 1263ERGO    C214124   5.526  12.615   8.184 -0.2033 -0.1932  0.1840
 1264ERGO   ROH14125   2.886   1.878  10.108 -0.2221  0.2001  0.0756
 1264ERGO    R114126   2.779   1.918   9.849 -0.1924  0.2429  0.0680
 1264ERGO    R214127   2.913   2.059   9.652 -0.1668  0.2823  0.0991
 1264ERGO    R314128   2.874   1.832   9.508 -0.1453  0.2997  0.0705
 1264ERGO    R414129   2.961   2.029   9.311 -0.2236  0.3220  0.0887
 1264ERGO    R514130   2.782   1.907   9.301 -0.1899  0.2962  0.1001
 1264ERGO    C114131   2.952   1.798   8.978 -0.2365  0.3614  0.0558
 1264ERGO    C214132   3.008   1.685   8.688 -0.0811 -0.2704  0.1409
 1265ERGO   ROH14133   9.585   6.341   6.412  0.0524  0.0421  0.0272
 1265ERGO    R114134   9.460   6.227   6.638 -0.0268  0.1163  0.0231
 1265ERGO    R214135   9.488   5.961   6.706 -0.0589  0.1285  0.1168
 1265ERGO    R314136   9.567   6.063   6.945 -0.1285  0.2067  0.1053
 1265ERGO    R414137   9.461   5.798   7.009 -0.0467  0.2012  0.1561
 1265ERGO    R514138   9.402   5.987   7.100 -0.1182  0.1955  0.1009
 1265ERGO    C114139   9.520   5.799   7.410 -0.1048  0.3169  0.1682
 1265ERGO    C214140   9.575   5.630   7.654  0.1690 -0.4151  0.1343
 1266ERGO   ROH14141   8.438  14.199   9.967 -0.1198  0.1823 -0.2129
 1266ERGO    R114142   8.551  14.054   9.752  0.0052  0.1235 -0.1107
 1266ERGO    R214143   8.402  13.972   9.533  0.1049 -0.0313 -0.1285
 1266ERGO    R314144   8.594  14.104   9.394  0.1039 -0.0205 -0.1180
 1266ERGO    R414145   8.462  13.937   9.195  0.0858  0.0351 -0.1382
 1266ERGO    R514146   8.675  13.944   9.236  0.0832  0.0112 -0.1538
 1266ERGO    C114147   8.676  14.040   8.867  0.0737  0.0839 -0.1341
 1266ERGO    C214148   8.570  13.983   8.492 -0.0984 -0.2335 -0.2545
 1267ERGO   ROH14149   7.224  10.460   6.538  0.4094 -0.0818 -0.0233
 1267ERGO    R114150   7.203  10.383   6.810 -0.0365 -0.1835 -0.0791
 1267ERGO    R214151   7.333  10.518   7.013  0.1594 -0.6394  0.1033
 1267ERGO    R314152   7.084  10.534   7.119  0.0910 -0.0250 -0.1030
 1267ERGO    R414153   7.264  10.553   7.350 -0.0133 -0.8026  0.0868
 1267ERGO    R514154   7.099  10.412   7.325 -0.4271 -0.3132 -0.2100
 1267ERGO    C114155   6.989  10.587   7.645 -0.1781 -0.3208 -0.1164
 1267ERGO    C214156   7.081  10.831   7.902 -0.0990 -0.0903  0.2625
 1268ERGO   ROH14157   1.826  12.879  10.003  0.1059 -0.0790 -0.0812
 1268ERGO    R114158   1.738  13.093   9.840  0.1089  0.0839  0.1235
 1268ERGO    R214159   1.878  13.331   9.818  0.3758 -0.0691 -0.0137
 1268ERGO    R314160   1.866  13.275   9.553 -0.1059  0.0122 -0.0169
 1268ERGO    R414161   1.883  13.567   9.566  0.1846 -0.0206  0.0278
 1268ERGO    R514162   1.733  13.451   9.460 -0.0911  0.1522  0.2391
 1268ERGO    C114163   1.876  13.652   9.170 -0.3790  0.0839  0.0490
 1268ERGO    C214164   2.023  13.812   8.923 -0.2868 -0.2871 -0.0119
 1269ERGO   ROH14165   4.542   2.968  10.096  0.2995  0.0293  0.0605
 1269ERGO    R114166   4.519   3.005   9.816  0.2898  0.0483  0.0649
 1269ERGO    R214167   4.713   2.920   9.638  0.1858 -0.1219  0.0411
 1269ERGO    R314168   4.504   2.791   9.522  0.0566  0.0610  0.0623
 1269ERGO    R414169   4.713   2.793   9.317 -0.0091  0.0432 -0.0273
 1269ERGO    R514170   4.508   2.863   9.294  0.0132  0.1820  0.0917
 1269ERGO    C114171   4.517   2.597   9.021 -0.2439  0.3111 -0.0474
 1269ERGO    C214172   4.550   2.337   8.760 -0.1066  0.0412  0.2625
 1270ERGO   ROH14173  11.252  12.961   6.998  0.2009 -0.1066 -0.1191
 1270ERGO    R114174  11.156  12.849   7.240  0.0951  0.0110 -0.1067
 1270ERGO    R214175  11.307  12.841   7.471  0.0559 -0.0313 -0.0874
 1270ERGO    R314176  11.091  12.967   7.578  0.1199  0.1295 -0.1413
 1270ERGO    R414177  11.217  12.829   7.804 -0.1560 -0.1600 -0.1468
 1270ERGO    R514178  11.009  12.813   7.742 -0.1430  0.1005 -0.2895
 1270ERGO    C114179  10.962  12.940   8.099 -0.2193 -0.0839 -0.2320
 1270ERGO    C214180  10.719  12.973   8.315 -0.1232 -0.1258 -0.1012
 1271ERGO   ROH14181  11.480   9.279   6.113 -0.1319 -0.0208  0.1613
 1271ERGO    R114182  11.529   9.257   6.391 -0.2526 -0.1210  0.1762
 1271ERGO    R214183  11.677   9.443   6.532  0.0647 -0.3932  0.2237
 1271ERGO    R314184  11.456   9.452   6.690  0.0250  0.0184  0.1550
 1271ERGO    R414185  11.680   9.502   6.872  0.0535 -0.3381  0.2138
 1271ERGO    R514186  11.526   9.349   6.895 -0.2193 -0.0672  0.1949
 1271ERGO    C114187  11.475   9.544   7.219  0.0097  0.0805  0.1435
 1271ERGO    C214188  11.494   9.589   7.512  0.1077  0.1106  0.0474
 1272ERGO   ROH14189  17.343  10.777   9.640  0.0045 -0.0423 -0.0962
 1272ERGO    R114190  17.396  10.863   9.375  0.1627  0.2206  0.0182
 1272ERGO    R214191  17.201  10.872   9.179  0.3816 -0.0701 -0.2158
 1272ERGO    R314192  17.282  11.130   9.156 -0.1139  0.1222  0.0362
 1272ERGO    R414193  17.132  11.077   8.910  0.2641 -0.0497 -0.1720
 1272ERGO    R514194  17.335  11.155   8.924  0.1032  0.3630  0.1040
 1272ERGO    C114195  17.168  11.439   8.731 -0.2692  0.1428  0.0901
 1272ERGO    C214196  16.924  11.618   8.543  0.1591  0.0724 -0.1552
 1273ERGO   ROH14197   9.199   5.209   9.629  0.1769  0.1387  0.1113
 1273ERGO    R114198   8.960   5.221   9.477  0.1644  0.0436  0.1217
 1273ERGO    R214199   8.831   5.459   9.421  0.0426 -0.0095  0.1622
 1273ERGO    R314200   8.853   5.374   9.164  0.0789  0.0396  0.1496
 1273ERGO    R414201   8.592   5.507   9.177  0.0599 -0.0051  0.1469
 1273ERGO    R514202   8.631   5.304   9.105  0.0971  0.0158  0.1153
 1273ERGO    C114203   8.473   5.455   8.793  0.1038  0.0435  0.1260
 1273ERGO    C214204   8.179   5.624   8.445 -0.1048  0.4970 -0.0861
 1274ERGO   ROH14205  13.386  10.804   6.394 -0.0435 -0.0616 -0.0913
 1274ERGO    R114206  13.258  10.763   6.643  0.0586  0.1669  0.0016
 1274ERGO    R214207  13.174  10.514   6.729 -0.3273  0.3081  0.0578
 1274ERGO    R314208  13.324  10.574   6.947 -0.0567  0.0437 -0.0489
 1274ERGO    R414209  13.124  10.384   7.045 -0.2600  0.3119  0.0697
 1274ERGO    R514210  13.167  10.581   7.128  0.0963  0.2359  0.0813
 1274ERGO    C114211  13.237  10.364   7.434  0.0332  0.0657 -0.0235
 1274ERGO    C214212  13.386   9.975   7.542 -0.0776 -0.0614  0.1458
 1275ERGO   ROH14213   9.702   9.996   9.514 -0.3290  0.0724 -0.0963
 1275ERGO    R114214   9.813   9.835   9.310 -0.2298  0.0584 -0.0317
 1275ERGO    R214215   9.686   9.795   9.068 -0.1161  0.0363 -0.0874
 1275ERGO    R314216   9.923   9.883   8.966 -0.0698  0.0326  0.0152
 1275ERGO    R414217   9.844   9.660   8.791 -0.0692  0.1283 -0.1063
 1275ERGO    R514218  10.035   9.683   8.895 -0.0925  0.0412 -0.0448
 1275ERGO    C114219  10.158   9.665   8.535  0.0015  0.1784 -0.0207
 1275ERGO    C214220  10.098   9.561   8.167  0.0503 -0.0293  0.0238
 1276ERGO   ROH14221   7.322  17.500   6.685  0.1973  0.0379 -0.1278
 1276ERGO    R114222   7.312  17.382   6.942  0.1764 -0.0966 -0.1891
 1276ERGO    R214223   7.536  17.349   7.100  0.1384 -0.0168 -0.1161
 1276ERGO    R314224   7.388  17.484   7.283 -0.0310 -0.2097 -0.1072
 1276ERGO    R414225   7.546  17.294   7.441  0.2600  0.0211 -0.1131
 1276ERGO    R514226   7.329  17.319   7.446  0.2221 -0.2830 -0.0871
 1276ERGO    C114227   7.413  17.389   7.811  0.1718 -0.1379 -0.1029
 1276ERGO    C214228   7.629  17.256   8.144  0.0980 -0.2677 -0.0356
 1277ERGO   ROH14229   1.162  11.633  10.010  0.3299  0.1178 -0.0399
 1277ERGO    R114230   1.191  11.504   9.760  0.1506  0.0256 -0.0145
 1277ERGO    R214231   1.005  11.529   9.557  0.0391  0.0042  0.0867
 1277ERGO    R314232   1.221  11.606   9.412 -0.0257 -0.1007 -0.0686
 1277ERGO    R414233   1.007  11.570   9.214 -0.2106  0.0705  0.0911
 1277ERGO    R514234   1.205  11.479   9.210 -0.2670 -0.0530 -0.0844
 1277ERGO    C114235   1.211  11.667   8.878 -0.4168  0.0106 -0.0520
 1277ERGO    C214236   1.234  11.886   8.650 -0.0420 -0.0469  0.1319
 1278ERGO   ROH14237   5.946   1.832   7.153  0.0053 -0.0662  0.0794
 1278ERGO    R114238   6.092   1.996   7.332  0.0160 -0.0005  0.0104
 1278ERGO    R214239   6.030   2.015   7.600 -0.0001  0.1383 -0.0047
 1278ERGO    R314240   6.291   1.946   7.633 -0.0116  0.1177  0.0490
 1278ERGO    R414241   6.200   2.025   7.901 -0.0577  0.1434  0.0283
 1278ERGO    R514242   6.374   2.103   7.795 -0.0295  0.1223  0.0554
 1278ERGO    C114243   6.544   1.966   8.107 -0.1020  0.1270  0.0979
 1278ERGO    C214244   6.750   1.926   8.360  0.1622  0.2286 -0.1740
 1279ERGO   ROH14245   0.250  13.789   6.922 -0.0104 -0.2161  0.0093
 1279ERGO    R114246   0.386  13.810   7.169  0.0090 -0.3205  0.0075
 1279ERGO    R214247   0.356  14.027   7.337  0.2837 -0.2269 -0.0593
 1279ERGO    R314248   0.295  13.835   7.520  0.0251 -0.0967 -0.0028
 1279ERGO    R414249   0.332  14.079   7.678  0.2003 -0.0691 -0.0879
 1279ERGO    R514250   0.431  13.888   7.710  0.0030 -0.1548  0.0288
 1279ERGO    C114251   0.260  13.929   8.048 -0.0911  0.1452 -0.0515
 1279ERGO    C214252   0.322  14.016   8.292 -0.1513  0.1935 -0.1937
 1280ERGO   ROH14253  14.821  16.556   9.725  0.0721  0.1415 -0.0327
 1280ERGO    R114254  14.611  16.423   9.590  0.0776  0.1526 -0.0547
 1280ERGO    R214255  14.347  16.498   9.616  0.0410 -0.0040  0.1387
 1280ERGO    R314256  14.357  16.509   9.344 -0.0804  0.2501  0.1430
 1280ERGO    R414257  14.081  16.430   9.406  0.1088 -0.3832  0.1695
 1280ERGO    R514258  14.219  16.326   9.272  0.2789  0.0219  0.0330
 1280ERGO    C114259  13.935  16.401   9.029  0.0345 -0.3653  0.1913
 1280ERGO    C214260  13.583  16.540   8.908  0.1310 -0.4032 -0.1957
 1281ERGO   ROH14261   7.119   5.159   9.651 -0.0820 -0.0001 -0.0078
 1281ERGO    R114262   7.128   4.957   9.453 -0.2183 -0.0711  0.0562
 1281ERGO    R214263   6.921   4.912   9.276 -0.2686 -0.0156  0.0953
 1281ERGO    R314264   7.115   4.942   9.089 -0.2735 -0.1804  0.0634
 1281ERGO    R414265   6.901   4.795   8.952 -0.4863  0.1467  0.0479
 1281ERGO    R514266   7.111   4.737   8.966 -0.5571 -0.1223 -0.0256
 1281ERGO    C114267   7.073   4.755   8.587 -0.6176  0.0864 -0.0098
 1281ERGO    C214268   7.059   4.697   8.263  0.0806 -0.0470  0.0585
 1282ERGO   ROH14269   0.045   4.344   9.397  0.1397 -0.0192 -0.0232
 1282ERGO    R114270   0.196   4.306   9.160  0.1492 -0.1109 -0.0015
 1282ERGO    R214271   0.091   4.184   8.935  0.1208 -0.0813  0.0038
 1282ERGO    R314272   0.174   4.413   8.813  0.2430 -0.1343 -0.0171
 1282ERGO    R414273   0.044   4.260   8.601 -0.0709  0.0087  0.0488
 1282ERGO    R514274   0.245   4.343   8.596  0.0134 -0.1741 -0.0885
 1282ERGO    C114275   0.095   4.519   8.293 -0.0679  0.0115  0.0552
 1282ERGO    C214276   0.136   4.709   7.985 -0.1825 -0.0019  0.2642
 1283ERGO   ROH14277  17.564   1.083   9.498  0.0944  0.1561 -0.0049
 1283ERGO    R114278  17.559   1.091   9.215  0.0982  0.0221 -0.0093
 1283ERGO    R214279  17.722   1.260   9.067  0.0452  0.0073 -0.0834
 1283ERGO    R314280  17.794   1.028   8.944  0.1254 -0.0260  0.0247
 1283ERGO    R414281  17.867   1.238   8.755 -0.0880 -0.0916 -0.1398
 1283ERGO    R514282  17.743   1.065   8.713 -0.0059 -0.1941  0.0237
 1283ERGO    C114283  18.020   1.009   8.457 -0.0902 -0.1805 -0.0710
 1283ERGO    C214284  18.186   0.989   8.266 -0.1254  0.4151 -0.2303
 1284ERGO   ROH14285   0.333   2.755   6.448  0.1406 -0.1506  0.2933
 1284ERGO    R114286   0.135   2.749   6.650  0.1100 -0.1366  0.2637
 1284ERGO    R214287  -0.132   2.697   6.595  0.0736  0.1104  0.1909
 1284ERGO    R314288  -0.099   2.504   6.784 -0.1006 -0.0507  0.0603
 1284ERGO    R414289  -0.389   2.547   6.770 -0.0738  0.0853 -0.0429
 1284ERGO    R514290  -0.265   2.555   6.949 -0.1547 -0.1069  0.0218
 1284ERGO    C114291  -0.508   2.278   7.049 -0.3228 -0.0805 -0.3016
 1284ERGO    C214292  -0.696   2.074   7.035 -0.0478 -0.0882 -0.2857
 1285ERGO   ROH14293   0.939   9.728   6.491  0.0059 -0.1646 -0.0387
 1285ERGO    R114294   0.918   9.838   6.751 -0.1770 -0.0721 -0.0907
 1285ERGO    R214295   0.705   9.783   6.919 -0.0833 -0.3619 -0.0626
 1285ERGO    R314296   0.902   9.709   7.091  0.0549  0.0604 -0.0274
 1285ERGO    R414297   0.657   9.701   7.251  0.0297 -0.4740 -0.0731
 1285ERGO    R514298   0.840   9.809   7.300 -0.2044 -0.0720 -0.0366
 1285ERGO    C114299   0.815   9.583   7.606  0.2253 -0.1428 -0.0463
 1285ERGO    C214300   0.799   9.531   7.979  0.3713  0.2370 -0.2756
 1286ERGO   ROH14301  15.622  13.205   9.843 -0.0499  0.0764 -0.0923
 1286ERGO    R114302  15.893  13.184   9.765 -0.0507  0.0103 -0.0772
 1286ERGO    R214303  15.972  13.181   9.501 -0.0280  0.1046 -0.0712
 1286ERGO    R314304  16.132  13.387   9.580  0.0438  0.0077  0.0397
 1286ERGO    R414305  16.203  13.340   9.299  0.0122  0.1460  0.0066
 1286ERGO    R514306  16.340  13.346   9.468  0.0245  0.0030  0.0038
 1286ERGO    C114307  16.487  13.626   9.255  0.1028  0.0790  0.1561
 1286ERGO    C214308  16.545  13.847   8.976 -0.1093  0.0940 -0.1125
 1287ERGO   ROH14309  13.792  15.505   8.501  0.0305  0.1238 -0.1177
 1287ERGO    R114310  13.549  15.642   8.453  0.1126  0.2419 -0.1999
 1287ERGO    R214311  13.312  15.573   8.579 -0.0188  0.1816 -0.4796
 1287ERGO    R314312  13.311  15.836   8.649 -0.0077  0.1148 -0.2164
 1287ERGO    R414313  13.045  15.737   8.724 -0.0053  0.0376 -0.2865
 1287ERGO    R514314  13.089  15.910   8.598 -0.0154  0.1672 -0.1224
 1287ERGO    C114315  12.888  16.079   8.874  0.0128 -0.1089  0.0729
 1287ERGO    C214316  12.711  16.152   9.059  0.1646  0.0306 -0.0106
 1288ERGO   ROH14317  12.034  14.696   7.318 -0.0400  0.0387  0.0477
 1288ERGO    R114318  12.023  14.558   7.565 -0.0556 -0.0292  0.0111
 1288ERGO    R214319  12.243  14.431   7.674 -0.0580 -0.0660 -0.0080
 1288ERGO    R314320  12.185  14.586   7.889 -0.0699 -0.1167  0.0235
 1288ERGO    R414321  12.352  14.371   7.997 -0.0825 -0.1285 -0.0123
 1288ERGO    R514322  12.156  14.431   8.069 -0.0796 -0.1476 -0.0122
 1288ERGO    C114323  12.361  14.483   8.387 -0.1078 -0.2124  0.0147
 1288ERGO    C214324  12.707  14.559   8.515  0.0952  0.2063  0.0083
 1289ERGO   ROH14325  11.552   3.954  10.158 -0.3435  0.1211  0.1740
 1289ERGO    R114326  11.450   4.086   9.930  0.0375  0.2295  0.0612
 1289ERGO    R214327  11.184   4.074   9.856  0.1735  0.1647 -0.4585
 1289ERGO    R314328  11.204   4.345   9.862  0.0544  0.1705 -0.2380
 1289ERGO    R414329  10.946   4.292   9.733  0.1518  0.1580 -0.4286
 1289ERGO    R514330  11.106   4.416   9.655  0.1447  0.2885 -0.2402
 1289ERGO    C114331  10.825   4.673   9.668  0.0275  0.1595 -0.2041
 1289ERGO    C214332  10.484   4.775   9.529 -0.2252 -0.2938 -0.1460
 1290ERGO   ROH14333   9.162  12.804   9.706  0.1565 -0.1775 -0.2881
 1290ERGO    R114334   9.130  12.901   9.442  0.0440  0.0667 -0.1872
 1290ERGO    R214335   9.057  13.161   9.387  0.1729  0.1605  0.0826
 1290ERGO    R314336   9.281  13.158   9.234  0.0712  0.1468 -0.0703
 1290ERGO    R414337   9.084  13.303   9.073 -0.0283  0.1761  0.0700
 1290ERGO    R514338   9.201  13.130   9.010 -0.0855  0.1661 -0.0193
 1290ERGO    C114339   9.311  13.383   8.747 -0.2407  0.1723 -0.0809
 1290ERGO    C214340   9.497  13.518   8.465 -0.1425 -0.2017  0.2109
 1291ERGO   ROH14341   7.067   3.627   6.666  0.0707  0.2750  0.0325
 1291ERGO    R114342   7.072   3.577   6.945 -0.1083  0.1377  0.0135
 1291ERGO    R214343   7.260   3.691   7.113 -0.0653 -0.1318  0.1549
 1291ERGO    R314344   7.041   3.774   7.249 -0.0459  0.0303  0.0898
 1291ERGO    R414345   7.254   3.765   7.450 -0.0791  0.0230  0.1215
 1291ERGO    R514346   7.060   3.667   7.463 -0.1246  0.1179  0.1403
 1291ERGO    C114347   7.044   3.886   7.775 -0.0690  0.2652  0.0409
 1291ERGO    C214348   7.083   4.186   7.994  0.2259 -0.0066  0.1542
 1292ERGO   ROH14349  18.057   3.472   9.449  0.3474  0.2497 -0.0440
 1292ERGO    R114350  17.925   3.406   9.207  0.2009  0.0844  0.0787
 1292ERGO    R214351  17.784   3.592   9.059  0.1875  0.0028 -0.0067
 1292ERGO    R314352  17.946   3.508   8.858  0.0540 -0.2222 -0.0240
 1292ERGO    R414353  17.737   3.663   8.724  0.2000  0.0078 -0.0073
 1292ERGO    R514354  17.797   3.459   8.677 -0.0456 -0.0774  0.0133
 1292ERGO    C114355  17.862   3.625   8.340  0.0821 -0.2005 -0.0240
 1292ERGO    C214356  17.809   3.760   8.002  0.2998 -0.0884  0.2351
 1293ERGO   ROH14357   4.037   8.317   9.536 -0.2069 -0.0039  0.0514
 1293ERGO    R114358   4.156   8.476   9.334 -0.0902 -0.0676  0.0692
 1293ERGO    R214359   4.188   8.387   9.075 -0.1470 -0.0662  0.0632
 1293ERGO    R314360   4.054   8.616   9.014  0.0152  0.0354  0.0793
 1293ERGO    R414361   4.249   8.584   8.797 -0.2710 -0.3132 -0.1431
 1293ERGO    R514362   4.222   8.760   8.922  0.0634 -0.1973 -0.2188
 1293ERGO    C114363   4.159   8.912   8.578 -0.1909 -0.3617 -0.2479
 1293ERGO    C214364   3.986   9.010   8.389 -0.0341  0.0500 -0.0220
 1294ERGO   ROH14365  14.699  15.368   7.087 -0.0959 -0.0632  0.0384
 1294ERGO    R114366  14.670  15.419   7.364 -0.0059 -0.0480  0.0458
 1294ERGO    R214367  14.512  15.263   7.529 -0.0587  0.0365  0.0830
 1294ERGO    R314368  14.741  15.243   7.674 -0.0343 -0.0908  0.0265
 1294ERGO    R414369  14.528  15.244   7.873  0.0173 -0.1386  0.0703
 1294ERGO    R514370  14.701  15.375   7.868  0.0439 -0.1811  0.1002
 1294ERGO    C114371  14.753  15.213   8.210  0.0842 -0.3602  0.0097
 1294ERGO    C214372  14.918  15.091   8.656 -0.2094 -0.0953 -0.1127
 1295ERGO   ROH14373  10.351   3.359  10.104 -0.0263 -0.1335 -0.0298
 1295ERGO    R114374  10.463   3.384   9.845  0.0994 -0.2414  0.0134
 1295ERGO    R214375  10.481   3.171   9.670 -0.0704 -0.2527  0.0101
 1295ERGO    R314376  10.349   3.339   9.502  0.1776 -0.0948 -0.0329
 1295ERGO    R414377  10.538   3.196   9.330  0.0654 -0.3224  0.0268
 1295ERGO    R514378  10.516   3.412   9.347  0.3151 -0.2924  0.0175
 1295ERGO    C114379  10.448   3.368   8.975  0.3772 -0.2147 -0.0039
 1295ERGO    C214380  10.372   3.192   8.628  0.2878  0.0594  0.2344
 1296ERGO   ROH14381   7.096  14.563   6.747 -0.0326  0.1599  0.0478
 1296ERGO    R114382   6.994  14.449   6.985 -0.1815  0.2130  0.0120
 1296ERGO    R214383   7.156  14.331   7.176 -0.3284 -0.0807 -0.0281
 1296ERGO    R314384   7.031  14.505   7.342 -0.0862  0.0403  0.0284
 1296ERGO    R414385   7.087  14.271   7.509 -0.0944  0.0668  0.0482
 1296ERGO    R514386   6.894  14.367   7.481 -0.0546  0.1712  0.1833
 1296ERGO    C114387   6.930  14.400   7.859  0.2693  0.2663  0.1457
 1296ERGO    C214388   6.891  14.368   8.160  0.0692 -0.0249  0.1128
 1297ERGO   ROH14389   7.050  13.958  10.137 -0.0437 -0.1654 -0.2221
 1297ERGO    R114390   7.072  14.025   9.863 -0.1808 -0.2222 -0.2486
 1297ERGO    R214391   6.854  14.035   9.694 -0.3371  0.1679 -0.0372
 1297ERGO    R314392   6.945  14.286   9.643  0.0830  0.0112 -0.1352
 1297ERGO    R414393   6.746  14.236   9.434 -0.1978  0.3299  0.0280
 1297ERGO    R514394   6.952  14.300   9.404 -0.0878 -0.0401 -0.1504
 1297ERGO    C114395   6.768  14.588   9.235  0.2777  0.2771 -0.0260
 1297ERGO    C214396   6.565  14.835   9.131 -0.3209  0.0820  0.2302
 1298ERGO   ROH14397  16.504  16.235  10.251  0.2739 -0.0028 -0.2125
 1298ERGO    R114398  16.434  16.157   9.988  0.1338 -0.0262 -0.1699
 1298ERGO    R214399  16.546  16.273   9.764  0.0027 -0.0331 -0.2427
 1298ERGO    R314400  16.606  16.016   9.699 -0.0138 -0.0331 -0.2545
 1298ERGO    R414401  16.527  16.140   9.445 -0.0155 -0.0234 -0.2451
 1298ERGO    R514402  16.444  15.958   9.532 -0.0211 -0.0201 -0.2495
 1298ERGO    C114403  16.572  15.821   9.200 -0.0418 -0.0180 -0.2576
 1298ERGO    C214404  16.476  15.558   8.979 -0.2348 -0.2395  0.4284
 1299ERGO   ROH14405  16.143   9.867   9.684 -0.0200 -0.1118  0.0715
 1299ERGO    R114406  16.036   9.948   9.434 -0.0571 -0.1370  0.0792
 1299ERGO    R214407  16.175  10.111   9.258 -0.1205 -0.0780  0.0836
 1299ERGO    R314408  16.124   9.909   9.084 -0.0542 -0.0870  0.0742
 1299ERGO    R414409  16.237  10.123   8.919  0.0247 -0.1020  0.1084
 1299ERGO    R514410  16.049  10.019   8.885  0.0344 -0.0964  0.0346
 1299ERGO    C114411  16.226   9.941   8.557  0.1717 -0.1243  0.1142
 1299ERGO    C214412  16.177   9.963   8.299 -0.0599 -0.0533 -0.0797
 1300ERGO   ROH14413  13.739   6.334   6.225 -0.0004  0.1573 -0.0061
 1300ERGO    R114414  13.658   6.273   6.489 -0.0394  0.0635 -0.0403
 1300ERGO    R214415  13.792   6.090   6.647  0.0070  0.1015 -0.0466
 1300ERGO    R314416  13.803   6.298   6.822 -0.1424  0.0659  0.0072
 1300ERGO    R414417  13.970   6.089   6.943 -0.1133  0.0795  0.0268
 1300ERGO    R514418  13.803   6.193   7.038 -0.1985  0.0025 -0.0157
 1300ERGO    C114419  14.083   6.284   7.281 -0.3238  0.0334  0.1199
 1300ERGO    C214420  14.215   6.340   7.573 -0.0704 -0.2186 -0.0213
 1301ERGO   ROH14421  10.948  18.070  10.334 -0.0958 -0.1176 -0.0954
 1301ERGO    R114422  10.862  18.147  10.076 -0.0746 -0.2707 -0.1482
 1301ERGO    R214423  10.963  18.367   9.944 -0.2295 -0.2164 -0.1722
 1301ERGO    R314424  11.013  18.187   9.747  0.0055 -0.2268 -0.1072
 1301ERGO    R414425  11.097  18.445   9.635 -0.2547 -0.1601 -0.1696
 1301ERGO    R514426  10.958  18.303   9.545 -0.0867 -0.3448 -0.1541
 1301ERGO    C114427  11.221  18.320   9.270 -0.0487 -0.1372 -0.1072
 1301ERGO    C214428  11.304  18.575   9.057 -0.0952 -0.1278 -0.2865
 1302ERGO   ROH14429   1.357  11.126   7.093 -0.3434 -0.1435 -0.0630
 1302ERGO    R114430   1.533  11.116   7.314 -0.2243 -0.0890 -0.1549
 1302ERGO    R214431   1.535  11.310   7.511 -0.2189 -0.1185 -0.1316
 1302ERGO    R314432   1.502  11.097   7.676 -0.0258 -0.1573 -0.1387
 1302ERGO    R414433   1.627  11.302   7.844 -0.2719 -0.0118 -0.1137
 1302ERGO    R514434   1.697  11.097   7.815 -0.0464  0.0551 -0.1012
 1302ERGO    C114435   1.649  11.098   8.193 -0.1215  0.0138 -0.1098
 1302ERGO    C214436   1.443  11.038   8.527 -0.2800  0.2333 -0.1548
 1303ERGO   ROH14437   4.754  15.239   6.811 -0.1082 -0.0972 -0.1060
 1303ERGO    R114438   4.868  15.252   7.070 -0.0182 -0.0089 -0.1495
 1303ERGO    R214439   4.761  15.409   7.272  0.0455  0.0483 -0.1640
 1303ERGO    R314440   4.761  15.174   7.409  0.1061  0.0937 -0.0849
 1303ERGO    R414441   4.706  15.379   7.612 -0.1761  0.1363 -0.1901
 1303ERGO    R514442   4.863  15.228   7.619 -0.0752  0.2400 -0.0279
 1303ERGO    C114443   4.674  15.142   7.939 -0.2482  0.2302 -0.1311
 1303ERGO    C214444   4.825  15.112   8.289  0.3080 -0.0494 -0.2083
 1304ERGO   ROH14445  17.031   9.710   9.748 -0.1669  0.1785 -0.0286
 1304ERGO    R114446  17.021   9.600   9.487 -0.0415 -0.0113  0.0443
 1304ERGO    R214447  16.948   9.749   9.266 -0.1046 -0.2156 -0.0739
 1304ERGO    R314448  17.186   9.661   9.168 -0.0238 -0.1184  0.0322
 1304ERGO    R414449  17.031   9.737   8.931 -0.0071 -0.3180 -0.0470
 1304ERGO    R514450  17.128   9.545   8.967  0.0993 -0.2457  0.0674
 1304ERGO    C114451  17.303   9.648   8.644  0.1255 -0.2865  0.0683
 1304ERGO    C214452  17.267   9.574   8.298 -0.1675 -0.0123  0.3544
 1305ERGO   ROH14453  16.347  15.899   6.885 -0.0249 -0.1218 -0.1433
 1305ERGO    R114454  16.155  16.041   7.037 -0.0024 -0.1240 -0.1127
 1305ERGO    R214455  15.999  15.921   7.230  0.0185 -0.1293 -0.0993
 1305ERGO    R314456  16.100  16.118   7.388  0.0432 -0.1393 -0.1022
 1305ERGO    R414457  15.900  15.985   7.555 -0.1341  0.0311 -0.1758
 1305ERGO    R514458  15.911  16.198   7.512  0.0170  0.0115 -0.2367
 1305ERGO    C114459  15.937  16.207   7.892 -0.1999  0.1148 -0.2231
 1305ERGO    C214460  15.801  16.166   8.142 -0.3440 -0.0716  0.2882
 1306ERGO   ROH14461   6.739  13.477   6.802 -0.1244  0.2630  0.0823
 1306ERGO    R114462   6.607  13.423   7.046 -0.0572  0.1505  0.0942
 1306ERGO    R214463   6.702  13.239   7.229  0.0541  0.1478  0.0343
 1306ERGO    R314464   6.686  13.449   7.400 -0.0037  0.1016  0.0860
 1306ERGO    R414465   6.728  13.216   7.573  0.0376  0.0689  0.0306
 1306ERGO    R514466   6.568  13.363   7.590  0.0040  0.0285  0.0573
 1306ERGO    C114467   6.728  13.400   7.934 -0.0261 -0.0205  0.0769
 1306ERGO    C214468   6.710  13.462   8.251  0.2642 -0.0308  0.0709
 1307ERGO   ROH14469   5.793  16.535  10.136  0.1474 -0.4538 -0.0871
 1307ERGO    R114470   5.760  16.639   9.875  0.1232 -0.2579 -0.0077
 1307ERGO    R214471   5.972  16.676   9.702  0.0755 -0.3902 -0.0964
 1307ERGO    R314472   5.821  16.524   9.535 -0.1850 -0.1225 -0.1123
 1307ERGO    R414473   5.965  16.708   9.358  0.2458 -0.4384 -0.1053
 1307ERGO    R514474   5.750  16.676   9.364  0.1711 -0.0044 -0.1641
 1307ERGO    C114475   5.819  16.584   9.001  0.1005 -0.2151 -0.1255
 1307ERGO    C214476   5.899  16.647   8.775  0.2935  0.2035  0.0354
 1308ERGO   ROH14477   7.334   9.239   6.637 -0.2470 -0.2056  0.1036
 1308ERGO    R114478   7.458   9.387   6.844 -0.1479 -0.1479  0.0046
 1308ERGO    R214479   7.315   9.529   7.032 -0.0544  0.0746 -0.0855
 1308ERGO    R314480   7.461   9.381   7.208 -0.1500  0.0925  0.0090
 1308ERGO    R414481   7.352   9.603   7.368 -0.0405  0.2382 -0.1227
 1308ERGO    R514482   7.562   9.544   7.352 -0.0731  0.1152 -0.0728
 1308ERGO    C114483   7.510   9.507   7.729 -0.1222  0.3505 -0.0556
 1308ERGO    C214484   7.278   9.685   7.991  0.1493  0.0588 -0.1569
 1309ERGO   ROH14485   3.717   7.192   9.514  0.1917  0.0501  0.0482
 1309ERGO    R114486   3.665   7.220   9.237  0.0641 -0.0059  0.0668
 1309ERGO    R214487   3.709   7.456   9.101  0.0314 -0.0467 -0.0054
 1309ERGO    R314488   3.857   7.297   8.938 -0.0692 -0.1007 -0.0465
 1309ERGO    R414489   3.853   7.559   8.804  0.3354  0.0317  0.1638
 1309ERGO    R514490   3.797   7.367   8.717  0.1427  0.1658 -0.0305
 1309ERGO    C114491   4.076   7.469   8.478  0.4181  0.0265  0.2237
 1309ERGO    C214492   4.104   7.763   8.396 -0.0872 -0.2921  0.2001
 1310ERGO   ROH14493   8.298  10.520   9.542 -0.1212 -0.0224  0.0804
 1310ERGO    R114494   8.130  10.618   9.336  0.0726  0.0034 -0.0684
 1310ERGO    R214495   8.225  10.683   9.085  0.2531 -0.3098 -0.0874
 1310ERGO    R314496   8.032  10.510   9.002  0.0881 -0.1598 -0.0214
 1310ERGO    R414497   8.140  10.624   8.755  0.0342 -0.1825 -0.0559
 1310ERGO    R514498   7.931  10.619   8.814  0.0613 -0.0500  0.0557
 1310ERGO    C114499   7.910  10.428   8.485 -0.2482  0.0323  0.0246
 1310ERGO    C214500   7.816  10.360   8.196 -0.1565 -0.0747 -0.0511
 1311ERGO   ROH14501  13.939  14.033  10.411  0.1015  0.1673 -0.0583
 1311ERGO    R114502  13.883  13.988  10.137 -0.0004  0.1631 -0.0373
 1311ERGO    R214503  13.702  13.797  10.051  0.0933  0.0436  0.0266
 1311ERGO    R314504  13.591  14.008   9.921 -0.1227 -0.0175  0.1079
 1311ERGO    R414505  13.677  13.825   9.708  0.0401  0.1401  0.0380
 1311ERGO    R514506  13.728  14.037   9.726 -0.1644  0.1848  0.1068
 1311ERGO    C114507  13.558  14.040   9.385 -0.1937  0.1389  0.1210
 1311ERGO    C214508  13.284  14.060   9.092  0.2484  0.3822  0.2981
 1312ERGO   ROH14509   0.399  14.505  10.441  0.0297  0.1866 -0.0003
 1312ERGO    R114510   0.343  14.307  10.247  0.1835  0.1290  0.0154
 1312ERGO    R214511   0.106  14.298  10.106  0.1179 -0.1682  0.1463
 1312ERGO    R314512   0.272  14.299   9.890  0.0009  0.0623  0.0512
 1312ERGO    R414513   0.005  14.253   9.779 -0.0453 -0.0086  0.1717
 1312ERGO    R514514   0.182  14.130   9.746  0.0080  0.1042 -0.0080
 1312ERGO    C114515   0.101  14.227   9.386 -0.2502  0.3008  0.0972
 1312ERGO    C214516  -0.022  14.164   9.080  0.1655 -0.0563 -0.0397
 1313ERGO   ROH14517   7.311  10.142   9.839 -0.1855 -0.1500  0.0020
 1313ERGO    R114518   7.317  10.199   9.562 -0.1588 -0.0572  0.0211
 1313ERGO    R214519   7.393  10.012   9.372 -0.0980  0.0183 -0.0321
 1313ERGO    R314520   7.152  10.074   9.262 -0.0955  0.0099 -0.0415
 1313ERGO    R414521   7.276   9.891   9.071 -0.0083  0.1626 -0.1258
 1313ERGO    R514522   7.196  10.088   9.028 -0.0587  0.1616 -0.0242
 1313ERGO    C114523   6.982   9.878   8.792  0.0463  0.2387 -0.1892
 1313ERGO    C214524   6.936   9.782   8.505  0.1056 -0.1047 -0.3492
 1314ERGO   ROH14525  10.955   4.723   6.717 -0.0634  0.0641  0.0944
 1314ERGO    R114526  10.974   4.734   6.999  0.0869 -0.0952  0.0913
 1314ERGO    R214527  11.186   4.856   7.129  0.0476  0.0202  0.0431
 1314ERGO    R314528  10.988   4.994   7.254 -0.0125 -0.2403  0.2481
 1314ERGO    R414529  11.216   5.008   7.438  0.1662  0.0416  0.0221
 1314ERGO    R514530  11.014   4.940   7.485  0.2939 -0.2239  0.2237
 1314ERGO    C114531  11.047   5.226   7.735  0.1788 -0.1906  0.2024
 1314ERGO    C214532  11.137   5.493   7.965 -0.0046 -0.3357  0.2862
 1315ERGO   ROH14533  11.991  17.300   7.191  0.0818  0.1439  0.0712
 1315ERGO    R114534  12.059  17.171   7.434  0.0974  0.1907  0.0924
 1315ERGO    R214535  12.157  17.309   7.653 -0.0562  0.2601  0.1229
 1315ERGO    R314536  11.950  17.187   7.781 -0.0155  0.1237  0.0598
 1315ERGO    R414537  12.140  17.252   7.994 -0.0815  0.1500  0.1032
 1315ERGO    R514538  12.054  17.057   7.952  0.0187  0.1234  0.0352
 1315ERGO    C114539  11.936  17.105   8.312 -0.0580 -0.0421  0.0325
 1315ERGO    C214540  11.680  16.991   8.610  0.1223 -0.3271  0.1996
 1316ERGO   ROH14541   1.151  13.954  10.102  0.0806  0.0746  0.1547
 1316ERGO    R114542   1.172  14.219  10.006  0.1894  0.0631  0.1441
 1316ERGO    R214543   1.354  14.292   9.811  0.1014 -0.0559  0.0119
 1316ERGO    R314544   1.133  14.388   9.686  0.0719  0.0924  0.1740
 1316ERGO    R414545   1.358  14.520   9.551  0.0879 -0.3041 -0.2096
 1316ERGO    R514546   1.184  14.618   9.641  0.3041 -0.0078 -0.1002
 1316ERGO    C114547   1.152  14.743   9.282  0.0523 -0.3095 -0.1866
 1316ERGO    C214548   1.336  14.814   8.930 -0.2605 -0.0056  0.0287
 1317ERGO   ROH14549   5.414  12.474   9.825 -0.1391 -0.2737  0.0849
 1317ERGO    R114550   5.148  12.492   9.728 -0.1101 -0.2285  0.0134
 1317ERGO    R214551   5.080  12.647   9.509 -0.0740  0.0076  0.1645
 1317ERGO    R314552   4.974  12.414   9.418  0.0171  0.0840 -0.1397
 1317ERGO    R414553   4.760  12.611   9.383 -0.0217  0.0586  0.0152
 1317ERGO    R514554   4.746  12.421   9.488 -0.0062 -0.0632 -0.2105
 1317ERGO    C114555   4.475  12.371   9.225  0.0942  0.1600 -0.3574
 1317ERGO    C214556   4.218  12.218   9.035 -0.1633  0.2681 -0.3433
 1318ERGO   ROH14557  16.579   4.209   9.136 -0.2915 -0.2064  0.0068
 1318ERGO    R114558  16.403   4.223   8.915 -0.1560 -0.1260 -0.0971
 1318ERGO    R214559  16.484   4.310   8.666  0.0013 -0.0486 -0.0204
 1318ERGO    R314560  16.382   4.072   8.584  0.0387 -0.0178 -0.1602
 1318ERGO    R414561  16.440   4.217   8.336  0.0948  0.1008 -0.0763
 1318ERGO    R514562  16.249   4.127   8.392  0.0864  0.0616 -0.1700
 1318ERGO    C114563  16.317   3.939   8.067  0.1843  0.2166 -0.2402
 1318ERGO    C214564  16.319   3.911   7.740  0.0177 -0.2918  0.2159
 1319ERGO   ROH14565  11.948   4.297   9.865  0.1000 -0.1326  0.0668
 1319ERGO    R114566  12.166   4.372   9.700  0.1664 -0.1027  0.1670
 1319ERGO    R214567  12.426   4.294   9.752  0.1246 -0.2342  0.1770
 1319ERGO    R314568  12.414   4.200   9.497  0.1501 -0.0603  0.1100
 1319ERGO    R414569  12.696   4.267   9.538  0.1754 -0.2290  0.2400
 1319ERGO    R514570  12.569   4.336   9.376  0.2565 -0.0559  0.2461
 1319ERGO    C114571  12.843   4.163   9.175  0.2289 -0.0628  0.2140
 1319ERGO    C214572  13.045   4.180   8.822  0.0592  0.2839  0.0362
 1320ERGO   ROH14573   4.673   4.716   6.697 -0.2205  0.1883 -0.0889
 1320ERGO    R114574   4.811   4.718   6.945 -0.3891 -0.0958  0.0109
 1320ERGO    R214575   4.957   4.935   7.032 -0.0183 -0.3807  0.1208
 1320ERGO    R314576   4.799   4.911   7.253 -0.2287 -0.0823  0.0098
 1320ERGO    R414577   5.031   5.066   7.343 -0.0086 -0.4801  0.1611
 1320ERGO    R514578   4.954   4.883   7.434 -0.4030 -0.3424  0.1266
 1320ERGO    C114579   4.926   5.120   7.731 -0.2004 -0.2580  0.0805
 1320ERGO    C214580   4.798   5.296   8.012 -0.2785 -0.3724  0.3230
 1321ERGO   ROH14581  14.905  13.752   6.952  0.1030  0.0706  0.0709
 1321ERGO    R114582  14.859  13.901   7.188  0.1731  0.0900  0.0732
 1321ERGO    R214583  14.712  13.803   7.401  0.0348  0.1944  0.0318
 1321ERGO    R314584  14.935  13.867   7.542  0.0590 -0.0097  0.0875
 1321ERGO    R414585  14.734  13.803   7.745 -0.0341  0.1475  0.0361
 1321ERGO    R514586  14.853  13.985   7.733  0.1238  0.0441  0.0784
 1321ERGO    C114587  14.957  13.863   8.079 -0.0517 -0.0712  0.0910
 1321ERGO    C214588  14.988  13.848   8.374 -0.1389 -0.2746 -0.0707
 1322ERGO   ROH14589   8.881   4.364   6.673  0.0460  0.0912  0.4336
 1322ERGO    R114590   8.627   4.377   6.550  0.1749 -0.0799  0.1381
 1322ERGO    R214591   8.460   4.158   6.529  0.1871 -0.1097  0.2878
 1322ERGO    R314592   8.281   4.323   6.650  0.0650  0.0866 -0.1443
 1322ERGO    R414593   8.130   4.078   6.593  0.1894 -0.0984  0.3110
 1322ERGO    R514594   8.075   4.281   6.535  0.1334 -0.2385 -0.1513
 1322ERGO    C114595   7.770   4.187   6.743  0.0763  0.0924 -0.0813
 1322ERGO    C214596   7.588   3.873   6.740  0.1917 -0.0097 -0.1202
 1323ERGO   ROH14597  14.976  12.620   6.948 -0.2824 -0.0647 -0.0665
 1323ERGO    R114598  14.843  12.553   7.188 -0.2011  0.0394  0.0074
 1323ERGO    R214599  14.916  12.335   7.342 -0.1879  0.0757  0.0426
 1323ERGO    R314600  14.932  12.522   7.540 -0.0709  0.1298 -0.0152
 1323ERGO    R414601  14.836  12.279   7.674  0.0030  0.1570  0.1053
 1323ERGO    R514602  14.742  12.476   7.680  0.0051  0.1637  0.1068
 1323ERGO    C114603  14.804  12.421   8.052  0.2240  0.2554  0.0875
 1323ERGO    C214604  15.043  12.356   8.395  0.2106  0.2477 -0.0582
 1324ERGO   ROH14605   3.372   0.094   6.582  0.1770  0.0266  0.0710
 1324ERGO    R114606   3.363   0.218   6.836 -0.2039  0.0712  0.0426
 1324ERGO    R214607   3.135   0.223   6.992 -0.2581 -0.5213  0.0040
 1324ERGO    R314608   3.300   0.114   7.180  0.0261 -0.0338  0.0548
 1324ERGO    R414609   3.088   0.246   7.334 -0.2792 -0.4407 -0.0039
 1324ERGO    R514610   3.303   0.275   7.357 -0.3358  0.0812 -0.0361
 1324ERGO    C114611   3.215   0.157   7.709 -0.0247  0.0638  0.0393
 1324ERGO    C214612   3.158   0.078   8.074  0.0287  0.1617  0.0542
 1325ERGO   ROH14613  10.890   0.487   7.212  0.1734  0.0196  0.1000
 1325ERGO    R114614  10.874   0.240   7.350  0.0810 -0.0078  0.0415
 1325ERGO    R214615  11.092   0.073   7.379  0.0649 -0.0085  0.1628
 1325ERGO    R314616  11.030   0.091   7.643 -0.1227 -0.0617  0.1239
 1325ERGO    R414617  11.217  -0.134   7.626  0.0001  0.0311  0.2292
 1325ERGO    R514618  11.019  -0.137   7.717 -0.0618 -0.0738  0.0959
 1325ERGO    C114619  11.232  -0.237   8.017 -0.2138  0.0042  0.2313
 1325ERGO    C214620  11.544  -0.280   8.129 -0.1123 -0.1772 -0.0149
 1326ERGO   ROH14621  15.830   7.907   9.608 -0.0567  0.0402  0.0172
 1326ERGO    R114622  15.930   7.795   9.368  0.0124  0.1601 -0.0114
 1326ERGO    R214623  15.805   7.585   9.237  0.2022  0.0320 -0.0016
 1326ERGO    R314624  15.813   7.756   9.026 -0.0208  0.0612  0.0129
 1326ERGO    R414625  15.682   7.517   8.921  0.2204 -0.0587  0.0111
 1326ERGO    R514626  15.855   7.617   8.837  0.0936  0.1338 -0.0091
 1326ERGO    C114627  15.618   7.638   8.539  0.0215 -0.0840  0.0320
 1326ERGO    C214628  15.496   7.558   8.228 -0.0716  0.0623 -0.0170
 1327ERGO   ROH14629  12.030  11.027   6.475 -0.0138  0.1073  0.0833
 1327ERGO    R114630  12.062  10.838   6.684 -0.1602  0.0319  0.0384
 1327ERGO    R214631  12.264  10.857   6.872 -0.1084 -0.2029  0.0051
 1327ERGO    R314632  12.057  10.844   7.048 -0.0908 -0.0396  0.0416
 1327ERGO    R414633  12.294  10.874   7.216 -0.0333 -0.1835 -0.0018
 1327ERGO    R514634  12.143  10.719   7.232 -0.1417 -0.0807  0.0413
 1327ERGO    C114635  12.118  10.871   7.581  0.0271 -0.0188  0.0284
 1327ERGO    C214636  12.104  11.066   7.916  0.1500  0.0849 -0.0435
 1328ERGO   ROH14637   2.316   7.655   6.876  0.0926  0.0691  0.0946
 1328ERGO    R114638   2.236   7.675   7.146  0.0091  0.0052  0.0750
 1328ERGO    R214639   2.341   7.515   7.345 -0.0396 -0.0290  0.0722
 1328ERGO    R314640   2.395   7.754   7.464 -0.0932 -0.0509  0.1411
 1328ERGO    R414641   2.334   7.572   7.686 -0.1049 -0.1184  0.0860
 1328ERGO    R514642   2.240   7.765   7.647 -0.1266 -0.1205  0.1188
 1328ERGO    C114643   2.379   7.829   7.996 -0.1934 -0.1909  0.1586
 1328ERGO    C214644   2.628   7.941   8.250 -0.3622  0.1085  0.0117
 1329ERGO   ROH14645  15.800   9.297   6.678 -0.0699  0.0997  0.1504
 1329ERGO    R114646  15.898   9.140   6.892 -0.0937 -0.0141  0.0790
 1329ERGO    R214647  16.106   9.222   7.054  0.0088 -0.1782  0.0363
 1329ERGO    R314648  15.928   9.174   7.253  0.0415 -0.1233  0.0785
 1329ERGO    R414649  16.189   9.120   7.374  0.0502 -0.2306  0.0086
 1329ERGO    R514650  16.018   8.986   7.370 -0.0013 -0.1645  0.0432
 1329ERGO    C114651  16.070   9.016   7.747  0.1049 -0.2096  0.0321
 1329ERGO    C214652  16.190   8.940   8.079 -0.0728 -0.1012 -0.2769
 1330ERGO   ROH14653  10.168  15.998  10.132  0.1249 -0.3419 -0.0791
 1330ERGO    R114654  10.111  16.073   9.865  0.1705 -0.0384 -0.0067
 1330ERGO    R214655  10.304  16.083   9.668  0.1496 -0.1241 -0.0338
 1330ERGO    R314656  10.132  15.919   9.536 -0.0937  0.2076 -0.1431
 1330ERGO    R414657  10.248  16.088   9.327  0.5464 -0.1648 -0.1047
 1330ERGO    R514658  10.036  16.058   9.367  0.4190  0.3530 -0.3286
 1330ERGO    C114659  10.054  15.938   9.005  0.5489  0.1231 -0.2487
 1330ERGO    C214660   9.890  16.033   8.589 -0.0874 -0.0363 -0.2618
 1331ERGO   ROH14661  17.227   5.225   8.980 -0.0400 -0.4351  0.0751
 1331ERGO    R114662  17.243   5.238   8.697 -0.0900 -0.2111  0.0803
 1331ERGO    R214663  17.483   5.223   8.561 -0.1077 -0.0411  0.0268
 1331ERGO    R314664  17.358   5.021   8.429 -0.0755  0.0268 -0.1090
 1331ERGO    R414665  17.603   5.069   8.276 -0.0512  0.1231 -0.0388
 1331ERGO    R514666  17.400   5.066   8.198 -0.0366  0.1578 -0.0768
 1331ERGO    C114667  17.557   4.790   7.986  0.0118  0.2826 -0.2046
 1331ERGO    C214668  17.573   4.759   7.615  0.1288  0.1397 -0.2021
 1332ERGO   ROH14669  12.552   5.390   6.694  0.1829  0.0979 -0.0452
 1332ERGO    R114670  12.533   5.608   6.873  0.0295  0.0058  0.0546
 1332ERGO    R214671  12.334   5.627   7.065 -0.0361 -0.1789  0.0143
 1332ERGO    R314672  12.545   5.656   7.234 -0.0923 -0.1626  0.0805
 1332ERGO    R414673  12.314   5.749   7.388 -0.1309 -0.1458 -0.0046
 1332ERGO    R514674  12.499   5.858   7.353 -0.1235 -0.1542  0.0455
 1332ERGO    C114675  12.500   5.847   7.734 -0.2390 -0.1113  0.0465
 1332ERGO    C214676  12.372   5.644   8.048 -0.1435 -0.0836 -0.0873
 1333ERGO   ROH14677   9.562   2.700   7.101  0.1500 -0.5075 -0.1276
 1333ERGO    R114678   9.572   2.509   7.309  0.1552 -0.2158  0.1503
 1333ERGO    R214679   9.586   2.579   7.576 -0.1771  0.1706  0.0803
 1333ERGO    R314680   9.367   2.419   7.596 -0.0313 -0.0322  0.0756
 1333ERGO    R414681   9.475   2.433   7.869 -0.1499  0.2024  0.1056
 1333ERGO    R514682   9.430   2.252   7.756  0.0675  0.1058  0.1781
 1333ERGO    C114683   9.205   2.198   8.059  0.0027  0.0306  0.1159
 1333ERGO    C214684   9.282   2.294   8.464 -0.2942 -0.1539 -0.1035
 1334ERGO   ROH14685   2.814  17.112   7.041 -0.1670  0.0682  0.2176
 1334ERGO    R114686   2.903  17.181   7.301  0.0918  0.1255  0.1180
 1334ERGO    R214687   2.886  17.006   7.516 -0.1199  0.3260  0.2709
 1334ERGO    R314688   3.152  17.058   7.537 -0.0054 -0.1373  0.0869
 1334ERGO    R414689   3.084  16.917   7.784 -0.1717  0.3030  0.3012
 1334ERGO    R514690   3.184  17.110   7.768  0.1845  0.1048  0.0097
 1334ERGO    C114691   3.449  16.914   7.961 -0.0944 -0.1455  0.1461
 1334ERGO    C214692   3.614  16.836   8.119 -0.2458 -0.0897  0.1107
 1335ERGO   ROH14693  12.935  15.318   7.175 -0.1048  0.0551  0.0914
 1335ERGO    R114694  12.906  15.281   7.454 -0.1311 -0.0786  0.0726
 1335ERGO    R214695  12.855  15.491   7.628 -0.0462 -0.1436  0.1839
 1335ERGO    R314696  12.645  15.336   7.702 -0.1173 -0.0920  0.0884
 1335ERGO    R414697  12.686  15.514   7.929 -0.0299 -0.2672  0.2024
 1335ERGO    R514698  12.676  15.298   7.935 -0.1327 -0.2633  0.0601
 1335ERGO    C114699  12.390  15.382   8.173 -0.0873 -0.2908  0.1235
 1335ERGO    C214700  12.299  15.398   8.547 -0.0355  0.2405 -0.0646
 1336ERGO   ROH14701   6.484   8.013   6.820  0.1072 -0.1166  0.0889
 1336ERGO    R114702   6.513   7.961   7.097  0.1681  0.0587  0.1174
 1336ERGO    R214703   6.530   8.163   7.285  0.0040  0.1801  0.0098
 1336ERGO    R314704   6.323   8.029   7.400  0.1241  0.0609  0.0884
 1336ERGO    R414705   6.479   8.133   7.626  0.1339  0.1669  0.0279
 1336ERGO    R514706   6.419   7.925   7.593  0.2495  0.1307  0.0618
 1336ERGO    C114707   6.255   7.989   7.932  0.3223  0.0472  0.1123
 1336ERGO    C214708   6.014   8.059   8.276 -0.2592  0.0778 -0.5335
 1337ERGO   ROH14709  17.813   7.431   6.102 -0.2290 -0.1146 -0.1583
 1337ERGO    R114710  17.801   7.346   6.371 -0.2690 -0.0488 -0.1401
 1337ERGO    R214711  17.594   7.193   6.470 -0.1651 -0.2153 -0.1929
 1337ERGO    R314712  17.795   7.028   6.549 -0.0459 -0.0054 -0.0476
 1337ERGO    R414713  17.616   7.047   6.782 -0.2993 -0.2500 -0.1983
 1337ERGO    R514714  17.832   7.087   6.779 -0.3284 -0.0026  0.0063
 1337ERGO    C114715  17.819   6.807   7.039 -0.2655 -0.0731 -0.0652
 1337ERGO    C214716  17.744   6.504   7.260 -0.0505 -0.0526 -0.0575
 1338ERGO   ROH14717   4.058   9.212   6.473 -0.0083 -0.2416  0.1059
 1338ERGO    R114718   4.202   9.096   6.687  0.1683 -0.1794  0.0231
 1338ERGO    R214719   4.420   9.220   6.804  0.0004  0.0612  0.0968
 1338ERGO    R314720   4.278   9.183   7.032  0.0540 -0.2967  0.0774
 1338ERGO    R414721   4.537   9.286   7.122 -0.1759  0.2621  0.1219
 1338ERGO    R514722   4.439   9.104   7.191  0.2165  0.0272  0.0777
 1338ERGO    C114723   4.472   9.290   7.522 -0.2281  0.0431  0.1182
 1338ERGO    C214724   4.639   9.445   7.843 -0.4303 -0.1196  0.0354
 1339ERGO   ROH14725   1.119  15.751   9.786  0.0662 -0.2142  0.1594
 1339ERGO    R114726   1.210  15.659   9.534  0.0221 -0.1221  0.1100
 1339ERGO    R214727   1.221  15.390   9.470 -0.0826 -0.0911 -0.0243
 1339ERGO    R314728   1.071  15.468   9.257 -0.0582  0.0697  0.0149
 1339ERGO    R414729   1.148  15.192   9.196 -0.1377  0.0709 -0.1292
 1339ERGO    R514730   1.177  15.366   9.069 -0.0830  0.1347 -0.0386
 1339ERGO    C114731   0.965  15.150   8.837 -0.1470  0.3162 -0.1533
 1339ERGO    C214732   1.085  14.969   8.508  0.2491 -0.1322  0.1197
 1340ERGO   ROH14733  10.312  14.584   9.931 -0.0519  0.1176  0.0282
 1340ERGO    R114734  10.426  14.389   9.760 -0.2648  0.0747 -0.0681
 1340ERGO    R214735  10.368  14.375   9.491  0.0048  0.5150 -0.1591
 1340ERGO    R314736  10.639  14.387   9.465  0.0724 -0.0129  0.1708
 1340ERGO    R414737  10.545  14.275   9.211  0.1153  0.5358 -0.0974
 1340ERGO    R514738  10.695  14.189   9.343 -0.2064  0.0307 -0.0363
 1340ERGO    C114739  10.902  14.227   9.024  0.2433  0.0525  0.2482
 1340ERGO    C214740  11.178  13.970   8.765 -0.1871  0.3475 -0.1635
 1341ERGO   ROH14741  16.113   3.144   6.576  0.2671  0.0442 -0.1580
 1341ERGO    R114742  16.197   3.398   6.671  0.0511  0.0795 -0.0621
 1341ERGO    R214743  16.028   3.616   6.682 -0.1217 -0.0652  0.0063
 1341ERGO    R314744  16.106   3.622   6.942 -0.1471 -0.0848  0.0081
 1341ERGO    R414745  16.021   3.896   6.885 -0.3036 -0.1188  0.0806
 1341ERGO    R514746  16.212   3.835   6.968 -0.2772 -0.0271  0.0749
 1341ERGO    C114747  16.090   4.065   7.246 -0.4335 -0.1684  0.1256
 1341ERGO    C214748  15.896   4.148   7.421 -0.0905  0.0569 -0.1768
 1342ERGO   ROH14749   7.852   2.476   9.994  0.1077  0.1545 -0.0744
 1342ERGO    R114750   7.838   2.620   9.750  0.1689  0.1264 -0.0996
 1342ERGO    R214751   8.027   2.593   9.551  0.2045  0.0666 -0.0832
 1342ERGO    R314752   7.809   2.538   9.397  0.2108  0.0730 -0.0861
 1342ERGO    R414753   8.019   2.612   9.206  0.1395  0.2356 -0.0693
 1342ERGO    R514754   7.820   2.700   9.220  0.1248  0.1535 -0.0032
 1342ERGO    C114755   7.811   2.573   8.860  0.1075  0.3399 -0.0639
 1342ERGO    C214756   7.668   2.471   8.621  0.5036 -0.0920 -0.1040
 1343W        W14757  11.465   0.530   2.633  0.1750 -0.0420 -0.1331
 1344W        W14758  17.408  15.589  11.161  0.1918 -0.1512  0.1091
 1345W        W14759  13.391  14.131   5.935 -0.0400  0.0249 -0.2090
 1346W        W14760   8.164   9.845   1.736  0.4074  0.0439 -0.0721
 1347W        W14761  12.593   9.878  11.177 -0.2803 -0.1077 -0.4051
 1348W        W14762  16.189   6.724  13.878 -0.0898 -0.0901 -0.1453
 1349W        W14763  12.102   6.235   0.911  0.2889  0.0854  0.3778
 1350W        W14764  11.530  18.237  14.940  0.1638 -0.1177  0.2749
 1351W        W14765   2.025   1.021  15.220 -0.1612  0.2072 -0.1218
 1352W        W14766  18.187  17.785   5.620 -0.1416 -0.0449  0.1346
 1353W        W14767  15.799  13.948   0.423 -0.1230 -0.2309 -0.3374
 1354W        W14768  14.298   8.161  12.266  0.2432 -0.0803 -0.1226
 1355W        W14769  12.455   2.463  11.565 -0.0188 -0.0697 -0.0021
 1356W        W14770  11.199   6.580  12.503  0.2094  0.4362  0.2406
 1357W        W14771   8.090   5.498  13.061 -0.1127 -0.1606 -0.3596
 1358W        W14772  14.086  17.737   4.092 -0.1039 -0.3968  0.0448
 1359W        W14773   7.962  12.893   2.650 -0.2178  0.4608 -0.0620
 1360W        W14774  16.486   7.308  12.090 -0.1438  0.1709  0.0466
 1361W        W14775   4.763  10.036  14.352 -0.1076  0.1530 -0.0021
 1362W        W14776   6.445   9.827   1.136  0.0774  0.0622 -0.3341
 1363W        W14777  16.321   8.434   3.759 -0.0952  0.0896 -0.3030
 1364W        W14778  15.898  15.062   2.251  0.3328  0.1676  0.2454
 1365W        W14779  14.717   2.877  16.492 -0.0909  0.1382  0.2140
 1366W        W14780   2.907   9.811   1.438 -0.0377  0.0615  0.1345
 1367W        W14781   0.227  10.318  15.908  0.0439 -0.0762 -0.0641
 1368W        W14782  14.521   9.122  15.201  0.5119 -0.0650 -0.0660
 1369W        W14783  13.876   0.159  14.061 -0.1244  0.0184  0.0038
 1370W        W14784  17.095   3.354   4.213 -0.1063  0.0581 -0.1664
 1371W        W14785   7.743  14.229   2.670 -0.2773  0.0493  0.2311
 1372W        W14786  10.167   4.934  11.338  0.1096 -0.1572  0.0729
 1373W        W14787   4.903   1.791  15.722 -0.0124  0.1083 -0.0049
 1374W        W14788   5.779   4.068  14.610 -0.2650 -0.3076  0.0427
 1375W        W14789   2.152  11.560   3.330 -0.1575  0.2063 -0.3226
 1376W        W14790   3.900  15.751  16.149  0.1175  0.1522  0.0311
 1377W        W14791  17.434  12.525  13.281  0.0127 -0.0366  0.0047
 1378W        W14792   0.691   9.969  14.842 -0.0871  0.1034 -0.0995
 1379W        W14793   5.746   6.075   3.119  0.1638  0.3765  0.0807
 1380W        W14794   6.928   9.543  11.587  0.1436 -0.1520 -0.0457
 1381W        W14795   6.642  15.546   3.979  0.2174 -0.1802 -0.0509
 1382W        W14796   1.411   3.037   0.029 -0.2379 -0.1467 -0.1459
 1383W        W14797   0.494   5.427   2.014  0.2324  0.1101 -0.0441
 1384W        W14798  11.820   6.501  12.952 -0.0163  0.0864  0.1512
 1385W        W14799  17.562   1.776   5.525  0.0413  0.4089  0.2849
 1386W        W14800  12.952   2.004   1.682  0.2936 -0.2623 -0.0839
 1387W        W14801  15.242   5.599  13.631  0.1604  0.1290  0.0227
 1388W        W14802   2.143   2.392   3.580  0.1419 -0.1516 -0.2460
 1389W        W14803   6.543   6.931  12.587 -0.1076  0.2239  0.1546
 1390W        W14804   9.950   4.885  12.779  0.1947 -0.1434 -0.4014
 1391W        W14805  13.068  16.353   6.050 -0.2624 -0.1937 -0.0267
 1392W        W14806  14.068  16.875  15.059 -0.0211 -0.1849  0.0228
 1393W        W14807  14.979  12.472   2.237 -0.2363 -0.1148 -0.0543
 1394W        W14808  15.129   5.195   0.376  0.0477  0.0353 -0.1107
 1395W        W14809  11.090  14.960   0.630  0.0854  0.1064 -0.1410
 1396W        W14810  17.313   5.238  13.355 -0.2165 -0.0003  0.1107
 1397W        W14811  11.443   8.685  14.667  0.3622  0.1331  0.3564
 1398W        W14812   1.308   6.918   4.216  0.1176 -0.1523  0.2065
 1399W        W14813   1.786   3.223  16.207 -0.1403  0.0626 -0.1787
 1400W        W14814   1.398   9.875   0.263 -0.1612 -0.2129 -0.0067
 1401W        W14815   4.607   4.878   1.188  0.1502  0.0498  0.2559
 1402W        W14816  16.611   2.808  16.435 -0.0256  0.1014  0.2710
 1403W        W14817  14.819   5.738  13.272 -0.1567 -0.1130 -0.2153
 1404W        W14818  12.054   4.849   4.175 -0.1168 -0.1153 -0.2335
 1405W        W14819  14.144  12.802   5.397  0.0535  0.2358  0.2557
 1406W        W14820   1.359  18.005  11.906  0.0272 -0.0410  0.1052
 1407W        W14821   6.608  17.730  15.343  0.1452 -0.1528 -0.0919
 1408W        W14822  10.325   5.298   0.978 -0.1410 -0.0457 -0.1794
 1409W        W14823   6.326   0.167  15.742 -0.2730  0.0214  0.1791
 1410W        W14824   6.451  17.193  12.906  0.1794 -0.0573 -0.0932
 1411W        W14825   7.215  15.467   0.222 -0.3591  0.3326 -0.1118
 1412W        W14826   8.611  15.105  15.318 -0.1709  0.0966 -0.0410
 1413W        W14827   2.592  16.821   5.064  0.0900  0.0256  0.0649
 1414W        W14828   8.640  12.932  11.754  0.0183  0.0982  0.2107
 1415W        W14829   8.425  10.594   4.648  0.1887 -0.2706  0.2253
 1416W        W14830   7.654  16.768  12.065  0.1901 -0.1399 -0.2525
 1417W        W14831   0.565   3.912   0.401  0.1134 -0.1471  0.1020
 1418W        W14832   0.548  17.992   3.049  0.1232  0.0724  0.2396
 1419W        W14833  17.603  12.864  13.607 -0.1168 -0.0073 -0.2271
 1420W        W14834  16.335  10.144  10.797 -0.1394  0.2182  0.0865
 1421W        W14835  16.197  11.264  14.929 -0.0980 -0.2014 -0.2409
 1422W        W14836   1.347   1.936  10.717 -0.0569  0.2484  0.0366
 1423W        W14837   1.903  11.711   0.859  0.0006 -0.0980 -0.1268
 1424W        W14838   4.328   6.076   0.597  0.0112  0.2071  0.0995
 1425W        W14839  13.742  16.479   1.199  0.1396 -0.0832 -0.4408
 1426W        W14840   0.403  14.573  14.708 -0.1188 -0.1483 -0.0185
 1427W        W14841  13.481   1.893   5.439 -0.0484  0.1976  0.0840
 1428W        W14842  11.402  12.385  16.081  0.1625  0.1540  0.1105
 1429W        W14843  16.874  14.688  15.439  0.1514 -0.0709 -0.1098
 1430W        W14844   7.838   2.184  14.407  0.0423 -0.3537 -0.2546
 1431W        W14845  10.561  17.783  10.346 -0.0217 -0.2395  0.2174
 1432W        W14846   9.418   0.116  13.187  0.1937 -0.4084 -0.2046
 1433W        W14847  15.330  13.022  11.705 -0.1609  0.1418  0.0289
 1434W        W14848  15.709  10.437  12.153 -0.1763 -0.2600 -0.1246
 1435W        W14849   3.633  13.527   6.544 -0.1423 -0.0947  0.2021
 1436W        W14850  15.123   7.726  14.948  0.0761  0.0353 -0.2642
 1437W        W14851   9.895  12.197   2.038  0.4138 -0.0894 -0.3621
 1438W        W14852   5.243   4.048  14.656  0.1048  0.3007  0.2188
 1439W        W14853  15.283  15.447   2.492 -0.3965  0.1505 -0.0717
 1440W        W14854  13.297  15.216   6.244  0.3006  0.0804 -0.2229
 1441W        W14855  13.690  15.970   6.678  0.2237 -0.2220 -0.3296
 1442W        W14856   5.230  11.822   5.175 -0.2491  0.0501  0.4474
 1443W        W14857   0.700  10.548  14.738 -0.1058  0.0695  0.2865
 1444W        W14858   6.297  12.954   0.313 -0.2785  0.0402  0.3916
 1445W        W14859   9.536   6.387  13.252 -0.0666 -0.1730 -0.0206
 1446W        W14860   1.805   7.330   2.817  0.4149 -0.0138  0.0317
 1447W        W14861   1.837   0.060  16.365 -0.1543  0.0574 -0.2099
 1448W        W14862  13.676  17.083  16.349 -0.3374 -0.1897 -0.1636
 1449W        W14863   4.232  14.553  14.157 -0.1034 -0.0169 -0.0053
 1450W        W14864  14.204  18.047   3.661 -0.0165  0.1321  0.0288
 1451W        W14865   6.857   7.957   2.099 -0.0677 -0.0716  0.0998
 1452W        W14866   2.457   2.003   3.431 -0.4925  0.2046 -0.0784
 1453W        W14867   9.227  16.351  14.468 -0.0545 -0.2793  0.1781
 1454W        W14868  10.675   5.471   1.332 -0.0432  0.1794  0.0588
 1455W        W14869  13.659  13.056  15.329 -0.0081  0.0494 -0.1475
 1456W        W14870   5.963  10.822   1.350  0.1346 -0.1093 -0.0395
 1457W        W14871  12.206   3.093  12.256 -0.1291  0.1027  0.2539
 1458W        W14872   8.285   3.308  13.971 -0.2939  0.0484  0.2153
 1459W        W14873  10.627  16.748   2.336 -0.0186  0.1513 -0.1924
 1460W        W14874  13.578   4.688  15.624 -0.2605  0.2259 -0.3913
 1461W        W14875   8.785   5.019  11.788  0.0072 -0.0773 -0.1119
 1462W        W14876   8.794   6.960   2.338  0.3797  0.0564  0.0231
 1463W        W14877   9.550   1.054  12.930 -0.1396  0.2536 -0.1494
 1464W        W14878  16.560   9.176   3.232  0.0735  0.1040 -0.1853
 1465W        W14879  15.383  16.106  14.002 -0.1172 -0.3857  0.3219
 1466W        W14880   6.853  10.056  14.592  0.0922 -0.0924  0.0671
 1467W        W14881   9.066   4.194  10.832  0.3973  0.0719 -0.2236
 1468W        W14882  15.045  14.919   5.197  0.0570  0.0461  0.2409
 1469W        W14883  10.589   2.081   3.963  0.0559  0.0298 -0.1706
 1470W        W14884   4.352  14.802   4.526  0.0664  0.0148 -0.1864
 1471W        W14885   8.612   1.897   5.869  0.0744  0.1587 -0.2568
 1472W        W14886   9.023   6.268   2.824  0.2873  0.0241  0.1333
 1473W        W14887   6.721  16.396  14.844 -0.0777 -0.3808 -0.0306
 1474W        W14888  13.507  11.754   3.177  0.0557 -0.1939  0.1115
 1475W        W14889   5.350  14.961  12.388 -0.0273 -0.1195 -0.1097
 1476W        W14890   5.583   4.826  16.032  0.1276  0.0541 -0.2649
 1477W        W14891   7.467   2.373   3.615 -0.2541 -0.4068 -0.0363
 1478W        W14892  14.858   1.106  14.526 -0.0551  0.1452  0.0279
 1479W        W14893   2.248  14.683  13.732 -0.1520  0.0549 -0.3122
 1480W        W14894  12.497  16.171  15.859 -0.2410  0.0687  0.2241
 1481W        W14895   0.722   5.856  11.175  0.1738 -0.0385 -0.0844
 1482W        W14896  16.464  14.994  16.082  0.2114  0.3367 -0.2444
 1483W        W14897   8.510  17.820  11.132  0.0260  0.2046 -0.1209
 1484W        W14898  17.937   9.760   5.423  0.2513 -0.2963  0.1754
 1485W        W14899   5.375  15.673   1.645  0.0599 -0.2467 -0.0729
 1486W        W14900  14.971  12.500  12.706 -0.2551  0.2583  0.1443
 1487W        W14901  13.909   4.435   1.843 -0.2623  0.1164 -0.1078
 1488W        W14902  15.773  17.873  11.034  0.2510  0.2607  0.0883
 1489W        W14903  12.043  10.954   0.927  0.3938  0.3142  0.1749
 1490W        W14904   6.727  14.905   2.442 -0.1957  0.1414  0.2282
 1491W        W14905   7.412   8.412  13.638 -0.0178  0.1413 -0.2839
 1492W        W14906   3.734   1.477  12.312  0.1130 -0.0827  0.1782
 1493W        W14907  16.133   6.603  10.389 -0.1620 -0.1599  0.2123
 1494W        W14908  12.297  14.801  14.339  0.1509 -0.0652  0.1867
 1495W        W14909  17.225  16.355   4.982  0.0101 -0.2258 -0.0286
 1496W        W14910  17.476  16.265   2.635  0.3011  0.0287 -0.1122
 1497W        W14911  11.985  14.109   4.792  0.1828  0.1464 -0.0060
 1498W        W14912   2.334  13.616  12.540  0.0678  0.0644  0.2347
 1499W        W14913  14.699  16.492  10.580 -0.2451  0.1388 -0.0405
 1500W        W14914  11.741  10.651   4.275 -0.0286  0.1437 -0.1605
 1501W        W14915   1.433   4.661   3.827  0.0069  0.0168  0.0246
 1502W        W14916   1.223   2.815  11.367  0.1697 -0.2343  0.1350
 1503W        W14917   0.185   0.141   4.335  0.0059 -0.1573 -0.0897
 1504W        W14918  16.860  17.094   0.074 -0.2184 -0.2856 -0.1107
 1505W        W14919  10.751   0.087   3.200 -0.1609 -0.0722 -0.0264
 1506W        W14920   3.355  10.951  15.672  0.2893 -0.0230  0.0162
 1507W        W14921  16.211   4.214  12.638  0.1328  0.2958  0.2903
 1508W        W14922  18.233   9.326  12.812  0.2391  0.0731  0.1802
 1509W        W14923   6.239  15.018   4.099  0.0314  0.1049  0.0073
 1510W        W14924  14.238   0.600   2.572  0.0786 -0.4106 -0.0935
 1511W        W14925  15.554   8.006  10.455  0.1336  0.1284  0.0875
 1512W        W14926  12.322   4.218  10.740  0.0451 -0.4103  0.5322
 1513W        W14927  12.970   1.932   1.164  0.1671 -0.1059  0.2174
 1514W        W14928   9.247   2.534  14.331  0.2119  0.0891  0.0053
 1515W        W14929   3.613   5.921  15.769  0.2658 -0.1223 -0.1724
 1516W        W14930   4.707  14.419  14.027 -0.1445  0.4298 -0.0998
 1517W        W14931   4.231  16.479  12.098 -0.2088  0.3864 -0.1790
 1518W        W14932   9.605   3.428  12.826 -0.0117  0.1683  0.1163
 1519W        W14933   5.778   4.832  13.539 -0.3069  0.2014  0.1025
 1520W        W14934   8.241  16.384  11.413 -0.2015  0.1858  0.0597
 1521W        W14935  10.011  16.097  10.935 -0.1602 -0.1608 -0.3686
 1522W        W14936   6.699  12.003   3.417 -0.2173  0.2754  0.2881
 1523W        W14937   4.850   3.109   4.040  0.0603  0.2278  0.0023
 1524W        W14938  17.439   0.119   1.244 -0.1582  0.0674 -0.1196
 1525W        W14939   0.254  17.711   3.346  0.0590 -0.0543 -0.2704
 1526W        W14940   4.419  12.812  10.650  0.1341 -0.1262  0.2514
 1527W        W14941  10.987  10.928  15.940 -0.3185  0.1423 -0.1412
 1528W        W14942  10.659  11.604   3.594  0.0859  0.0181 -0.1469
 1529W        W14943   5.684   8.645  10.479 -0.1335  0.2859 -0.0185
 1530W        W14944  10.561  11.208   4.388  0.0080 -0.1919 -0.3053
 1531W        W14945   1.599   1.743  14.163 -0.0756 -0.4156 -0.3899
 1532W        W14946  17.932   2.539   2.479  0.0320 -0.2449 -0.0586
 1533W        W14947   4.903  12.688  10.808 -0.1302 -0.1765  0.5323
 1534W        W14948  17.991  13.671  13.968  0.2055  0.3519 -0.1286
 1535W        W14949   2.946  10.835   2.366 -0.0812 -0.0092  0.0867
 1536W        W14950  15.957  16.550   2.060  0.0814 -0.1137  0.1175
 1537W        W14951   1.797   7.146   4.361  0.1020  0.1622 -0.0137
 1538W        W14952   8.666  15.774   2.282  0.0338 -0.1742  0.1718
 1539W        W14953  10.581   4.483   5.041 -0.4037 -0.2565 -0.0019
 1540W        W14954  16.378  17.333   3.764 -0.1636  0.1438  0.0071
 1541W        W14955   7.848   6.576   2.500  0.1682 -0.4113  0.2421
 1542W        W14956  12.441   6.827  12.438 -0.1686 -0.1553  0.0437
 1543W        W14957  16.604  12.946  14.154  0.1148 -0.1000 -0.0463
 1544W        W14958  12.505  11.039  11.757  0.1367  0.1345  0.0857
 1545W        W14959   0.613   5.945  12.869  0.1498  0.1239 -0.1827
 1546W        W14960   6.796  17.306   1.571  0.0810  0.1477  0.4164
 1547W        W14961   5.926  16.827  16.086  0.1046 -0.0736 -0.0914
 1548W        W14962   3.425  16.783  10.536  0.0429 -0.1322  0.0573
 1549W        W14963   6.964  12.194   5.600  0.0302  0.1763 -0.0661
 1550W        W14964  14.651   5.402   3.974 -0.0079  0.2140  0.2091
 1551W        W14965   8.476  14.048  14.403 -0.1081  0.0819  0.0599
 1552W        W14966  16.025  12.880  15.361 -0.1203 -0.0864  0.0651
 1553W        W14967   1.261   8.374   4.409 -0.2099 -0.4719 -0.1093
 1554W        W14968   4.694  10.367   0.259 -0.1001  0.3968  0.0332
 1555W        W14969   0.017   8.242   0.025  0.1693  0.1685 -0.0781
 1556W        W14970  12.871  10.880   2.682  0.1528  0.1132 -0.0217
 1557W        W14971   6.185   0.482  11.832  0.1802  0.2408 -0.0822
 1558W        W14972  16.278   1.636   1.040  0.1811 -0.0710  0.0424
 1559W        W14973  14.119  12.302  14.802  0.1960  0.4399 -0.1206
 1560W        W14974   6.310   4.559   4.158  0.1426 -0.1194  0.1491
 1561W        W14975   2.640   6.035   1.289 -0.0008 -0.0373 -0.0502
 1562W        W14976   7.679  10.328  16.051  0.0324 -0.0370  0.1651
 1563W        W14977  10.374   7.157   4.557  0.0734  0.0149  0.0494
 1564W        W14978   5.020  14.465   0.331  0.1292 -0.2540  0.1075
 1565W        W14979   8.097  14.959  14.837 -0.0697 -0.3134  0.3127
 1566W        W14980  11.546  12.115   2.811  0.1452 -0.0302 -0.2850
 1567W        W14981   7.597  16.037   5.221  0.0275 -0.2119  0.0811
 1568W        W14982   2.056  13.577   3.304 -0.1009  0.1254 -0.0836
 1569W        W14983   9.664   1.016   6.418 -0.4196 -0.1535 -0.0814
 1570W        W14984   3.050   8.201  10.938 -0.1372  0.3198  0.7280
 1571W        W14985   9.297   5.227   3.795 -0.0727  0.1547 -0.0937
 1572W        W14986   1.862  17.664   1.431  0.0521 -0.1463 -0.1056
 1573W        W14987   1.233   5.895   0.715 -0.2480  0.0460 -0.1687
 1574W        W14988  12.978   9.433   4.401  0.1136 -0.0419 -0.2824
 1575W        W14989   2.702   0.735   1.003 -0.1837 -0.2451 -0.1274
 1576W        W14990   8.979  17.731   3.924 -0.0053  0.2085  0.1147
 1577W        W14991  16.693   0.313  12.785 -0.3031 -0.0386  0.0218
 1578W        W14992   6.714   9.493  16.337 -0.0251  0.2904 -0.0717
 1579W        W14993   4.967   8.888  16.163  0.2435  0.2575 -0.3857
 1580W        W14994   2.294   5.912   0.104  0.1873  0.1489  0.0673
 1581W        W14995  17.303  14.407  12.534  0.1327 -0.0180  0.2123
 1582W        W14996   5.953   4.008   5.223 -0.2369  0.0811  0.2687
 1583W        W14997  16.467  13.940   3.263  0.0608  0.2619 -0.1946
 1584W        W14998   0.770   8.922   4.160 -0.3531  0.0418  0.1189
 1585W        W14999  14.995   0.569   3.266  0.3229  0.1499  0.5535
 1586W        W15000   2.894  10.308   2.343 -0.0622  0.1504 -0.2432
 1587W        W15001   8.487  10.667  15.325  0.0571  0.1046  0.3953
 1588W        W15002  16.850   6.302  15.812  0.0259  0.0966 -0.1351
 1589W        W15003   9.072   7.718  13.311  0.2760  0.3115  0.0375
 1590W        W15004  13.591  14.128   1.161 -0.1252 -0.1454 -0.1930
 1591W        W15005  17.115  17.841   5.967  0.2894 -0.1994  0.0138
 1592W        W15006   0.940  17.230  14.880  0.0933 -0.5380  0.1253
 1593W        W15007   7.758   5.951  15.973  0.2065 -0.0046  0.0952
 1594W        W15008   7.920   1.613   2.858  0.2080  0.0687  0.3654
 1595W        W15009  11.048  14.867   2.928  0.1208  0.0287  0.3138
 1596W        W15010   0.222   4.270   3.684  0.0405 -0.0497 -0.0255
 1597W        W15011  10.265   8.710   3.855 -0.1536  0.0346 -0.3904
 1598W        W15012   0.843   2.990  14.651 -0.1768 -0.1754 -0.0925
 1599W        W15013  18.243  14.822   2.073  0.3397  0.2218  0.1651
 1600W        W15014   8.807  17.662   5.682 -0.1520  0.0291 -0.0512
 1601W        W15015   3.783  13.290  11.060 -0.0045 -0.1201  0.0572
 1602W        W15016  15.246  15.026   2.912  0.0477  0.0265 -0.1293
 1603W        W15017  14.241  15.982  14.990 -0.1733  0.0874  0.1009
 1604W        W15018   0.844  17.393   5.552 -0.1277 -0.0216 -0.0914
 1605W        W15019  16.603  10.480  12.321 -0.0551 -0.0104 -0.0835
 1606W        W15020   8.314   2.526   0.428 -0.1494 -0.1447 -0.1005
 1607W        W15021   3.479  15.751  12.851  0.0097  0.0590 -0.0019
 1608W        W15022   5.071   6.558   5.881 -0.2392 -0.1132 -0.2205
 1609W        W15023   5.045   1.021   2.180  0.0199 -0.5404 -0.1840
 1610W        W15024  11.582  10.687  10.879 -0.1092 -0.0182 -0.0091
 1611W        W15025  10.643  11.557  15.834 -0.0960 -0.0718  0.0660
 1612W        W15026   4.815  14.991   1.795 -0.0853  0.2750 -0.2245
 1613W        W15027   0.239   3.841   3.907  0.3901  0.0918 -0.0003
 1614W        W15028  18.193   8.395   3.370 -0.2248  0.3220 -0.0554
 1615W        W15029  10.757   9.249  10.163  0.1630 -0.1136 -0.1599
 1616W        W15030   5.790  10.113   0.803  0.1232 -0.0351  0.2793
 1617W        W15031  17.376   0.282   2.720  0.0363  0.2319 -0.0122
 1618W        W15032  17.901  14.403  15.042  0.2737  0.1777 -0.1970
 1619W        W15033   8.198   7.463  10.651 -0.1161  0.0891 -0.3478
 1620W        W15034   0.563  13.888  13.321  0.1229  0.2775  0.0973
 1621W        W15035  16.793   9.445  11.127  0.3672  0.0777 -0.0024
 1622W        W15036   9.252  12.366   3.605  0.2668  0.0785  0.2489
 1623W        W15037  15.465  13.138   0.773  0.1481  0.5128 -0.0883
 1624W        W15038   5.260  13.367   3.140  0.0159  0.5058 -0.1371
 1625W        W15039   5.112   8.582  11.306 -0.2002  0.2174  0.0294
 1626W        W15040  13.290   5.837  14.377 -0.3450 -0.3309 -0.0787
 1627W        W15041   3.877  16.718  13.646 -0.0228 -0.2810 -0.2338
 1628W        W15042   9.469  12.323   5.750 -0.2558 -0.2107  0.0124
 1629W        W15043  12.355  10.601   0.113 -0.0942  0.0809 -0.0611
 1630W        W15044  16.171  15.322   1.061 -0.1451  0.0927 -0.1634
 1631W        W15045   7.284  17.049   3.707  0.2233 -0.1229  0.1808
 1632W        W15046   3.479  14.301  11.704 -0.0641  0.0216  0.0777
 1633W        W15047   4.821   0.588   3.863 -0.0719  0.0362  0.0565
 1634W        W15048   1.506  12.674  15.206  0.0769  0.0556 -0.2599
 1635W        W15049  15.868  17.972   2.843  0.0473  0.0195  0.0751
 1636W        W15050  17.152   9.711  13.408 -0.0083  0.2362 -0.0889
 1637W        W15051   3.005  18.138  14.746  0.0710 -0.0170 -0.0815
 1638W        W15052  12.353  16.599  13.876  0.2354  0.0077 -0.0415
 1639W        W15053   7.308   6.237  11.665  0.1284 -0.1448  0.2467
 1640W        W15054   7.949   7.021  10.519  0.0908  0.2206 -0.1214
 1641W        W15055   8.606  15.191   2.215 -0.0769 -0.1005 -0.1314
 1642W        W15056  16.809   7.076  16.347  0.1289 -0.0414  0.1740
 1643W        W15057  18.174  10.871   5.285 -0.0609  0.0071 -0.4970
 1644W        W15058  10.936   4.151   4.710  0.0037  0.0533 -0.2044
 1645W        W15059   8.307   4.267  12.860  0.2959  0.0464  0.3326
 1646W        W15060  17.450  11.734  14.915 -0.1561 -0.2611 -0.2879
 1647W        W15061  10.364  11.287   0.162  0.2164 -0.0980  0.2841
 1648W        W15062   0.295  17.392  13.150  0.1510 -0.0568 -0.1745
 1649W        W15063  10.933   8.930  11.243  0.4445  0.4091  0.1294
 1650W        W15064   2.839   3.202   0.468  0.1931 -0.1553  0.0291
 1651W        W15065   1.342   8.009   5.198 -0.2344  0.1311  0.0912
 1652W        W15066   1.511  16.925  15.643 -0.0753 -0.3558  0.0314
 1653W        W15067  10.666   7.982   3.274  0.1566  0.0570 -0.2709
 1654W        W15068   5.024   0.313  16.435 -0.0108 -0.0183 -0.1351
 1655W        W15069   7.399   4.060  10.893  0.1046 -0.0157 -0.1524
 1656W        W15070   3.102  12.846  12.652  0.1027  0.1715  0.0095
 1657W        W15071   3.054   6.895   5.305 -0.3088  0.0511  0.0699
 1658W        W15072   5.444   8.934   4.529  0.2003  0.1196  0.0545
 1659W        W15073   2.582   2.867  12.123  0.0966  0.0808 -0.0478
 1660W        W15074   9.744   5.992  12.986  0.1500  0.2261 -0.1005
 1661W        W15075   7.196  12.714   3.207  0.0996 -0.0084 -0.2960
 1662W        W15076   1.997  14.776   1.720  0.0152 -0.3513 -0.2516
 1663W        W15077   2.200  14.312   6.373 -0.0794  0.1739 -0.0885
 1664W        W15078  17.976  15.645   2.981 -0.3253  0.1141 -0.2090
 1665W        W15079   1.301  15.145   1.516  0.2400 -0.0252  0.0918
 1666W        W15080   5.080   9.065   3.021 -0.2259  0.0435 -0.3602
 1667W        W15081   5.429  10.359   3.827  0.1325  0.3155  0.0266
 1668W        W15082   2.219   4.049  15.573 -0.3091 -0.1121 -0.0402
 1669W        W15083   4.253   6.533  14.563  0.0572  0.1782 -0.0524
 1670W        W15084   1.793   3.518  13.303 -0.0042 -0.3764 -0.4168
 1671W        W15085  13.398   6.908   0.561  0.1914 -0.2473 -0.3595
 1672W        W15086  14.015   6.661  11.949  0.2700  0.0626 -0.0285
 1673W        W15087  11.481   1.411   0.388 -0.2236 -0.2863 -0.0907
 1674W        W15088   6.970  11.583  16.086 -0.0469 -0.2798  0.0163
 1675W        W15089   3.462   5.362  14.220 -0.0299  0.0132 -0.2276
 1676W        W15090   4.397  11.436  11.923  0.3127 -0.3608 -0.0670
 1677W        W15091  15.574   0.457   2.036  0.0900  0.1329  0.0654
 1678W        W15092  16.267  13.752   1.100 -0.1054  0.0941  0.0768
 1679W        W15093   1.629   3.095   4.179 -0.1405  0.4473 -0.0653
 1680W        W15094  13.402   5.367   1.913 -0.0523  0.1884  0.0202
 1681W        W15095   9.077  14.825  10.770 -0.2683 -0.2901  0.1006
 1682W        W15096  16.479  11.748  11.347 -0.1199 -0.3845  0.1070
 1683W        W15097   9.017  16.604   4.155  0.1902  0.3011  0.3620
 1684W        W15098   6.363  17.835   5.770 -0.1035  0.0150 -0.1488
 1685W        W15099  17.726  14.293   1.698  0.1360  0.1145 -0.0038
 1686W        W15100  14.627  10.157  11.659  0.2899 -0.0743 -0.2691
 1687W        W15101   9.756   8.593   1.328  0.2836  0.0228  0.1589
 1688W        W15102   3.991   8.443   3.209 -0.1331 -0.3127 -0.0554
 1689W        W15103   7.524   3.154   6.250  0.1112  0.2454  0.0759
 1690W        W15104   5.401  11.322   5.716 -0.0122  0.0351 -0.1352
 1691W        W15105  13.655   1.248   0.834  0.0203  0.2382 -0.3110
 1692W        W15106   5.331  17.010  14.240  0.0583 -0.0104  0.0816
 1693W        W15107  17.591   0.781  11.888  0.0754  0.0771  0.1962
 1694W        W15108  11.170   9.466   2.473 -0.1790  0.1645 -0.1939
 1695W        W15109  13.958  10.052   5.360  0.0961 -0.3055 -0.0649
 1696W        W15110   8.364   4.897  15.349 -0.1637  0.0145 -0.5655
 1697W        W15111   9.824   8.983   1.986 -0.0358  0.0210  0.1570
 1698W        W15112  17.003   5.266  12.995  0.0102 -0.0398  0.2427
 1699W        W15113   7.433   5.726   9.917  0.1435  0.0796  0.1756
 1700W        W15114  15.485  15.195  14.197 -0.0989 -0.0567 -0.0021
 1701W        W15115   8.891  10.368   4.680  0.2593 -0.1543 -0.1683
 1702W        W15116   2.646  16.669  11.064 -0.0182 -0.2769 -0.2019
 1703W        W15117  17.655   9.039  15.817  0.3180  0.1415  0.0326
 1704W        W15118   0.980  16.843  13.964 -0.1191  0.0592  0.3065
 1705W        W15119   3.276  13.793  13.367  0.2071 -0.0077  0.2168
 1706W        W15120   8.727   3.062  11.548 -0.0837  0.0531 -0.1592
 1707W        W15121   8.931  15.423   9.973  0.1059  0.0997 -0.3727
 1708W        W15122   6.399  17.001   0.366 -0.1350  0.0381 -0.0852
 1709W        W15123  16.801   3.120   2.351 -0.0232 -0.1535 -0.0149
 1710W        W15124   6.891   3.411   2.724 -0.0653  0.1448  0.0623
 1711W        W15125  10.188  15.762  15.941 -0.0733  0.1542  0.2642
 1712W        W15126  13.820  12.375  13.713 -0.0186 -0.0402  0.0111
 1713W        W15127   8.082  16.591   3.745  0.1471 -0.0926  0.1119
 1714W        W15128   7.991  10.669  15.332  0.2824 -0.0887  0.1287
 1715W        W15129   0.720   4.407  11.476  0.0045  0.1883 -0.1333
 1716W        W15130  13.869  13.256   5.598  0.0872 -0.1068  0.0054
 1717W        W15131   0.362   9.790   2.860  0.0729 -0.0350  0.0963
 1718W        W15132  16.268  14.280   2.426 -0.1682 -0.1404 -0.1121
 1719W        W15133   5.828  13.599  11.582  0.2781  0.1324  0.1217
 1720W        W15134  10.110  16.537   1.015  0.2734  0.1660  0.4959
 1721W        W15135  10.038   9.715   3.212  0.0856 -0.3104 -0.1423
 1722W        W15136   9.040  14.804  13.006 -0.0675  0.1613  0.4761
 1723W        W15137  13.465   8.743   4.344  0.0961 -0.0111 -0.1030
 1724W        W15138  16.687   9.589  12.675  0.0295 -0.0762  0.1127
 1725W        W15139  18.276  16.066  14.899 -0.0023 -0.0152 -0.0497
 1726W        W15140  15.559   7.994   4.632 -0.3638 -0.1841 -0.1065
 1727W        W15141  13.533  16.070  15.919  0.1122 -0.4557 -0.2651
 1728W        W15142  14.291  10.255   3.599  0.1333  0.2553 -0.2588
 1729W        W15143  10.316  17.371  11.281  0.3727  0.1142  0.3619
 1730W        W15144   8.439   5.044  16.243  0.2457  0.1657  0.2031
 1731W        W15145  12.517  17.903  15.978 -0.0378  0.4540 -0.1233
 1732W        W15146  17.717  12.485  12.767  0.0051  0.2494  0.2185
 1733W        W15147   7.186  11.431  14.609 -0.1212  0.0882  0.1788
 1734W        W15148   6.149  18.181   0.655 -0.1540 -0.2353 -0.2847
 1735W        W15149  11.318  16.474   5.553  0.0753  0.2877  0.1806
 1736W        W15150  15.302   2.115   2.496  0.2164  0.0582 -0.0438
 1737W        W15151   9.347   0.641  14.095 -0.3175  0.4678 -0.1867
 1738W        W15152   7.136  14.342  14.956 -0.1438 -0.5861  0.1897
 1739W        W15153   1.116  11.900  11.650  0.0439 -0.0519  0.1103
 1740W        W15154  13.809  14.145  14.815 -0.0683  0.1054  0.1319
 1741W        W15155   2.685  15.870   1.325 -0.0586 -0.1075 -0.0038
 1742W        W15156   0.910  16.938   5.359  0.0647 -0.1401  0.0064
 1743W        W15157  11.299  14.301  14.950  0.0234 -0.1658 -0.0732
 1744W        W15158  14.675   3.846  10.698 -0.1755  0.0336  0.0696
 1745W        W15159   9.572  15.183   0.639  0.2154  0.0960 -0.0794
 1746W        W15160  15.112  14.649  10.760  0.0939  0.0022  0.2365
 1747W        W15161  13.196   4.712  11.673  0.0355 -0.0734 -0.1733
 1748W        W15162  16.019   8.371  13.771 -0.4421  0.0263  0.0993
 1749W        W15163  16.859   1.209  14.169 -0.2163  0.1448  0.1369
 1750W        W15164  15.657   2.442  13.591  0.2827 -0.0432 -0.0222
 1751W        W15165   4.037   2.943   3.340 -0.3886 -0.1723 -0.3040
 1752W        W15166   9.887   6.446  14.909  0.1131  0.0186 -0.0614
 1753W        W15167   3.983   2.921   5.313 -0.0542  0.2654  0.1659
 1754W        W15168   7.404   7.981   2.407 -0.0797 -0.2848  0.2700
 1755W        W15169   2.100  13.607   5.724  0.4042 -0.0321 -0.1817
 1756W        W15170  15.056  17.959   4.364 -0.0343  0.0788  0.1249
 1757W        W15171   5.948   2.517   6.886 -0.0704 -0.1718 -0.1192
 1758W        W15172   1.167  14.604   2.661  0.3284 -0.1982  0.1064
 1759W        W15173  17.259  18.151   0.179 -0.0854 -0.1477 -0.0375
 1760W        W15174   6.687   3.319   4.914  0.3283  0.1838  0.1893
 1761W        W15175  12.278  12.053  10.934  0.2527  0.0945  0.3154
 1762W        W15176   4.245  13.282  10.732 -0.0769 -0.1523 -0.3328
 1763W        W15177   1.955  11.312   4.470  0.1243 -0.2163  0.2277
 1764W        W15178   0.121  15.890  12.597  0.2931  0.1627 -0.1736
 1765W        W15179   8.525   9.823  13.537  0.0274 -0.4032 -0.1769
 1766W        W15180   7.743   0.596  13.314  0.0090 -0.1670  0.0409
 1767W        W15181  14.998   2.456  16.403  0.3445 -0.0819 -0.3993
 1768W        W15182  17.270   3.958  11.744  0.1514 -0.1832  0.0537
 1769W        W15183  12.137   5.808   4.037 -0.0719  0.1661  0.2662
 1770W        W15184   6.835   4.635   1.377  0.1519  0.0204  0.1012
 1771W        W15185   6.559   0.814  15.271  0.1274 -0.2986 -0.0268
 1772W        W15186  17.196  13.438  15.805 -0.3057 -0.1028  0.2922
 1773W        W15187   9.146   8.229   2.441 -0.1240 -0.0789 -0.2843
 1774W        W15188   6.760   3.753   0.662  0.4177  0.4235  0.0804
 1775W        W15189   1.817   5.235   5.640  0.2224 -0.1570  0.0352
 1776W        W15190   7.952   2.896   4.877 -0.0955 -0.2203  0.0208
 1777W        W15191  15.975   6.130  11.978 -0.0457 -0.2140 -0.1545
 1778W        W15192  13.597   1.720   5.903 -0.1632 -0.0319  0.2808
 1779W        W15193  16.815   7.295   0.775  0.1910  0.2878  0.0117
 1780W        W15194   2.616   9.222   5.403  0.1267 -0.2285  0.0196
 1781W        W15195  17.109  15.866  10.820  0.0791  0.3242 -0.0059
 1782W        W15196   5.951   8.972   3.640 -0.1113 -0.1183  0.0187
 1783W        W15197   7.545  14.055  11.491  0.0906 -0.1793 -0.2824
 1784W        W15198  14.442  12.645  14.626  0.3382  0.1096 -0.0874
 1785W        W15199  10.612  16.503  10.558  0.3838  0.1604 -0.0712
 1786W        W15200  16.058  15.705  14.966 -0.4049  0.0987 -0.1710
 1787W        W15201   9.020  17.402   1.260 -0.1954 -0.2218 -0.1044
 1788W        W15202  16.250   5.709   1.893 -0.0207 -0.3627  0.5028
 1789W        W15203  11.315   9.891  12.526 -0.0887 -0.0393 -0.0704
 1790W        W15204  17.633   6.861  12.143 -0.0564  0.0235 -0.1265
 1791W        W15205   0.698  14.819  15.861 -0.2154  0.0011 -0.0604
 1792W        W15206  10.695  10.055  10.984 -0.3304  0.2839  0.1945
 1793W        W15207   1.125   1.346   5.374 -0.1112  0.0307 -0.0702
 1794W        W15208  12.986  11.624   5.171  0.0962  0.0202 -0.3494
 1795W        W15209   9.294   4.369   4.050  0.0961  0.0912  0.2529
 1796W        W15210  12.737  11.337   0.735  0.0342 -0.1802 -0.3426
 1797W        W15211   1.553  14.670  13.984 -0.2098 -0.1409 -0.4621
 1798W        W15212  12.437   9.756   3.201  0.0834  0.1989  0.1644
 1799W        W15213   0.690   5.950  13.844  0.2533  0.1437  0.2875
 1800W        W15214   1.271  17.255  15.256  0.3964 -0.2788  0.1734
 1801W        W15215  11.506   8.879  13.077  0.1292 -0.2245 -0.4474
 1802W        W15216   1.744  13.671   0.782  0.0243 -0.2171 -0.1140
 1803W        W15217  12.480   2.004  12.695  0.0216 -0.0861  0.0681
 1804W        W15218   7.035  13.896   1.025 -0.1119 -0.1904 -0.1970
 1805W        W15219  14.753   3.851   3.733 -0.1257 -0.1965  0.0250
 1806W        W15220   7.906   3.982  13.189 -0.2554 -0.4563  0.0200
 1807W        W15221  12.014  14.975   4.165  0.0418  0.1865  0.0659
 1808W        W15222  17.347   2.358  14.816  0.0829 -0.1600 -0.0992
 1809W        W15223  15.617  14.882   3.806 -0.2009 -0.0492 -0.0834
 1810W        W15224   5.510   7.740  14.727  0.0554 -0.0599  0.1538
 1811W        W15225  14.536  13.436   3.348 -0.1016 -0.0814  0.0243
 1812W        W15226  13.870  11.762   2.602 -0.0059 -0.0804  0.0993
 1813W        W15227  10.445   3.466   0.330 -0.0178  0.0689  0.0154
 1814W        W15228  12.566   1.201   1.651  0.2380  0.1703 -0.1764
 1815W        W15229  10.114  16.091   2.792 -0.0339 -0.0557  0.1294
 1816W        W15230   0.594  15.879  13.581 -0.1117 -0.2584  0.2537
 1817W        W15231   1.051  16.088   6.896  0.2690  0.0353 -0.0412
 1818W        W15232   7.736  18.013  14.723 -0.0432 -0.0868  0.0577
 1819W        W15233  12.248  16.555   5.590  0.0942 -0.0079 -0.2111
 1820W        W15234   7.122   0.798  13.729  0.1043 -0.1047 -0.0741
 1821W        W15235   2.678  16.354  13.743 -0.0011 -0.0001 -0.1095
 1822W        W15236   1.642   5.446   1.630  0.0647 -0.0420 -0.0582
 1823W        W15237   4.151  13.494   3.783 -0.2183  0.1636  0.3457
 1824W        W15238  17.878  17.086  13.310 -0.0267  0.2980 -0.2284
 1825W        W15239  16.556   2.157   4.602 -0.2350 -0.0176 -0.3135
 1826W        W15240   3.330   2.193   1.516  0.0961  0.0664 -0.1482
 1827W        W15241  11.907   3.026   3.000 -0.1397  0.1846 -0.3981
 1828W        W15242   1.438  10.808  14.350  0.1346 -0.2464 -0.0393
 1829W        W15243   0.984  17.021   0.067  0.1595  0.0187  0.3346
 1830W        W15244  16.111   2.681   4.971 -0.0489  0.1040  0.2091
 1831W        W15245   1.288   4.683  13.523  0.0840 -0.0817  0.2683
 1832W        W15246  13.951  17.470  11.656 -0.0264  0.1670 -0.1369
 1833W        W15247  17.291   3.282  10.174  0.0739  0.2001  0.1442
 1834W        W15248  16.934  12.453  13.259 -0.1386  0.0010 -0.2896
 1835W        W15249  11.878   0.047  12.867 -0.2227  0.2459 -0.1318
 1836W        W15250  17.796  10.117  10.737  0.2080 -0.0310 -0.0896
 1837W        W15251  16.752   1.236  15.715 -0.0913  0.1367 -0.0167
 1838W        W15252  10.328  15.859  11.363  0.1101 -0.1257  0.3324
 1839W        W15253   0.090  16.187   4.839  0.2077  0.1716 -0.1999
 1840W        W15254   3.800   2.352  12.097 -0.2078  0.0181 -0.1661
 1841W        W15255   4.853  10.858   3.408 -0.1210  0.1687 -0.1481
 1842W        W15256  10.145  10.882   4.714  0.3248 -0.0002 -0.0520
 1843W        W15257  11.537   9.011  11.427  0.3004  0.0683  0.1293
 1844W        W15258   2.345   7.505  12.264 -0.0299  0.0848  0.2905
 1845W        W15259  14.008   2.888  15.550  0.2427 -0.0504  0.0223
 1846W        W15260  14.229  14.748   3.458 -0.3272 -0.0479 -0.1375
 1847W        W15261   3.011  13.882   0.331  0.2794 -0.1506  0.2508
 1848W        W15262  11.494  15.378  14.030 -0.1033 -0.0634  0.1528
 1849W        W15263  16.801   5.938  15.019 -0.3904 -0.0222 -0.1622
 1850W        W15264  10.107   1.690   5.307 -0.0103 -0.1872  0.0440
 1851W        W15265  13.362   1.918   1.999  0.0704 -0.0713 -0.0801
 1852W        W15266  10.136   1.171   1.296 -0.0145 -0.0825  0.2153
 1853W        W15267  17.810  12.089   1.132 -0.0048  0.0983 -0.1555
 1854W        W15268   1.880  10.702   3.011  0.2118 -0.2483  0.0480
 1855W        W15269   8.123  11.571  13.588  0.1123 -0.1621 -0.2198
 1856W        W15270   9.939   1.664   0.007  0.1223 -0.0938  0.2137
 1857W        W15271   1.422   2.682  15.613 -0.4619 -0.1388 -0.3298
 1858W        W15272  15.036  15.152  12.023 -0.1047  0.2119 -0.0718
 1859W        W15273  15.439   8.141  12.617 -0.0011  0.2315  0.4636
 1860W        W15274   3.034  15.690   1.664 -0.0013 -0.2374 -0.1870
 1861W        W15275  15.774  15.731  12.828  0.0257 -0.0030  0.0255
 1862W        W15276  12.210   0.196   3.806 -0.3967  0.0136  0.0054
 1863W        W15277   3.380   2.652  10.576  0.1584 -0.0136  0.1551
 1864W        W15278  12.684   6.001  11.288  0.1260  0.1261  0.1572
 1865W        W15279  17.866   6.273  14.584  0.0302  0.0133 -0.2984
 1866W        W15280   6.327  11.990   1.212 -0.1337  0.1533 -0.2148
 1867W        W15281  18.057   1.349   0.057 -0.0158  0.1106  0.1333
 1868W        W15282  10.737  16.097   3.995 -0.1143  0.0881  0.2880
 1869W        W15283  13.404   6.097  15.052  0.0309 -0.1271  0.0734
 1870W        W15284   6.987   2.460  14.701 -0.0280  0.0775  0.1815
 1871W        W15285  11.652   8.661   5.145 -0.5181  0.0283 -0.2904
 1872W        W15286   8.283   5.854   0.498  0.0643  0.0478  0.0704
 1873W        W15287   1.542  14.208   5.632 -0.1018  0.0779  0.1511
 1874W        W15288   1.554   7.318   0.328  0.0770 -0.1234  0.1057
 1875W        W15289   3.902  17.692  16.317  0.2135 -0.0589  0.0439
 1876W        W15290  14.830   3.991   5.455 -0.2930 -0.1031 -0.0671
 1877W        W15291   3.040  14.760  14.772 -0.0809 -0.2146 -0.1411
 1878W        W15292  14.658   1.648   3.040 -0.2372  0.4762  0.0998
 1879W        W15293   2.565  12.613   2.611 -0.1404  0.4348 -0.1018
 1880W        W15294   4.232   7.382   2.520 -0.0245 -0.2430 -0.3268
 1881W        W15295  12.443  11.134   2.602  0.1052 -0.1177  0.2590
 1882W        W15296  16.059  16.114   5.232  0.0032  0.0900 -0.2975
 1883W        W15297   9.719  14.961   5.010 -0.0388 -0.2975  0.3442
 1884W        W15298  15.317  14.459  11.545 -0.1829 -0.1683  0.0027
 1885W        W15299  14.754   0.674  13.914 -0.0015  0.0853 -0.0878
 1886W        W15300  11.468   4.212  15.393 -0.1439 -0.2076 -0.2059
 1887W        W15301  11.310   7.288  11.864  0.3089 -0.1708 -0.3425
 1888W        W15302  15.974  11.727   5.922  0.1800 -0.0138 -0.0629
 1889W        W15303   0.912  13.534  13.678 -0.1839  0.0886 -0.4018
 1890W        W15304   6.786   7.629  14.004  0.2663  0.0237  0.0619
 1891W        W15305  16.539   8.061  12.538 -0.0794 -0.1326  0.0940
 1892W        W15306   1.105  12.602   4.542 -0.3111  0.0018  0.2512
 1893W        W15307  13.291   9.719  16.251  0.0205  0.1806  0.1737
 1894W        W15308  10.746   4.332  14.205 -0.1181  0.0406  0.0799
 1895W        W15309   4.727  11.782   0.165 -0.0504  0.1645 -0.1270
 1896W        W15310   1.956   0.974  14.281 -0.1345  0.0573  0.1539
 1897W        W15311   8.064  15.536   5.599  0.1724  0.2937  0.2335
 1898W        W15312   9.173   5.370  15.799  0.0855 -0.1027 -0.2103
 1899W        W15313   0.013   6.074  15.567 -0.0219 -0.0540  0.0324
 1900W        W15314  15.001  15.681  11.227  0.3774  0.1642 -0.0872
 1901W        W15315  16.266  12.931  14.513 -0.0365 -0.1819 -0.1610
 1902W        W15316  10.106   8.781  14.804 -0.4288 -0.1345 -0.0091
 1903W        W15317  15.676   1.939   4.737 -0.5322 -0.1242  0.1195
 1904W        W15318   1.856   9.367   0.948 -0.1083 -0.4388  0.0204
 1905W        W15319  13.419   2.898  15.451 -0.0324  0.0522 -0.0863
 1906W        W15320  11.706   4.254  14.288  0.3200 -0.0226 -0.1350
 1907W        W15321  16.370   9.669   1.522  0.0015 -0.0975 -0.3553
 1908W        W15322  15.017   7.404  10.886  0.2226  0.2106 -0.1004
 1909W        W15323   6.219   7.263  14.462 -0.0615 -0.0156 -0.0661
 1910W        W15324   1.906   3.539   4.143 -0.0215  0.1207  0.2000
 1911W        W15325   4.316   7.702  15.417  0.3002 -0.0444  0.0779
 1912W        W15326   6.571  15.783  13.099 -0.2261  0.0627 -0.3295
 1913W        W15327   5.349   6.113  13.301  0.0444  0.1106  0.1068
 1914W        W15328  12.815  17.020  16.186  0.2593  0.1913 -0.1347
 1915W        W15329  10.879  11.395  11.067 -0.3633  0.1234 -0.0206
 1916W        W15330  13.884  14.148   0.220 -0.2878 -0.0757 -0.1307
 1917W        W15331  11.310  10.962  12.670  0.0908  0.2885  0.0112
 1918W        W15332  17.866   1.955  11.333 -0.1946  0.0946  0.0792
 1919W        W15333   5.065  17.160   0.375 -0.2883 -0.3180  0.0358
 1920W        W15334  14.638   3.844   2.079  0.1102  0.2389 -0.0910
 1921W        W15335   6.424   5.188   0.606 -0.2207 -0.1337  0.2616
 1922W        W15336   2.463   0.225   2.611  0.2147 -0.2307 -0.2440
 1923W        W15337  14.534  13.894  16.142  0.0779  0.0012  0.0129
 1924W        W15338  10.329   0.954  11.199  0.5532  0.1675 -0.0103
 1925W        W15339   7.614   9.421   2.482  0.0698 -0.1215 -0.0733
 1926W        W15340   1.341   9.100   5.244  0.1740 -0.1420  0.0612
 1927W        W15341   1.678  12.342  16.491  0.0950  0.4461  0.0915
 1928W        W15342  16.362  10.174   4.837  0.0731  0.2595  0.1020
 1929W        W15343  13.160  10.280  16.050  0.0020 -0.0107  0.0725
 1930W        W15344   8.423  12.359  11.011  0.3134  0.0349  0.0826
 1931W        W15345   6.319   0.038   6.139  0.2656 -0.1278 -0.1174
 1932W        W15346   2.353  12.396  11.094 -0.1708  0.2571  0.0545
 1933W        W15347   7.779   9.469   3.812 -0.3814  0.0019 -0.0207
 1934W        W15348   4.568  12.059   6.094 -0.1583 -0.2070  0.1056
 1935W        W15349  18.250   5.948  12.641  0.3995  0.0887 -0.2208
 1936W        W15350  10.195   9.079  13.846  0.1599  0.0005  0.1098
 1937W        W15351   8.316   6.864   2.444 -0.0631  0.1330  0.3633
 1938W        W15352   3.698   6.435  14.297  0.5894  0.3857 -0.0204
 1939W        W15353   9.326   5.429   1.124  0.2090  0.0030 -0.2638
 1940W        W15354  11.110   6.720  10.808  0.1406 -0.2702 -0.1166
 1941W        W15355  18.003   8.245  14.674 -0.0366 -0.3167 -0.2706
 1942W        W15356   8.625   6.565  12.232 -0.1517  0.0092  0.3396
 1943W        W15357   1.107   3.902  12.892  0.2188  0.0988  0.2464
 1944W        W15358  11.089   6.008   0.465 -0.1737  0.0123  0.1667
 1945W        W15359   5.231  17.380   3.841 -0.3519 -0.0504 -0.1325
 1946W        W15360  14.764   0.053   2.152 -0.1949 -0.2601 -0.4878
 1947W        W15361   8.807  17.768  11.801  0.0246 -0.0470 -0.3920
 1948W        W15362  16.776  13.665  13.551 -0.2313  0.0188  0.0655
 1949W        W15363   2.188   0.069  14.658  0.1884  0.0908  0.1679
 1950W        W15364   8.241   0.230   3.613  0.2205 -0.0329  0.0080
 1951W        W15365  17.716   5.442   2.728 -0.0849 -0.1651 -0.1170
 1952W        W15366   7.811   7.254   0.064  0.1932  0.0864  0.0278
 1953W        W15367  10.612   0.177   5.074 -0.0912  0.0840 -0.2291
 1954W        W15368  13.321   9.633  14.950 -0.0580  0.2659 -0.0780
 1955W        W15369   4.473   2.375   0.076 -0.3438  0.0382  0.3296
 1956W        W15370  16.762   8.250  13.889  0.4743 -0.3385  0.0616
 1957W        W15371  14.125   4.698  11.754  0.3502  0.0317 -0.1032
 1958W        W15372   7.291  13.780  14.985 -0.0693 -0.2436 -0.0282
 1959W        W15373   1.384  13.834   4.002 -0.2285 -0.1560  0.0710
 1960W        W15374   7.731  15.528  14.319  0.0387 -0.1809  0.0281
 1961W        W15375   4.074   0.592   1.359 -0.3245  0.3090  0.0336
 1962W        W15376   2.418   6.889   4.456 -0.3128  0.0983 -0.0272
 1963W        W15377  17.446   9.380   1.615 -0.0298  0.0561 -0.0410
 1964W        W15378  18.245  14.801  14.879 -0.0806 -0.3002 -0.0066
 1965W        W15379   7.222   2.477   2.786 -0.1020  0.1173 -0.0032
 1966W        W15380   0.559   2.664   4.749 -0.1044 -0.2163 -0.0640
 1967W        W15381  17.032   8.240   0.475  0.1435  0.1498 -0.2088
 1968W        W15382   0.535  10.223   5.279 -0.1622  0.0498  0.0912
 1969W        W15383  17.609   8.654  13.448  0.4493  0.0770  0.1317
 1970W        W15384  10.276  16.485   4.839  0.2441 -0.2233  0.1878
 1971W        W15385   4.859  13.139   3.274  0.0558  0.4577  0.1392
 1972W        W15386   1.492   6.077  16.326 -0.0650  0.2396  0.0776
 1973W        W15387   5.842  12.968   4.177 -0.3695 -0.0344 -0.4468
 1974W        W15388   3.064  15.659   6.347  0.0512  0.0406  0.2314
 1975W        W15389   7.026  13.793  13.678 -0.0375  0.3458  0.2096
 1976W        W15390   2.108  12.868   3.479 -0.3261  0.0200 -0.1656
 1977W        W15391   7.401  12.163  11.561  0.0082 -0.0207 -0.1706
 1978W        W15392  15.186   7.523   5.213  0.2060  0.1870  0.1539
 1979W        W15393   6.454   4.315  10.745 -0.0835 -0.1177  0.2823
 1980W        W15394   7.157   6.602   1.644  0.0116  0.2506  0.2578
 1981W        W15395  11.346  10.821  13.908 -0.2247  0.0149  0.1707
 1982W        W15396   9.198   3.536  16.099  0.3705 -0.1211 -0.1740
 1983W        W15397   9.055  15.571   4.787 -0.2660 -0.0781  0.1570
 1984W        W15398  10.176   8.070  15.384 -0.2665  0.0029  0.0103
 1985W        W15399  16.689   4.191  14.715 -0.2659  0.0212  0.0039
 1986W        W15400  11.933   7.005   0.751 -0.3223  0.1549 -0.3089
 1987W        W15401  13.228  13.667   3.614  0.0567  0.0518  0.2121
 1988W        W15402   1.646   9.858  14.260  0.0196 -0.1258  0.0253
 1989W        W15403   3.884   2.501  10.403 -0.1880  0.0060 -0.0107
 1990W        W15404   3.480   0.801   4.191 -0.0266  0.2160 -0.0209
 1991W        W15405   0.309  10.183  14.120 -0.1189 -0.0434 -0.2803
 1992W        W15406   0.547   0.512  14.156 -0.2935  0.0050  0.0675
 1993W        W15407  10.451  17.295   4.434  0.6163 -0.2000  0.1513
 1994W        W15408   3.150  17.002   0.897 -0.0250  0.0581 -0.0517
 1995W        W15409   5.028   6.373   1.397 -0.2818  0.2119  0.0649
 1996W        W15410  10.672  11.226  11.522  0.1633  0.0040  0.0714
 1997W        W15411  10.302   4.284   1.032 -0.3742 -0.0823 -0.1339
 1998W        W15412   7.580  14.809   3.754 -0.0523 -0.3144  0.0177
 1999W        W15413   9.888   0.110   3.269  0.1613  0.0473  0.0579
 2000W        W15414   0.930   7.699  15.188  0.2474 -0.2131  0.0133
 2001W        W15415   8.802   7.864   5.761 -0.1831 -0.0483  0.0806
 2002W        W15416  12.583  15.512  14.643 -0.1721 -0.0358 -0.1260
 2003W        W15417  12.131   0.019  16.058 -0.1480  0.2626  0.1363
 2004W        W15418   1.190   2.227  12.988 -0.0013  0.2109 -0.0114
 2005W        W15419  10.249   3.896   0.272  0.1190 -0.3291 -0.0687
 2006W        W15420  13.400  14.130  11.238  0.2789  0.0220  0.1697
 2007W        W15421   8.675   9.154  12.420  0.3471 -0.0335 -0.0084
 2008W        W15422  10.093  17.577   0.116  0.2442 -0.4291  0.0417
 2009W        W15423   3.507  11.873  15.483  0.1289 -0.2790 -0.3051
 2010W        W15424   4.636  12.200   2.157  0.1244 -0.1099  0.1694
 2011W        W15425   5.628   5.814  10.240 -0.0941  0.3740  0.0665
 2012W        W15426   0.045   3.560  11.505  0.0684 -0.2062 -0.2856
 2013W        W15427  13.581   8.077  12.921  0.0663 -0.0996 -0.2494
 2014W        W15428  16.416  11.394  12.530  0.0218 -0.2308 -0.2238
 2015W        W15429   1.277   0.177   0.196 -0.2596 -0.1889  0.0855
 2016W        W15430   4.905   7.372   5.167 -0.1049 -0.3469  0.1613
 2017W        W15431   3.834  17.964  12.335 -0.0440 -0.1693 -0.0544
 2018W        W15432   3.935  14.805   3.666 -0.2071  0.1518 -0.0293
 2019W        W15433  13.250  13.784   4.595  0.0683  0.2927 -0.1832
 2020W        W15434  16.181  16.986   2.699 -0.1336  0.5582  0.0050
 2021W        W15435   4.328   4.062  10.570 -0.0741 -0.0235  0.3079
 2022W        W15436  11.260  12.579  13.494 -0.2060  0.0845  0.1932
 2023W        W15437   4.154   5.547  13.035  0.3067  0.2247 -0.0592
 2024W        W15438  17.714   0.074  14.547  0.0481 -0.3106  0.2482
 2025W        W15439   9.362   1.326  14.522 -0.3305 -0.0212 -0.0551
 2026W        W15440   3.221  17.931   1.467 -0.1524  0.1498 -0.1237
 2027W        W15441   0.940   7.057  11.460  0.2792  0.1288  0.0983
 2028W        W15442   3.655  15.038  14.156  0.3509 -0.1611 -0.2324
 2029W        W15443  13.706  10.829   0.189 -0.0413 -0.2267  0.0180
 2030W        W15444   6.986  11.088  13.683  0.0136 -0.0473  0.2296
 2031W        W15445  14.851  18.063   0.118 -0.0266 -0.0875 -0.2147
 2032W        W15446   5.420  13.795   3.798  0.1365  0.0184  0.2134
 2033W        W15447  17.826  10.464  12.064  0.0779  0.0965 -0.3017
 2034W        W15448  14.110  13.841  11.286 -0.0875 -0.0736  0.1427
 2035W        W15449  11.082  14.853   4.801 -0.0247  0.1296  0.3920
 2036W        W15450   9.842  10.678  10.751 -0.0831  0.3414  0.1137
 2037W        W15451  14.758  13.206   6.051 -0.2936 -0.2543  0.0335
 2038W        W15452  14.295   7.624  10.360  0.3514  0.0410 -0.0178
 2039W        W15453  17.600   8.277   4.647  0.0295 -0.2415 -0.3306
 2040W        W15454   0.273  16.813   1.634 -0.0887 -0.1585 -0.0759
 2041W        W15455  16.746   2.344   1.649 -0.0165  0.0752 -0.0383
 2042W        W15456  17.805   1.676   3.311  0.1521  0.0988  0.1541
 2043W        W15457  12.133  17.537  15.796  0.0046 -0.2448  0.0441
 2044W        W15458  14.641  11.640  14.574  0.0200  0.1746  0.0429
 2045W        W15459   1.908  10.084  15.493  0.0495 -0.1730  0.0111
 2046W        W15460  16.822   8.317   3.555 -0.1226  0.2452  0.1838
 2047W        W15461  10.383   1.087   5.962  0.0104 -0.2869 -0.0579
 2048W        W15462   1.231  17.553   3.427  0.0732 -0.0787  0.0773
 2049W        W15463  12.849  14.977   5.991 -0.3148  0.1256 -0.1756
 2050W        W15464   7.458   9.141   1.166  0.2098  0.2516  0.1567
 2051W        W15465   9.110  15.791  14.530 -0.1902  0.1838 -0.2316
 2052W        W15466  10.563  18.130  13.873  0.2269 -0.1727 -0.0314
 2053W        W15467  14.868   9.182  13.302  0.1312 -0.1390 -0.1604
 2054W        W15468  13.114   7.385  12.546 -0.0304 -0.1689  0.4228
 2055W        W15469   1.538  14.583   4.719 -0.2064  0.2283  0.0296
 2056W        W15470   3.569   2.354   3.551  0.0615 -0.0063 -0.1820
 2057W        W15471   0.677  12.845  11.966 -0.1172 -0.1277 -0.3077
 2058W        W15472   5.170  12.314   5.289 -0.1428 -0.1616 -0.4004
 2059W        W15473   4.294   9.540  16.047  0.0369 -0.3388  0.0507
 2060W        W15474  10.137   0.024   0.088 -0.2806 -0.1813  0.2006
 2061W        W15475  16.170   8.425  15.777  0.1428 -0.2199 -0.0933
 2062W        W15476  11.706  17.816  15.666  0.0697 -0.1333  0.0812
 2063W        W15477  14.698  14.380  11.275 -0.2641 -0.0655  0.1687
 2064W        W15478  16.866  14.588   5.288 -0.1046  0.3680  0.0224
 2065W        W15479   9.513  12.050  13.834  0.1094 -0.4682  0.1286
 2066W        W15480   7.921   0.074  16.311  0.0881  0.1845 -0.0840
 2067W        W15481   9.103   4.293  14.667 -0.0489 -0.1025  0.1917
 2068W        W15482   1.263   9.808  15.454  0.2203 -0.2355  0.0720
 2069W        W15483   0.439   5.969   3.240  0.0222 -0.0593 -0.3063
 2070W        W15484   3.867  16.568  11.771 -0.1745  0.0419 -0.2811
 2071W        W15485   1.889   2.465   0.713  0.0132 -0.0189 -0.0979
 2072W        W15486   7.921  17.305  13.487 -0.0538  0.2420  0.1379
 2073W        W15487  12.086   2.507  16.209  0.1727 -0.0488 -0.1413
 2074W        W15488   3.321  17.057  11.359 -0.2343 -0.2390  0.0612
 2075W        W15489  14.658   9.380   3.563 -0.2307 -0.5509  0.1179
 2076W        W15490  17.052  16.969  13.146 -0.2295  0.1032  0.4084
 2077W        W15491   2.330  14.884  13.207  0.0578  0.2179 -0.1741
 2078W        W15492  13.440   7.125   1.019  0.0988  0.2116 -0.0868
 2079W        W15493   4.276  15.301  11.951  0.0990 -0.2988 -0.3123
 2080W        W15494  16.650   4.310  15.658 -0.4319  0.0329 -0.0321
 2081W        W15495   3.061  13.521   3.008 -0.1131 -0.1215 -0.2034
 2082W        W15496   7.694   5.227   0.099 -0.1572 -0.3915  0.0449
 2083W        W15497  13.086   2.340   3.177 -0.2594  0.3715 -0.1363
 2084W        W15498  12.379  17.481   4.748 -0.1574  0.0896 -0.0441
 2085W        W15499  17.371   3.253   3.846 -0.1261  0.0128 -0.1305
 2086W        W15500   5.081  10.469   2.131  0.0717  0.0765  0.0991
 2087W        W15501   0.187   5.269   2.375  0.3066  0.2673 -0.1427
 2088W        W15502   5.242  17.006   3.009 -0.1457  0.1339 -0.0391
 2089W        W15503   4.837  17.860   3.872 -0.1739 -0.1139 -0.3705
 2090W        W15504   0.715  15.989   3.461 -0.2449 -0.0746 -0.2389
 2091W        W15505  18.216   9.477  10.978  0.2527 -0.1613 -0.1995
 2092W        W15506  15.129   4.847   1.875 -0.0713  0.0027  0.3190
 2093W        W15507  10.905  17.208   4.206  0.0069  0.1385 -0.2064
 2094W        W15508   2.851   1.976   2.466 -0.2187  0.3216 -0.1179
 2095W        W15509  16.011  12.947  13.107  0.0161  0.2592  0.0604
 2096W        W15510   6.580  17.672  13.028 -0.0232  0.1106 -0.1092
 2097W        W15511   1.006  15.600  14.202  0.0638 -0.3006 -0.1764
 2098W        W15512   0.774   2.136   3.549 -0.4374 -0.1529 -0.2671
 2099W        W15513  14.176   1.264   0.977  0.1165 -0.0209 -0.0774
 2100W        W15514  17.191   7.586  16.219 -0.1560 -0.3412  0.4281
 2101W        W15515   8.889  18.121   1.796  0.0213  0.3221 -0.0080
 2102W        W15516   8.429  13.449   3.810 -0.0736  0.0326 -0.1030
 2103W        W15517  15.619   9.514   3.749 -0.2077 -0.3192 -0.2021
 2104W        W15518  15.994   3.758  11.389 -0.0467 -0.0070 -0.0838
 2105W        W15519   3.657   9.824   1.134  0.0931  0.3498 -0.0849
 2106W        W15520  15.923  11.170  11.017 -0.1081  0.0798  0.2146
 2107W        W15521   5.484   3.302   3.270 -0.0491  0.1803 -0.1440
 2108W        W15522   6.121   2.701   4.697 -0.0126 -0.0685  0.2821
 2109W        W15523   2.442  16.093  11.982  0.2381  0.1225  0.3542
 2110W        W15524  11.859  12.038  11.182 -0.0608 -0.2043 -0.0896
 2111W        W15525   0.920   3.996   0.070 -0.0565 -0.1114  0.0495
 2112W        W15526   7.368   7.293   2.552  0.0112 -0.2581  0.2875
 2113W        W15527   0.075  15.288   3.139 -0.2019  0.0305  0.0974
 2114W        W15528   8.293   8.858  12.697  0.1471 -0.0875 -0.0163
 2115W        W15529  17.905  12.558   0.452  0.3350  0.0629 -0.4463
 2116W        W15530   6.270  13.879  15.043  0.2868 -0.1356  0.2635
 2117W        W15531   7.668  13.048  12.245 -0.0658 -0.2636 -0.2998
 2118W        W15532  11.237   9.659   0.630  0.2137  0.0140  0.1553
 2119W        W15533   4.620  12.283  10.590  0.0958 -0.1000 -0.0989
 2120W        W15534  13.435   0.768  13.697  0.1273  0.2469 -0.2514
 2121W        W15535  14.112  10.543   5.450  0.0664  0.0048  0.0197
 2122W        W15536   8.488  11.893   2.627 -0.1366  0.0738 -0.0388
 2123W        W15537  12.079  18.169   3.420  0.2340 -0.0901 -0.1674
 2124W        W15538   9.569  11.726  10.806 -0.1601 -0.1894 -0.0169
 2125W        W15539   5.832   7.136  12.455 -0.0516 -0.1331  0.0536
 2126W        W15540   1.390   3.127   5.770 -0.0347 -0.1260 -0.0745
 2127W        W15541  14.478   2.444   1.787  0.2511  0.2559  0.1769
 2128W        W15542  11.471   6.397   5.362 -0.0772 -0.1492  0.2553
 2129W        W15543   2.734   7.027   5.768  0.0535  0.2150 -0.1006
 2130W        W15544  16.571   5.690  16.301  0.0641  0.0369  0.1307
 2131W        W15545   0.836  12.581  16.240 -0.3373  0.0249 -0.1787
 2132W        W15546  11.061  11.269  13.280  0.0574 -0.3083  0.0985
 2133W        W15547   8.200   2.595  12.312  0.0680 -0.0985  0.0022
 2134W        W15548   4.039  18.248  13.142 -0.1404  0.1879  0.2654
 2135W        W15549  13.127   5.583  14.770  0.0877 -0.1223  0.1130
 2136W        W15550  12.097   8.529   3.157  0.0851 -0.0430  0.0271
 2137W        W15551   3.267   8.070   5.531 -0.0599 -0.1302  0.1385
 2138W        W15552   0.615   2.224  15.624  0.4433  0.1180  0.1356
 2139W        W15553  13.921  14.992   1.023 -0.2038 -0.1011 -0.0670
 2140W        W15554  12.258   1.240   4.374 -0.1280 -0.0866  0.0835
 2141W        W15555   1.431  16.404  15.975  0.2042  0.0695  0.0363
 2142W        W15556  17.648  14.861   3.152  0.0700 -0.1546  0.3936
 2143W        W15557   3.136  10.079  12.268 -0.1010 -0.3417 -0.1383
 2144W        W15558   7.291  17.628   2.568 -0.3711  0.2520  0.1360
 2145W        W15559   3.862   7.995   0.500  0.0196 -0.2833  0.1627
 2146W        W15560   7.344   8.487  14.222  0.0057  0.0303 -0.0502
 2147W        W15561  16.303   6.836   5.067 -0.0685 -0.0963  0.1482
 2148W        W15562   9.326   3.635   1.093 -0.0707 -0.0131  0.0373
 2149W        W15563  17.549  13.678   2.318  0.1676  0.0642  0.1419
 2150W        W15564   9.991  13.124   3.499  0.3355  0.1936 -0.3880
 2151W        W15565   8.085   3.835  13.637 -0.4797  0.2464  0.0335
 2152W        W15566   9.617   2.944   6.661  0.0840 -0.0168 -0.0508
 2153W        W15567   8.855   1.380   0.280  0.1044  0.0504  0.0375
 2154W        W15568  12.295   7.078   1.626 -0.0484  0.0616  0.1787
 2155W        W15569  12.498  10.294  13.474 -0.0762  0.3328  0.1793
 2156W        W15570   4.227  15.750  14.817  0.0444 -0.2354  0.3957
 2157W        W15571  10.560   4.460  10.917  0.1672 -0.3001  0.0987
 2158W        W15572   0.903  10.907   3.068  0.0746  0.0863  0.1445
 2159W        W15573  13.719   6.440  13.154 -0.1597  0.1620  0.0145
 2160W        W15574  13.368  12.268  11.394  0.1130 -0.0270  0.0266
 2161W        W15575   8.286  11.517   3.428 -0.0278  0.1076  0.1943
 2162W        W15576   3.147   5.854   5.009  0.1658  0.1776 -0.2182
 2163W        W15577   6.623   9.954  10.495 -0.1367 -0.1485 -0.0053
 2164W        W15578  11.144  15.613   5.762 -0.0200 -0.0360  0.1625
 2165W        W15579   1.872  13.343  15.808  0.0299 -0.2404  0.0807
 2166W        W15580  14.733   0.918   2.691  0.1650 -0.1318 -0.0995
 2167W        W15581  16.480  15.223  13.147 -0.2146  0.2606 -0.4915
 2168W        W15582   6.698   4.351  15.021  0.1158  0.1879 -0.0364
 2169W        W15583  17.568   6.079  14.994  0.2275  0.0677  0.3935
 2170W        W15584  16.423  10.751  16.111 -0.1087 -0.2282  0.0308
 2171W        W15585  12.678   5.017  10.289 -0.3028  0.1930 -0.0598
 2172W        W15586   9.631  15.491   5.582  0.1662  0.0332 -0.2068
 2173W        W15587  11.997  11.424  13.069 -0.2228 -0.1299 -0.2114
 2174W        W15588  10.303  14.818   3.364  0.4061 -0.1811  0.2381
 2175W        W15589   3.150  17.977  11.475  0.0207  0.1249 -0.1459
 2176W        W15590   1.978   0.790  12.289  0.1669  0.3854 -0.2866
 2177W        W15591   9.769   7.030   0.822  0.1089  0.0348  0.0161
 2178W        W15592  11.750  12.679  13.724 -0.5878 -0.2259 -0.0001
 2179W        W15593   6.970   8.222  13.411  0.0377 -0.1674 -0.1475
 2180W        W15594  13.017  11.961   3.377  0.2247  0.2724 -0.0279
 2181W        W15595   7.110  10.348   5.046 -0.2432 -0.0576 -0.3673
 2182W        W15596  12.157  16.604   4.100 -0.1956 -0.2402 -0.3084
 2183W        W15597   0.193   5.953  11.557  0.2284 -0.2399 -0.1300
 2184W        W15598   1.603   9.506  14.631  0.0416 -0.0137 -0.0900
 2185W        W15599   8.703  10.952  12.460 -0.0045  0.0362  0.1664
 2186W        W15600   2.387  18.054  14.292 -0.1852 -0.1223 -0.0575
 2187W        W15601   2.943   8.863   3.553 -0.0289 -0.0437  0.1853
 2188W        W15602   4.631  18.191   0.095 -0.0444 -0.0386 -0.0137
 2189W        W15603  18.226  16.553  11.950  0.0039  0.4122 -0.1205
 2190W        W15604  17.281   8.142   3.897 -0.1856  0.0507  0.1170
 2191W        W15605   2.312   2.454   1.423 -0.1243 -0.0621  0.3170
 2192W        W15606   3.552   1.506  13.769  0.2671 -0.1730 -0.1164
 2193W        W15607   2.878  11.296   6.527 -0.4915  0.0815  0.0313
 2194W        W15608  10.276  16.403   0.056 -0.3237  0.1453  0.0213
 2195W        W15609   9.570  12.977  11.836 -0.1028 -0.2500  0.3870
 2196W        W15610   0.725   2.661  11.261 -0.0859 -0.1235  0.0552
 2197W        W15611   5.732  13.383   3.972 -0.1216 -0.1319  0.1683
 2198W        W15612   8.807  18.200   5.725 -0.0114  0.0910  0.0158
 2199W        W15613  13.125  11.328  14.162 -0.1406 -0.2009  0.2005
 2200W        W15614   9.279  18.142  14.291 -0.0270 -0.3427 -0.2346
 2201W        W15615  11.128   3.634  13.581 -0.1058 -0.0465 -0.0574
 2202W        W15616  12.980  12.600   1.025 -0.2353  0.0924  0.0897
 2203W        W15617  10.378  13.365   0.995 -0.1546  0.1856  0.4120
 2204W        W15618   9.694   9.442  15.414 -0.1043 -0.2127  0.1143
 2205W        W15619  15.620   8.670  12.855 -0.1929 -0.3427 -0.1438
 2206W        W15620  15.506   7.580  11.814  0.0687  0.1454 -0.0401
 2207W        W15621   6.603  12.407   2.674 -0.1908 -0.0609 -0.1188
 2208W        W15622  10.848   8.984   5.428  0.5120  0.2345 -0.2349
 2209W        W15623   4.266  15.737   0.850  0.3944  0.0356  0.1694
 2210W        W15624   6.183  12.142  13.239  0.0084 -0.0872 -0.1657
 2211W        W15625  13.055   6.678   0.867  0.1032 -0.2076 -0.0793
 2212W        W15626   7.882   7.602   2.174  0.0019  0.1445 -0.0395
 2213W        W15627  18.199  11.844  15.480 -0.1252  0.0160  0.1156
 2214W        W15628  15.606  12.013  12.204 -0.0087 -0.1283  0.0845
 2215W        W15629   6.076   0.944   5.099 -0.2683  0.1073  0.2602
 2216W        W15630  15.681   3.781   0.210  0.2817  0.1309 -0.0125
 2217W        W15631   6.177   7.331   4.040  0.1110 -0.0271 -0.0308
 2218W        W15632   6.233   6.674  11.739  0.1509  0.0273 -0.1623
 2219W        W15633  13.266  18.118  12.654  0.1930 -0.0145 -0.1086
 2220W        W15634  14.003  17.130   4.297 -0.0514 -0.1328  0.2462
 2221W        W15635   9.362  15.580   1.224 -0.0538 -0.0328  0.1853
 2222W        W15636   0.098   7.247   2.074  0.0190 -0.0206 -0.0008
 2223W        W15637  15.070   2.256   3.005  0.2458  0.3225  0.0677
 2224W        W15638  10.039   9.454   5.030  0.2952 -0.0900  0.0123
 2225W        W15639   4.979  13.567  11.706  0.1888 -0.2754  0.2202
 2226W        W15640   2.015   2.783  15.883  0.1015 -0.0743  0.0347
 2227W        W15641   2.333  10.620   5.798  0.0446  0.0599 -0.2104
 2228W        W15642   8.242  11.443  15.511 -0.0080 -0.0953  0.0824
 2229W        W15643  16.706  11.245   4.665 -0.0780  0.2893 -0.1136
 2230W        W15644   2.376  14.082   1.772 -0.4147  0.0232  0.0962
 2231W        W15645   1.591  10.832   4.699  0.0033 -0.1591 -0.2200
 2232W        W15646  10.453   1.709   6.315 -0.0336  0.1138  0.0209
 2233W        W15647   2.325   9.422   1.803  0.0157 -0.0591  0.3747
 2234W        W15648  13.903   7.961  11.091 -0.0677 -0.1519  0.0272
 2235W        W15649   2.087   5.384  15.512  0.1435  0.1308  0.0261
 2236W        W15650   7.506   6.017   0.741 -0.1817  0.0633 -0.0200
 2237W        W15651  17.683   7.694  12.692 -0.3150  0.1010 -0.4434
 2238W        W15652   9.303   0.062  13.696 -0.1201 -0.0121  0.1982
 2239W        W15653   7.644   8.631  14.684 -0.0631  0.0155 -0.2226
 2240W        W15654  17.992  16.102   3.269 -0.1163  0.0815 -0.1753
 2241W        W15655  11.042   3.382  11.740  0.1271  0.1892  0.2474
 2242W        W15656  16.066  11.982  15.892  0.0558  0.0692  0.3542
 2243W        W15657   5.712  11.367   6.070 -0.2872  0.0128  0.0368
 2244W        W15658  13.330   6.280   0.753  0.3135  0.2019  0.2245
 2245W        W15659   1.330  12.875   0.471 -0.4061  0.2446  0.0706
 2246W        W15660   7.424  13.032   1.927  0.1170  0.2314 -0.1069
 2247W        W15661   7.278  10.782  13.971 -0.0369  0.2010  0.0299
 2248W        W15662   2.355   8.007   5.486  0.2279  0.2505  0.0968
 2249W        W15663   2.871  11.399   1.077  0.1129  0.2234 -0.2577
 2250W        W15664  14.658   8.887  13.653  0.2124  0.3787  0.1361
 2251W        W15665   4.423   5.205   2.253  0.4914 -0.3228  0.1757
 2252W        W15666  16.347   9.376  13.021  0.1586 -0.2823  0.1018
 2253W        W15667   6.499   0.834   5.446 -0.1036  0.1067 -0.0677
 2254W        W15668  14.572  12.538   4.158  0.0373  0.3322 -0.0225
 2255W        W15669   7.830  15.341   2.094  0.3791  0.1267  0.0198
 2256W        W15670   6.386  17.122  16.183 -0.1555  0.0655  0.1235
 2257W        W15671   6.742  17.952   1.483  0.1545 -0.0371  0.1630
 2258W        W15672  16.880   1.517   5.384 -0.1935  0.2824 -0.0630
 2259W        W15673  12.829   0.240   6.318  0.1109 -0.0485  0.3228
 2260W        W15674   4.867   0.753  13.401 -0.0574  0.0388 -0.1299
 2261W        W15675  11.049  12.854   2.662  0.0396 -0.1256  0.0772
 2262W        W15676   7.918   4.134   0.722 -0.2401  0.1829  0.1633
 2263W        W15677  14.141  17.730   4.986  0.1153  0.0700  0.0894
 2264W        W15678   7.789   3.262  14.138  0.0202 -0.2064  0.0186
 2265W        W15679   8.549  10.503   1.287 -0.1043  0.2281 -0.2766
 2266W        W15680  11.755   4.145  10.588  0.1971 -0.2263  0.2508
 2267W        W15681   2.444  15.110   1.783 -0.1047  0.0285 -0.1002
 2268W        W15682  17.526  17.815  14.729  0.0297 -0.0494 -0.2851
 2269W        W15683   8.745   9.086   4.915  0.0442  0.3296  0.0659
 2270W        W15684  12.219   9.285   5.045 -0.0282 -0.0141  0.4199
 2271W        W15685  14.221   2.610  15.177  0.0985  0.5730 -0.0346
 2272W        W15686   1.721  14.626  13.070 -0.0265  0.0819  0.0856
 2273W        W15687   4.710   6.932   0.742 -0.2392 -0.1446 -0.0675
 2274W        W15688   6.597  17.971   0.313  0.0675 -0.2519 -0.1754
 2275W        W15689   7.169  18.217  12.613  0.0759  0.4314  0.1500
 2276W        W15690  14.122  14.590  16.466 -0.1543  0.1263  0.0919
 2277W        W15691   8.057   1.754   1.798  0.2430 -0.1094 -0.1513
 2278W        W15692   5.660   5.947   6.278  0.1638 -0.2427  0.0570
 2279W        W15693  17.080   1.557   4.943 -0.0063  0.0113 -0.3523
 2280W        W15694   1.212  12.831  14.827 -0.0544 -0.1138  0.0085
 2281W        W15695  16.196  16.571   5.014  0.0630  0.0558  0.0175
 2282W        W15696   7.468   9.352   2.987 -0.2329 -0.1443  0.0734
 2283W        W15697   6.909  10.918  13.170  0.1313 -0.1009 -0.1129
 2284W        W15698   0.111  16.920  13.280  0.5789 -0.1261 -0.2179
 2285W        W15699   4.137  14.862  11.097 -0.1800 -0.0904 -0.1447
 2286W        W15700  12.399  15.358   2.070 -0.3400  0.1711  0.0224
 2287W        W15701   7.075  16.085   6.162  0.1110  0.2085  0.0596
 2288W        W15702   7.322   3.010  14.436 -0.3363  0.2359 -0.4050
 2289W        W15703   0.685  12.701   4.198  0.3397 -0.3980 -0.1558
 2290W        W15704   8.228  15.505   4.777  0.1029 -0.2933  0.2143
 2291W        W15705   1.621  17.767   0.981  0.0319 -0.3351  0.0574
 2292W        W15706   8.995   2.574  13.057  0.1647 -0.2406 -0.0782
 2293W        W15707   0.890  14.934   4.584 -0.0641  0.0576  0.0061
 2294W        W15708  17.740  15.030   5.924  0.0881  0.1633  0.5062
 2295W        W15709   3.895   1.532   2.177  0.1930  0.1417  0.0701
 2296W        W15710   6.586   4.137   2.203 -0.0097  0.1138  0.3388
 2297W        W15711   4.293  11.281  12.973 -0.1267 -0.0807  0.2675
 2298W        W15712   2.584   6.016   2.891  0.0881  0.0769 -0.1509
 2299W        W15713   0.252   2.345   3.609 -0.0072 -0.2461 -0.0128
 2300W        W15714  16.216   7.580  12.477 -0.1306 -0.0259 -0.1422
 2301W        W15715  14.868   4.815  14.047 -0.0356 -0.2993 -0.2970
 2302W        W15716  15.700   2.796   1.106  0.1564  0.1800  0.1163
 2303W        W15717   6.534   6.890   2.786 -0.1687  0.2683 -0.3307
 2304W        W15718   6.694   0.133   2.424 -0.1867 -0.1524 -0.1305
 2305W        W15719  14.867   7.403   1.151 -0.0055 -0.2217 -0.0922
 2306W        W15720   1.711  13.932   2.070  0.3758 -0.0526 -0.1650
 2307W        W15721  12.238  12.805  14.300  0.1136  0.2143 -0.3251
 2308W        W15722  12.212   1.561  15.996 -0.2059 -0.3113  0.2947
 2309W        W15723  10.333   1.408   4.800  0.2575  0.1007 -0.1119
 2310W        W15724   1.673  16.702   3.213 -0.1062  0.3562 -0.1152
 2311W        W15725   5.110   5.814   2.354  0.1088  0.2667  0.0396
 2312W        W15726  10.213   3.845  11.773  0.1035 -0.2715  0.0616
 2313W        W15727  13.300   9.432  10.482 -0.2128 -0.1348 -0.2216
 2314W        W15728   4.909   3.689  10.699  0.0843 -0.1405  0.2537
 2315W        W15729  14.228   5.688   5.260  0.0094 -0.0947 -0.0222
 2316W        W15730  12.263   3.062   2.033 -0.0305 -0.0166 -0.1700
 2317W        W15731   4.933  16.475  15.048 -0.0505 -0.0383 -0.1716
 2318W        W15732   7.084   9.375  13.103 -0.4326 -0.2618  0.1445
 2319W        W15733   2.903   9.744  14.016  0.0887 -0.3658 -0.0092
 2320W        W15734   5.302  17.652  13.389 -0.3123 -0.4485  0.1637
 2321W        W15735   8.851   7.552  11.346 -0.0660  0.2245 -0.2788
 2322W        W15736  10.123   3.913  16.347  0.1106  0.1003  0.1028
 2323W        W15737   9.494  16.859   4.189 -0.2380 -0.3217 -0.0736
 2324W        W15738   8.694  16.370   4.665 -0.1140  0.2181  0.2169
 2325W        W15739   3.519  11.627   2.362 -0.3168 -0.0782 -0.1436
 2326W        W15740   2.666  17.014   1.045 -0.0627  0.0332 -0.0714
 2327W        W15741   0.803  13.458  15.989  0.3464  0.2273  0.0048
 2328W        W15742   1.158   4.166   1.072  0.0434 -0.0072 -0.1870
 2329W        W15743   6.581  15.832  13.990 -0.2149  0.0056 -0.2826
 2330W        W15744  14.307  14.852   0.694  0.2421 -0.1021 -0.3123
 2331W        W15745   9.576   3.410   2.367 -0.2538  0.0678  0.3785
 2332W        W15746  15.410   5.436   3.571 -0.1863  0.3596 -0.3959
 2333W        W15747   8.041   7.348  12.440  0.0131 -0.3604  0.0299
 2334W        W15748  10.878   5.759   2.069 -0.1666 -0.1896 -0.3648
 2335W        W15749  14.158  15.519  11.735  0.0981  0.1367  0.0075
 2336W        W15750   0.863  17.543   0.066 -0.1459 -0.0956  0.1955
 2337W        W15751  12.747  11.460   4.073  0.1835 -0.3402 -0.1583
 2338W        W15752   7.060   2.420   0.947 -0.3808 -0.0346  0.5036
 2339W        W15753  15.420   6.267   3.878 -0.0248  0.0460  0.2122
 2340W        W15754  15.505   6.283  12.786 -0.0235  0.0934  0.0063
 2341W        W15755   4.543   1.955   0.530 -0.0189  0.0182  0.0275
 2342W        W15756   0.244   5.690  15.321  0.1936 -0.0862 -0.0014
 2343W        W15757  13.142  13.236  13.925 -0.0809  0.3196 -0.0640
 2344W        W15758  13.078   0.895  15.063 -0.0454  0.2385 -0.2138
 2345W        W15759   9.067  17.454  13.573  0.2118  0.1085  0.0278
 2346W        W15760  12.815  15.663  11.465 -0.1217  0.0465  0.3350
 2347W        W15761  10.660   7.961   1.489  0.0768 -0.5238 -0.0299
 2348W        W15762  17.916   7.195  12.820 -0.1620  0.2338 -0.2335
 2349W        W15763  16.942  12.947   4.699  0.2158  0.1457  0.0245
 2350W        W15764  14.546   2.317   2.269 -0.0340 -0.2987 -0.0470
 2351W        W15765  13.635  16.932   3.922  0.0118 -0.1270  0.1453
 2352W        W15766   1.663  17.016   2.876 -0.2782  0.0499  0.4290
 2353W        W15767  11.475   7.603  14.862 -0.3334 -0.1813 -0.3871
 2354W        W15768  11.264  13.171   0.566  0.1221  0.0135 -0.0087
 2355W        W15769  13.784   5.773   2.017 -0.0455 -0.1590  0.1258
 2356W        W15770  11.026   2.670   3.205 -0.1087 -0.2183 -0.1049
 2357W        W15771   2.749   2.144  14.844 -0.0714  0.3678  0.0756
 2358W        W15772  15.589   9.254  15.554 -0.0584  0.0608 -0.1825
 2359W        W15773  11.393   4.797   1.935 -0.0038 -0.2967 -0.1480
 2360W        W15774  12.504  13.359   6.941 -0.1160  0.2785 -0.2931
 2361W        W15775   5.842  12.980   3.649  0.3829 -0.0310  0.2179
 2362W        W15776  16.798   1.997   4.177 -0.0128 -0.1039  0.0493
 2363W        W15777   7.352  11.399  16.374 -0.1260  0.0475 -0.0123
 2364W        W15778   2.644   7.100  10.588  0.0070  0.0360 -0.0970
 2365W        W15779   0.362  10.653   3.436  0.1128  0.1482 -0.0554
 2366W        W15780   4.074  17.847   1.385 -0.1758  0.1578 -0.0061
 2367W        W15781   3.697   0.828  13.678 -0.0804 -0.3460 -0.0914
 2368W        W15782  14.874  15.019   6.146 -0.1125  0.2501 -0.2418
 2369W        W15783   4.098  11.191  16.130 -0.0845  0.2501  0.1405
 2370W        W15784  14.759  14.586   5.369  0.0473  0.0086  0.0659
 2371W        W15785   4.756  15.041  12.278  0.1616  0.1763 -0.0204
 2372W        W15786   9.651   2.433  15.564 -0.1507  0.3041  0.4136
 2373W        W15787   5.064   4.542   3.516  0.1319  0.3780  0.1094
 2374W        W15788  17.953   3.101  16.476 -0.0737  0.1587 -0.0324
 2375W        W15789   3.847   4.674   0.435  0.1944 -0.1126 -0.0244
 2376W        W15790   1.576  10.418   1.861  0.0652  0.1120 -0.2134
 2377W        W15791   1.550  12.375   0.427 -0.1271  0.2017 -0.1854
 2378W        W15792  16.774   0.200  11.022 -0.0078  0.0994 -0.0064
 2379W        W15793   8.484   4.274  13.766 -0.0472 -0.0014  0.1220
 2380W        W15794   1.656   3.465   3.178  0.1653  0.1263 -0.0027
 2381W        W15795  11.143   7.546   0.820 -0.2073 -0.1179  0.0124
 2382W        W15796   1.055  12.419  11.659  0.2274  0.2046  0.0179
 2383W        W15797   4.580  14.093   2.272 -0.0727  0.2792  0.2277
 2384W        W15798  15.545  12.624  16.364  0.0172 -0.1803 -0.0525
 2385W        W15799   3.635   7.973   1.045 -0.0941 -0.2494 -0.3605
 2386W        W15800   3.398   7.907  14.459  0.2378  0.1103 -0.2802
 2387W        W15801   0.020  13.199   3.385  0.1110 -0.1625  0.1889
 2388W        W15802   2.746  15.855  12.318  0.0942  0.1855 -0.1018
 2389W        W15803   0.970   9.194   0.543  0.1500 -0.1873 -0.0311
 2390W        W15804   2.136  10.122  15.044 -0.2204 -0.1510  0.0428
 2391W        W15805  12.244   1.913   6.411 -0.0013  0.0542 -0.0565
 2392W        W15806   5.849  14.019   5.466  0.0386  0.1208 -0.0525
 2393W        W15807  15.876   5.797  11.014 -0.1731 -0.0029 -0.2715
 2394W        W15808  14.781   9.408  15.471  0.0992  0.0628 -0.0279
 2395W        W15809   1.090  11.936   6.909 -0.2985 -0.1522 -0.2509
 2396W        W15810   6.590  16.206  14.387 -0.0360  0.0223 -0.2034
 2397W        W15811  13.196   7.176  11.133  0.0935 -0.0305 -0.0552
 2398W        W15812   0.956  14.700  13.824  0.2223  0.1973 -0.2254
 2399W        W15813   9.120   2.554   4.878  0.2430 -0.0648  0.0572
 2400W        W15814  11.496  15.076   1.031  0.1807 -0.0582 -0.3580
 2401W        W15815   7.240   0.552  11.941  0.4127  0.0612  0.0729
 2402W        W15816   9.792   9.356  11.218  0.0403 -0.0546 -0.1780
 2403W        W15817  14.535   6.833   2.603  0.1328  0.3221  0.0596
 2404W        W15818  18.245  17.724  15.435 -0.0221  0.0639  0.2769
 2405W        W15819   7.320  17.738  12.839  0.1057 -0.1185  0.0545
 2406W        W15820  11.925  18.195  12.347  0.2126  0.3718 -0.1107
 2407W        W15821  14.545  14.071   3.718 -0.4149  0.2247  0.1052
 2408W        W15822   3.843  16.592   4.606  0.0220 -0.2982  0.0882
 2409W        W15823   4.696  11.440  11.456  0.2644  0.1355  0.0075
 2410W        W15824  17.569   5.809   0.439  0.2256  0.3596  0.4314
 2411W        W15825   5.034   3.586   3.585  0.0638  0.3365  0.0778
 2412W        W15826   0.345   1.779   6.287  0.1174 -0.2481  0.0061
 2413W        W15827  12.781   6.605  14.654 -0.1192 -0.0810 -0.0113
 2414W        W15828   9.101  17.854  15.722 -0.3201 -0.2289  0.2050
 2415W        W15829  13.760   0.217   2.709 -0.2135  0.1815  0.1290
 2416W        W15830  16.049   7.606  15.807  0.0845 -0.1138  0.1419
 2417W        W15831   6.581  11.256   5.227  0.1831 -0.0010 -0.0553
 2418W        W15832   1.630  11.699  16.356 -0.0455 -0.0025  0.1030
 2419W        W15833   5.364  13.376  13.406 -0.0757  0.0813 -0.0464
 2420W        W15834   0.477   1.590   4.469  0.0688  0.0532 -0.0795
 2421W        W15835   3.258   2.822  15.224 -0.2822 -0.1533 -0.2108
 2422W        W15836  14.350   5.040  10.510 -0.2247 -0.1253 -0.2018
 2423W        W15837  12.789   2.272  16.395 -0.0927  0.0028 -0.0070
 2424W        W15838   8.737   3.662   0.728  0.0480 -0.1493  0.1047
 2425W        W15839  12.171  12.618   0.280 -0.0426  0.1278 -0.0701
 2426W        W15840   5.734  10.577   1.020  0.3280  0.3512 -0.1811
 2427W        W15841   0.179   0.532  10.631 -0.4289  0.0757  0.1709
 2428W        W15842  16.019  12.182  14.960 -0.2448 -0.1738  0.2635
 2429W        W15843   2.629   8.470   2.362  0.2623  0.0548 -0.0498
 2430W        W15844   4.653   3.595   1.266  0.0474 -0.2795  0.0838
 2431W        W15845   5.829   4.583  14.852  0.1299  0.1015  0.2049
 2432W        W15846  17.555  10.722   2.579  0.1967  0.0963 -0.2330
 2433W        W15847   6.266   4.447  11.188 -0.0261  0.1229 -0.1400
 2434W        W15848  12.110  18.153   2.670  0.3113 -0.1397  0.0586
 2435W        W15849  11.791   2.231   3.425 -0.0639  0.2590  0.1464
 2436W        W15850  14.182  11.243  13.433  0.3012  0.1059  0.5274
 2437W        W15851  17.938   8.872   6.083  0.1132 -0.0917 -0.0128
 2438W        W15852   2.884   1.176   0.767 -0.0173  0.1009  0.0607
 2439W        W15853   5.787   0.355  11.420  0.1367  0.1597 -0.1158
 2440W        W15854   0.485  15.071   1.083  0.0199  0.0179  0.1768
 2441W        W15855   4.016   8.190  10.979 -0.4998  0.1625 -0.1893
 2442W        W15856  13.730  16.809   4.807  0.2175 -0.3569 -0.0198
 2443W        W15857   8.094   9.872  11.028 -0.0795  0.1379 -0.0460
 2444W        W15858  15.848   7.064   2.132  0.0690  0.2006  0.4226
 2445W        W15859   6.254   3.595   1.342 -0.1236 -0.3794 -0.1611
 2446W        W15860  13.553   9.088  15.128  0.1904 -0.0509 -0.2885
 2447W        W15861  10.930  11.110  13.861 -0.2200  0.0814 -0.0086
 2448W        W15862   4.944   6.313  11.516  0.1457 -0.1461  0.2327
 2449W        W15863   6.972  11.991   0.517  0.3280  0.4603 -0.0968
 2450W        W15864   5.014   7.909   1.781 -0.0380 -0.1558  0.0114
 2451W        W15865  17.779  11.386   4.236  0.0534 -0.2657  0.1658
 2452W        W15866   3.089  15.424   3.353 -0.0010  0.0793  0.0768
 2453W        W15867  14.331   6.946   1.555 -0.0818 -0.0431 -0.1742
 2454W        W15868   4.837   2.655  14.228  0.1825 -0.1842  0.0210
 2455W        W15869   0.882   4.818   1.520  0.3751 -0.0539 -0.2618
 2456W        W15870  11.243   9.407   3.517 -0.1400  0.1454 -0.0094
 2457W        W15871   6.198  11.253  11.991  0.1222 -0.1394  0.3554
 2458W        W15872  11.811  12.505   3.410 -0.3919 -0.1182  0.1728
 2459W        W15873  11.204   9.282  12.848 -0.1325 -0.1975  0.2100
 2460W        W15874  17.773  14.673   1.972 -0.0458 -0.3861  0.1285
 2461W        W15875   2.370   7.366  11.215 -0.1119  0.0341 -0.0697
 2462W        W15876  17.280   0.352  11.922 -0.1448  0.1780  0.0506
 2463W        W15877  16.387  15.131  11.786 -0.2837  0.0467  0.1216
 2464W        W15878  13.811   5.513  12.876 -0.1126  0.0647  0.1811
 2465W        W15879   1.092  14.135   0.278 -0.0194  0.1428  0.2714
 2466W        W15880   5.581  13.882  13.168  0.1970  0.0947  0.0438
 2467W        W15881   5.767  14.400  12.031  0.1548 -0.1719 -0.2866
 2468W        W15882   3.020  10.093   0.525  0.1328  0.1805  0.2576
 2469W        W15883   4.316   9.826   3.387 -0.2363  0.0560 -0.4500
 2470W        W15884   4.930  11.833   0.688  0.0349  0.0254  0.2413
 2471W        W15885  11.248  16.592   3.621 -0.2075  0.1254 -0.0630
 2472W        W15886  12.466   4.740  12.679 -0.3477  0.0585 -0.1602
 2473W        W15887   5.620   3.616   2.235 -0.0925 -0.0777  0.2804
 2474W        W15888  14.241  15.034   3.927  0.1533 -0.1472  0.2493
 2475W        W15889  13.580  12.458  14.930 -0.1460  0.3658 -0.1175
 2476W        W15890   3.149  10.608  13.225 -0.3451 -0.0540 -0.1748
 2477W        W15891  16.924   7.504  11.286 -0.1642  0.0900 -0.0651
 2478W        W15892   3.097  12.613   4.743  0.1564  0.1399  0.3659
 2479W        W15893   4.227   0.521  13.029  0.1703 -0.0551 -0.0584
 2480W        W15894   2.418   0.725  15.229 -0.0784  0.0548  0.2047
 2481W        W15895  11.561   9.376  16.425 -0.0674 -0.0388 -0.0356
 2482W        W15896   9.967  16.707  15.156  0.0488 -0.2577  0.0682
 2483W        W15897  13.718   7.149  13.783 -0.1355  0.0984 -0.1206
 2484W        W15898  15.476  10.391  16.415 -0.0016  0.1536  0.0859
 2485W        W15899   8.857   6.238  14.288 -0.1068 -0.2926 -0.1538
 2486W        W15900  10.464   2.034   1.798 -0.1322  0.1830  0.1188
 2487W        W15901  13.831   2.411   0.056  0.1792 -0.1661 -0.0359
 2488W        W15902  11.663   7.182  14.983  0.0407  0.1060  0.2478
 2489W        W15903   3.636  11.576   6.013 -0.0930  0.2027  0.2574
 2490W        W15904  16.373   3.328  12.879 -0.0992 -0.1699  0.1061
 2491W        W15905  16.674  17.227   1.913  0.0257 -0.0469  0.0399
 2492W        W15906   4.670  17.439  14.984 -0.1099  0.0677  0.1884
 2493W        W15907   6.346   7.012   4.881  0.1895 -0.2557  0.1222
 2494W        W15908  13.456  14.951  11.629 -0.2353  0.0146 -0.0851
 2495W        W15909   6.750   6.814  11.593 -0.1793  0.1502 -0.1658
 2496W        W15910   7.307   7.665  11.904  0.1976 -0.2549  0.0309
 2497W        W15911   0.234   3.611  12.501  0.3454 -0.1646  0.0068
 2498W        W15912   3.324   8.223   3.065  0.4640  0.0352 -0.1315
 2499W        W15913   9.008   2.593   2.417 -0.0056  0.0525 -0.0645
 2500W        W15914   8.398  11.492  11.913 -0.0018 -0.1033 -0.3666
 2501W        W15915   6.932   9.267   3.765 -0.0857 -0.4991  0.3349
 2502W        W15916  17.551  16.134  16.103 -0.1118  0.1431 -0.7123
 2503W        W15917   4.405   6.219   2.141 -0.0565 -0.3589 -0.0167
 2504W        W15918   2.072   4.587  10.715 -0.1170 -0.0304  0.3422
 2505W        W15919   3.395  13.822  12.442  0.0300 -0.0900 -0.1523
 2506W        W15920   0.951  16.884  11.216 -0.0092 -0.1833  0.1552
 2507W        W15921  16.271  11.220   2.494  0.0185 -0.6338 -0.0631
 2508W        W15922  16.723  15.583   2.545 -0.0019 -0.3442  0.1372
 2509W        W15923  17.221  15.843  14.904 -0.1861  0.4999 -0.3321
 2510W        W15924   1.208  12.373   6.465  0.1069  0.1696  0.1284
 2511W        W15925  10.281   7.239  16.449 -0.1058  0.0049 -0.0489
 2512W        W15926  12.725   9.104  13.332 -0.1622  0.0896 -0.0932
 2513W        W15927  12.892  13.244   0.562  0.0043 -0.0034 -0.0285
 2514W        W15928  17.026  13.831  15.003 -0.1180 -0.0148 -0.2370
 2515W        W15929   1.734   4.514   4.191  0.2022  0.2238  0.3834
 2516W        W15930   0.885   1.567  16.240 -0.0162 -0.1551  0.2248
 2517W        W15931  10.473   3.806   5.545  0.0162  0.3931 -0.0791
 2518W        W15932   8.583   2.115   3.737 -0.2270 -0.0770 -0.0237
 2519W        W15933   8.816  10.370  15.122 -0.1061  0.0156 -0.0002
 2520W        W15934   7.107  14.526   1.088  0.1302  0.0839 -0.1433
 2521W        W15935   6.742  10.074  11.390 -0.2044  0.0393 -0.1490
 2522W        W15936   0.691  17.726   1.738 -0.2611  0.0658  0.3957
 2523W        W15937   8.092   0.762  11.598  0.0108  0.3149  0.0364
 2524W        W15938  13.825  16.357   5.643  0.0715  0.2622  0.1072
 2525W        W15939  10.454  10.205  11.388 -0.0272 -0.0715  0.1061
 2526W        W15940   2.920   9.768   2.326  0.0352 -0.0729  0.0358
 2527W        W15941   8.779   8.754  15.451  0.2314  0.0905 -0.0991
 2528W        W15942   5.266   1.519  15.995  0.0170 -0.0942  0.0814
 2529W        W15943  14.622  16.242  10.151  0.3438 -0.1880  0.1076
 2530W        W15944  16.840   6.559   3.793  0.1291 -0.2444  0.0138
 2531W        W15945   2.221  16.061  15.065  0.1919 -0.0640  0.1407
 2532W        W15946  15.289   8.521   1.130  0.0371  0.1387 -0.1926
 2533W        W15947  15.008   8.815   4.258  0.1218  0.1595 -0.4512
 2534W        W15948  14.661  16.947   3.106  0.0455 -0.4205 -0.1474
 2535W        W15949   5.040  10.118   5.133 -0.1850  0.0076 -0.0032
 2536W        W15950   0.736  17.558   1.212  0.1773 -0.0873 -0.0808
 2537W        W15951  13.811  16.773   2.618 -0.2649 -0.2011 -0.2542
 2538W        W15952   8.574   6.045   2.698 -0.0258  0.0382 -0.2165
 2539W        W15953   0.936  16.377  15.134  0.3959 -0.3283 -0.1425
 2540W        W15954   4.845   8.914  11.027 -0.1450  0.0369 -0.0250
 2541W        W15955  15.477  12.781  15.490  0.3579 -0.1214 -0.0121
 2542W        W15956  13.762  17.569  13.466  0.3013 -0.2899  0.2238
 2543W        W15957  17.922  16.267  15.251 -0.0999 -0.0850  0.4285
 2544W        W15958  16.966   0.649  15.017  0.1551  0.1984 -0.1878
 2545W        W15959   6.963  13.405  14.137  0.1428 -0.0890 -0.1061
 2546W        W15960   5.477   2.230  12.285 -0.0680  0.1206 -0.1742
 2547W        W15961  14.483  14.046  11.546  0.2884 -0.0906 -0.1680
 2548W        W15962   6.370   7.691   2.306 -0.3236 -0.0434  0.0547
 2549W        W15963  11.481   8.984   3.436  0.4273  0.0328 -0.1623
 2550W        W15964   7.879  11.329  16.430  0.0934 -0.3032 -0.2439
 2551W        W15965   7.294  17.099   4.274  0.0364 -0.1152 -0.1811
 2552W        W15966   2.389   9.866  16.292  0.1884  0.0236 -0.0291
 2553W        W15967  11.844  13.489   5.977 -0.0713  0.3463 -0.0104
 2554W        W15968  13.433   8.451   1.685  0.2391 -0.1007  0.1520
 2555W        W15969  15.601   9.070  12.545  0.1882 -0.0198  0.0898
 2556W        W15970  15.481   0.789   1.370 -0.0825 -0.2555  0.0065
 2557W        W15971  17.345   0.870  15.280  0.2892  0.2604  0.0720
 2558W        W15972  17.188   7.951   4.360 -0.1069  0.3951  0.3707
 2559W        W15973   6.860  16.193  13.816  0.3841  0.0832 -0.1258
 2560W        W15974   0.973   3.894   3.256 -0.0185 -0.2148 -0.0345
 2561W        W15975  16.305  13.750  16.172 -0.0121 -0.1332 -0.0334
 2562W        W15976   1.587   6.342  11.081 -0.0140 -0.3288 -0.3727
 2563W        W15977  10.105   7.375  12.140 -0.0079 -0.0456  0.0154
 2564W        W15978   0.061   0.126   3.827  0.1310 -0.0828  0.0821
 2565W        W15979   9.457  11.913  13.221  0.0635 -0.1665  0.2259
 2566W        W15980  14.347   4.391  14.601  0.3550 -0.2421 -0.3239
 2567W        W15981  10.455   5.741  12.455  0.0107  0.2022  0.3445
 2568W        W15982  17.745  16.679   2.506 -0.0029  0.0718 -0.1701
 2569W        W15983   6.301   5.988  14.445 -0.2271 -0.0016  0.0465
 2570W        W15984  15.492  10.517  15.348  0.0474 -0.2312  0.2058
 2571W        W15985   4.487  10.422  10.777  0.0768  0.0635 -0.1767
 2572W        W15986   9.999   4.412  11.539 -0.1716  0.0087 -0.2736
 2573W        W15987   8.744  12.241  12.427 -0.0548 -0.0697 -0.2083
 2574W        W15988  16.255   7.050   0.057  0.0154 -0.1419  0.1585
 2575W        W15989   3.039   6.225  13.266 -0.0094 -0.2418  0.1617
 2576W        W15990  11.199  17.622  11.023  0.0168  0.3277  0.1009
 2577W        W15991  14.549  16.647   0.963  0.1224  0.0152 -0.2141
 2578W        W15992   2.494   3.048  11.641  0.2388  0.0840 -0.2145
 2579W        W15993   9.001  13.344   0.076 -0.3140 -0.0445 -0.2795
 2580W        W15994  17.763   5.208  12.385 -0.0111 -0.0105  0.1152
 2581W        W15995   5.010   1.369  10.812 -0.3015  0.3240  0.2162
 2582W        W15996   1.760  10.160   6.322  0.0752  0.1010 -0.2887
 2583W        W15997   0.995   0.268  13.545 -0.1552 -0.2050  0.3337
 2584W        W15998   0.166  11.888  10.757  0.1472 -0.1148 -0.0794
 2585W        W15999  16.483  12.937  13.235 -0.3174  0.1897  0.0331
 2586W        W16000   9.167  18.098  11.799 -0.2144  0.3731  0.0656
 2587W        W16001   1.759  11.399  15.981  0.0002  0.2138  0.1335
 2588W        W16002  16.376  12.616  12.805  0.1442 -0.3209  0.0926
 2589W        W16003  11.722   2.069   4.204 -0.0889  0.2002 -0.0770
 2590W        W16004   8.185   1.828  16.166 -0.2520 -0.0582  0.0231
 2591W        W16005  13.570  10.721   1.172  0.5752 -0.0110 -0.1887
 2592W        W16006   6.628  15.322  16.014 -0.1286  0.1378  0.2214
 2593W        W16007   1.857  11.205   3.177  0.0358 -0.0919  0.3295
 2594W        W16008   5.712   4.570   1.451 -0.3088 -0.0205 -0.0861
 2595W        W16009   9.752  12.542   0.154 -0.1599  0.1511  0.0073
 2596W        W16010   4.620  12.119   1.670 -0.0828 -0.2520  0.0001
 2597W        W16011  15.505   2.424   5.813  0.1661 -0.1260 -0.1058
 2598W        W16012   8.182  13.888  13.628 -0.4389  0.0953  0.1999
 2599W        W16013   4.266   7.016  12.542 -0.0696 -0.0524 -0.2220
 2600W        W16014   7.310   9.349  15.297  0.0389 -0.3266  0.1776
 2601W        W16015  15.878  10.126  16.163  0.0573 -0.0055  0.0048
 2602W        W16016   9.120   5.408   2.818  0.2125 -0.1410 -0.0955
 2603W        W16017  16.038   8.852   5.503  0.3391 -0.2975  0.0321
 2604W        W16018   6.594   3.212   5.877 -0.0862 -0.1238 -0.2233
 2605W        W16019   0.708  10.040   4.527 -0.2099  0.1208 -0.1613
 2606W        W16020   0.158   1.525   3.972 -0.2519  0.1496 -0.0747
 2607W        W16021   5.174   6.186   0.287  0.1615 -0.4329  0.1344
 2608W        W16022   4.420   3.350   4.286 -0.0962  0.0887 -0.3240
 2609W        W16023   1.125   8.769   2.120 -0.0420  0.0051  0.1006
 2610W        W16024  10.259  11.217  12.960 -0.2304 -0.0525  0.0810
 2611W        W16025   8.598  12.100   4.187  0.0749  0.3025 -0.2914
 2612W        W16026  13.261   4.786  13.164  0.2632  0.0059 -0.1817
 2613W        W16027   9.188   1.383  13.376 -0.5009 -0.0679  0.0350
 2614W        W16028   8.928   9.648  15.274 -0.3759 -0.3382  0.5697
 2615W        W16029  12.794   5.172  11.797 -0.1341  0.1761  0.2424
 2616W        W16030  14.487  17.118   1.230 -0.1455 -0.0049 -0.1045
 2617W        W16031   4.495   2.729  12.096 -0.1454  0.3090  0.2197
 2618W        W16032   3.999   6.966   1.890 -0.1378 -0.1893 -0.0038
 2619W        W16033   6.136  17.883   0.106  0.1097  0.1431 -0.0441
 2620W        W16034  11.227   3.748  13.053 -0.1514  0.2593  0.1236
 2621W        W16035  13.168  10.965  13.827 -0.2365 -0.0962 -0.1201
 2622W        W16036   0.817  16.438   5.607  0.2469 -0.2009  0.0429
 2623W        W16037   8.165  12.537  15.905  0.2732 -0.2628  0.1914
 2624W        W16038   2.948  10.221  14.916 -0.0457 -0.2225  0.2246
 2625W        W16039  13.747   4.288  13.942 -0.1432 -0.1525  0.2237
 2626W        W16040   6.258  16.242   3.610 -0.0205  0.1587 -0.0298
 2627W        W16041  12.642   5.879  12.918  0.0509 -0.1487  0.1160
 2628W        W16042  13.693  16.705  11.652 -0.0968  0.0568  0.0467
 2629W        W16043   0.332  13.161   1.807  0.1587 -0.0400  0.1264
 2630W        W16044  16.961   4.375  10.507 -0.1381  0.3324  0.1149
 2631W        W16045   5.354  11.038   2.174 -0.0748 -0.3991 -0.2018
 2632W        W16046  15.151  16.949   5.898 -0.1076 -0.0536  0.1038
 2633W        W16047   9.880  10.059   1.607 -0.3515 -0.0840 -0.2202
 2634W        W16048   7.203   0.803   1.680  0.1941  0.1006  0.1000
 2635W        W16049  16.529   8.664  14.183  0.0041 -0.0895 -0.0798
 2636W        W16050   0.750  17.490   4.605  0.5324 -0.0319  0.1834
 2637W        W16051   9.459   9.775  13.633 -0.1227 -0.1924 -0.0053
 2638W        W16052   5.006   6.215   1.855 -0.1915 -0.1468  0.0113
 2639W        W16053   0.528   9.048   3.323 -0.1507  0.1789 -0.1474
 2640W        W16054  16.287  10.145   6.245 -0.1239  0.0810 -0.0708
 2641W        W16055   2.360   1.727   4.402  0.2358 -0.1783 -0.0680
 2642W        W16056   8.701   6.035   4.942  0.0140  0.0583  0.1621
 2643W        W16057   9.662   0.671   5.038  0.0090  0.2681  0.1254
 2644W        W16058   4.951   0.215  14.341 -0.0454 -0.2509  0.1115
 2645W        W16059   4.654  15.111   4.232  0.0039  0.2819  0.2457
 2646W        W16060   5.562  17.763   1.192  0.0741 -0.0335 -0.2079
 2647W        W16061  10.655   7.155  11.997  0.2367 -0.1764  0.0737
 2648W        W16062   8.697  16.025  12.608  0.3059  0.1207 -0.0158
 2649W        W16063   6.282   8.579   2.858  0.0527 -0.0618 -0.2709
 2650W        W16064   8.092   8.176  13.927 -0.2271 -0.0339  0.0622
 2651W        W16065   4.543  10.481  15.221  0.0342  0.0187 -0.0296
 2652W        W16066   4.559  18.012  13.026 -0.1972 -0.1229 -0.1835
 2653W        W16067   2.339   7.934  15.405 -0.3268  0.2658 -0.1636
 2654W        W16068   5.273  10.020   3.537  0.3031 -0.1444  0.0421
 2655W        W16069  16.276  10.135   0.794 -0.2119 -0.0565  0.2671
 2656W        W16070   2.452  13.155  13.981  0.0956 -0.0200  0.0784
 2657W        W16071  16.622   2.370   5.558 -0.3731 -0.1459  0.3651
 2658W        W16072   5.289  16.760  15.248  0.2238  0.1902 -0.1218
 2659W        W16073  17.098   9.250   5.644 -0.1415 -0.0217 -0.1006
 2660W        W16074   8.127   0.127   6.064 -0.0197  0.1763 -0.0876
 2661W        W16075   9.408   4.080   3.655  0.0565 -0.1176  0.1050
 2662W        W16076  16.982   2.839   1.412 -0.0532 -0.2085 -0.3890
 2663W        W16077  14.197  13.773   2.103 -0.3618 -0.4314 -0.0880
 2664W        W16078  12.569   6.460  12.064 -0.0328 -0.0677  0.1562
 2665W        W16079   0.345   5.164   2.851 -0.0268 -0.1271 -0.1980
 2666W        W16080  15.351   3.323  15.571  0.1800  0.1974  0.1575
 2667W        W16081  17.645  13.195   1.529 -0.4203 -0.4714  0.2180
 2668W        W16082  16.494   7.372   2.657  0.2432 -0.2017  0.0529
 2669W        W16083   9.919   1.129  12.182  0.0791  0.2290 -0.1768
 2670W        W16084   2.184  16.610  16.433  0.2909 -0.1730  0.4212
 2671W        W16085   0.515   4.010   5.184 -0.0708 -0.0755 -0.2657
 2672W        W16086   3.744   9.236   1.907  0.1987 -0.3644 -0.1880
 2673W        W16087   3.260   4.596   5.478  0.1163 -0.0086  0.0555
 2674W        W16088  17.357   1.227   0.059  0.1248  0.2088  0.2043
 2675W        W16089  18.230   3.088   0.348  0.1240  0.0923 -0.2830
 2676W        W16090   9.878   3.375  15.380  0.1117 -0.0819  0.5115
 2677W        W16091  14.802   5.176  13.680 -0.1622  0.1335  0.0215
 2678W        W16092  11.574   0.489  14.942 -0.1069  0.0414 -0.2814
 2679W        W16093  11.323  15.020  16.316  0.1433  0.2002 -0.0240
 2680W        W16094  10.541   3.405  15.746  0.1796 -0.2247  0.2139
 2681W        W16095   8.148   9.229  16.236 -0.0704 -0.0360  0.4691
 2682W        W16096  16.813  15.491   0.597 -0.2337 -0.1222 -0.1174
 2683W        W16097  16.133   9.187  13.435 -0.2607  0.0935  0.2146
 2684W        W16098   4.347  14.579  11.454 -0.1669  0.3700  0.3432
 2685W        W16099   7.479   8.771  10.872 -0.1036  0.2330  0.1045
 2686W        W16100  13.594  15.379   1.104  0.0246  0.2393  0.1729
 2687W        W16101   4.980   7.637  14.844 -0.1544 -0.0279 -0.2175
 2688W        W16102  14.406   4.563  11.259  0.0347  0.0053 -0.1032
 2689W        W16103  12.763   5.974   2.037 -0.0956 -0.1279 -0.3371
 2690W        W16104  16.098   5.149   0.085  0.1338 -0.3772 -0.1753
 2691W        W16105   9.813  13.828  12.762 -0.1792 -0.1207  0.1610
 2692W        W16106   1.424  16.053   2.609 -0.0688  0.2475 -0.0114
 2693W        W16107   6.270   4.567  16.274 -0.2494  0.1660  0.0035
 2694W        W16108   4.199   5.966   0.024 -0.1164  0.2951  0.0805
 2695W        W16109  16.465  17.188  14.819 -0.1588  0.1113 -0.0128
 2696W        W16110   2.652   4.264  11.765  0.4404  0.1771 -0.0603
 2697W        W16111   1.677   8.711   3.890  0.0909  0.1418 -0.0076
 2698W        W16112   8.125  14.525   0.475 -0.0343 -0.0800 -0.2226
 2699W        W16113  12.015   2.065   5.134 -0.0399  0.1186 -0.0873
 2700W        W16114   7.782  17.147  11.707 -0.2331 -0.0993 -0.2165
 2701W        W16115   0.006   4.724  14.535 -0.0152  0.0743  0.1383
 2702W        W16116   1.994  10.358   6.748 -0.0510 -0.0932  0.0973
 2703W        W16117   4.600  12.377  11.119  0.1793 -0.0370 -0.1537
 2704W        W16118  14.892  16.103   0.977 -0.1450 -0.3524  0.2493
 2705W        W16119   8.349  17.552  16.146 -0.1043 -0.0539  0.1982
 2706W        W16120  15.747  17.268  13.755  0.2774 -0.1014 -0.1683
 2707W        W16121   0.846  15.944  15.017 -0.0278 -0.1885  0.1364
 2708W        W16122  17.347   0.216   4.736  0.2195  0.1043  0.0542
 2709W        W16123  13.723  18.055   4.201 -0.0760  0.0282 -0.0913
 2710W        W16124   6.680  12.607  11.623  0.3286 -0.3304  0.1482
 2711W        W16125  16.792   2.058   2.160 -0.3439  0.1270 -0.0486
 2712W        W16126  17.007  16.680   4.347 -0.1302 -0.1727 -0.2061
 2713W        W16127   1.553  10.535   6.014 -0.1999  0.2214  0.3530
 2714W        W16128   0.495  11.514   0.089  0.0099 -0.0613 -0.0513
 2715W        W16129   1.825   5.353  15.972 -0.0059  0.0323 -0.4189
 2716W        W16130  15.947   9.118  15.144 -0.0601  0.3914  0.0738
 2717W        W16131  14.447   2.712   2.596  0.1582  0.0283 -0.0510
 2718W        W16132  13.990   4.273   5.536  0.0365  0.0406 -0.3055
 2719W        W16133  17.125  16.077  13.166  0.0624 -0.1704  0.0891
 2720W        W16134   2.834  12.503  15.912  0.0355 -0.1135 -0.1799
 2721W        W16135  12.859   7.826  12.376  0.1316  0.3416  0.1484
 2722W        W16136  16.619   0.153   1.136  0.0020  0.0755  0.2076
 2723W        W16137   5.637  15.262   1.616 -0.1837  0.0475 -0.0288
 2724W        W16138   5.113   3.865   2.515  0.2066  0.2545 -0.0679
 2725W        W16139   3.356   9.043   5.323  0.0557 -0.3040 -0.3962
 2726W        W16140   0.425   6.288  11.312  0.0628 -0.2974 -0.1668
 2727W        W16141   0.304  13.635  13.690  0.1136 -0.0742  0.2613
 2728W        W16142  13.776   7.006  14.847 -0.1460 -0.2542 -0.0139
 2729W        W16143   6.539   3.089  16.474 -0.2927 -0.0688 -0.0476
 2730W        W16144   2.984  12.258  12.742  0.2049  0.1921 -0.1493
 2731W        W16145   2.391   5.639   3.801 -0.1566  0.3426  0.1978
 2732W        W16146   9.598   5.982  16.485 -0.1493  0.2470 -0.0140
 2733W        W16147   9.347   1.942  15.595  0.2422  0.1020  0.0988
 2734W        W16148  11.093   2.762  14.054  0.1498 -0.0828 -0.2717
 2735W        W16149   2.126   6.422  13.692 -0.3470 -0.2195 -0.3284
 2736W        W16150   1.923  11.796  15.075 -0.1592 -0.0155 -0.1428
 2737W        W16151   4.194  12.189  14.399 -0.0269  0.2724 -0.4180
 2738W        W16152  11.032   2.270  13.808  0.0766  0.0812 -0.4628
 2739W        W16153   2.718  15.415   2.091  0.4466  0.2383 -0.2373
 2740W        W16154  15.549  18.008  11.478 -0.1170 -0.2508 -0.0970
 2741W        W16155   5.502  17.309   1.607  0.1324 -0.2636 -0.1850
 2742W        W16156  17.725  15.483   2.536  0.0125 -0.1882  0.0443
 2743W        W16157   5.760  14.455   2.231 -0.1282  0.0536  0.0188
 2744W        W16158   5.270  17.354   2.479 -0.1672 -0.0338 -0.0223
 2745W        W16159   2.313  17.510  11.099  0.1180  0.2883 -0.1919
 2746W        W16160  11.426   4.745   2.905 -0.1726  0.0774 -0.1398
 2747W        W16161   0.145   5.319   3.735 -0.0063 -0.0847 -0.0090
 2748W        W16162  12.813   1.910  10.199 -0.0952  0.4042  0.1884
 2749W        W16163  10.869   8.340  14.300  0.0514  0.2845  0.0605
 2750W        W16164   7.037   2.115  12.749  0.3002  0.3820  0.0770
 2751W        W16165  11.374  17.109   2.865 -0.2981 -0.2264 -0.6020
 2752W        W16166  18.135  10.179  14.344 -0.0018 -0.0590  0.2214
 2753W        W16167   2.230   7.323   4.161  0.4104  0.2588 -0.2002
 2754W        W16168   3.144   7.464  13.214  0.1304 -0.0124  0.2788
 2755W        W16169  16.890   7.760   2.142  0.1809 -0.1618  0.1572
 2756W        W16170   9.536   3.274   6.325 -0.0704 -0.0478 -0.2644
 2757W        W16171  10.015   8.470  15.750 -0.0112  0.0281 -0.0554
 2758W        W16172   2.729   0.005   2.223 -0.0639 -0.1240 -0.1539
 2759W        W16173   6.377   9.077  11.546  0.0364 -0.1829  0.3302
 2760W        W16174  13.167   8.054   1.355 -0.0139 -0.0377 -0.1284
 2761W        W16175  14.540   8.543   1.610 -0.3118 -0.0416  0.0741
 2762W        W16176  12.640  11.714  11.056  0.0950 -0.1383  0.2888
 2763W        W16177   2.040  17.810   0.151 -0.4350 -0.3317  0.1003
 2764W        W16178  12.987   4.957   1.640 -0.2434  0.0529 -0.1340
 2765W        W16179  16.212  11.398  10.189 -0.0107 -0.1209  0.2577
 2766W        W16180  15.101  12.992   2.968 -0.0892  0.0282  0.1721
 2767W        W16181  17.955   0.084   2.959  0.0634  0.1195 -0.1990
 2768W        W16182  14.685   2.750   0.879 -0.0269 -0.0622  0.0510
 2769W        W16183  12.223   9.750   4.483 -0.1433 -0.4564  0.1447
 2770W        W16184   1.991   3.549  10.519 -0.1838  0.1185  0.0369
 2771W        W16185   9.758  11.207   2.514 -0.1484 -0.0209  0.1243
 2772W        W16186   5.066   0.845   5.023 -0.2106 -0.0184  0.2207
 2773W        W16187   5.516   8.240  16.345 -0.1304 -0.1236 -0.1600
 2774W        W16188   7.958   2.855  15.555  0.1817 -0.0466  0.2634
 2775W        W16189   3.362   3.547   1.586 -0.0458  0.1323  0.3880
 2776W        W16190   7.461   4.615   2.769  0.2991 -0.1297 -0.2860
 2777W        W16191   4.191  18.187  14.702  0.0005  0.2644  0.1178
 2778W        W16192   7.978  15.092  16.066 -0.1130 -0.2820  0.2450
 2779W        W16193  11.036   5.903   1.078 -0.2930 -0.2177 -0.3385
 2780W        W16194  12.364  13.461  16.097 -0.1202  0.0644 -0.1551
 2781W        W16195   2.930   7.499   1.254 -0.0165  0.2091 -0.1242
 2782W        W16196   2.250   9.989   6.553 -0.2058  0.0417  0.1383
 2783W        W16197   0.502   4.904  10.099 -0.2097  0.0182 -0.2217
 2784W        W16198  15.004   4.241   0.587 -0.2934  0.1771 -0.3994
 2785W        W16199  16.110  11.393   4.018  0.1735  0.2094  0.3269
 2786W        W16200   3.667   8.175   5.276  0.0153  0.2535 -0.0052
 2787W        W16201  15.251  12.288  16.151  0.0697 -0.1168  0.0117
 2788W        W16202  17.422  12.806   3.295 -0.2416 -0.2392 -0.1117
 2789W        W16203  15.161   6.019  16.234  0.1040 -0.1809  0.1163
 2790W        W16204   5.987  12.462   3.480 -0.1962 -0.0091 -0.1082
 2791W        W16205  14.071   0.448  15.595 -0.2501 -0.1883 -0.2067
 2792W        W16206  12.808   8.945   1.708  0.1347 -0.0861  0.0189
 2793W        W16207  12.095  16.992   2.396 -0.0788 -0.2837  0.2648
 2794W        W16208  10.940  11.526  15.080 -0.2051 -0.0904  0.2987
 2795W        W16209  16.707  17.914  10.988 -0.3949  0.0451  0.2398
 2796W        W16210  14.897  10.521  12.570 -0.0325  0.0416 -0.2878
 2797W        W16211  15.441   0.640   0.379 -0.0801 -0.0501  0.0488
 2798W        W16212   1.750  11.002  11.011 -0.0939  0.0766  0.4202
 2799W        W16213  14.818   5.736   1.540 -0.0590  0.2667 -0.0524
 2800W        W16214   7.324  11.302   2.945 -0.2094 -0.1086 -0.0593
 2801W        W16215  15.330   9.981  15.341  0.0613  0.1403 -0.1426
 2802W        W16216   9.077  10.220   4.286 -0.0536 -0.0325  0.0138
 2803W        W16217   8.603   0.263   4.211  0.1432 -0.0142 -0.0895
 2804W        W16218   3.259  17.810   2.074 -0.2639  0.1834  0.1410
 2805W        W16219  11.941   4.607   5.053  0.1270 -0.2350  0.1011
 2806W        W16220  17.012  10.830  15.604 -0.0566 -0.0558  0.1112
 2807W        W16221  11.322  12.116   0.418  0.2023  0.0047 -0.0450
 2808W        W16222   9.774  15.251   1.077  0.1007  0.2831  0.0889
 2809W        W16223  12.962  15.554   4.705  0.0198  0.1244 -0.0022
 2810W        W16224  13.608  11.412   5.393 -0.3122 -0.0050 -0.1933
 2811W        W16225   0.729   4.880  16.211  0.3002 -0.2663  0.0142
 2812W        W16226   5.474   3.886   0.122 -0.1131  0.0523 -0.1665
 2813W        W16227   2.608  12.010   3.328 -0.2049 -0.1554 -0.1632
 2814W        W16228  15.797  17.775   1.424 -0.1663 -0.0511 -0.2973
 2815W        W16229  12.851  16.932   5.968 -0.1091 -0.2892  0.2564
 2816W        W16230  12.499  14.071   6.324 -0.1294 -0.0918  0.2625
 2817W        W16231  14.271   8.883   5.541  0.0444 -0.2697  0.0940
 2818W        W16232  17.985   8.636  11.170 -0.1996 -0.3339 -0.1389
 2819W        W16233  12.487  12.858   1.904 -0.0402  0.0061  0.0247
 2820W        W16234  11.161  10.015   3.421  0.0009  0.1233 -0.1387
 2821W        W16235   2.350   5.356   1.222  0.0173 -0.1400  0.0564
 2822W        W16236   6.709  14.763   3.685 -0.1251 -0.1464  0.1229
 2823W        W16237  17.157  17.189  15.373  0.0076  0.0462 -0.1173
 2824W        W16238   1.939  15.683   5.309 -0.0970 -0.0836 -0.0023
 2825W        W16239   9.206   8.504  12.636 -0.0733 -0.3180 -0.0917
 2826W        W16240  11.841   2.567   4.475  0.0313  0.0806  0.0021
 2827W        W16241   4.031   2.962   4.818  0.2043 -0.0298 -0.1283
 2828W        W16242  15.253   9.906  10.391 -0.2545 -0.3316  0.0116
 2829W        W16243  10.739  12.626  12.306 -0.0447 -0.1473  0.2235
 2830W        W16244   5.860  11.378  14.349  0.1665  0.1922 -0.1512
 2831W        W16245  10.870   5.096  16.396 -0.2806 -0.0691  0.4899
 2832W        W16246  17.987   2.369  10.419 -0.0395  0.0489  0.3701
 2833W        W16247   5.826  12.801   4.756 -0.2177 -0.2037  0.1479
 2834W        W16248   8.002  15.439  13.883  0.1778 -0.0309 -0.1556
 2835W        W16249   4.010  15.999  14.381 -0.3414 -0.2464  0.0957
 2836W        W16250  16.808   4.774  16.524 -0.0127 -0.1767  0.3320
 2837W        W16251  15.819   6.488   4.294 -0.0380 -0.0707  0.0615
 2838W        W16252  16.950   8.652   5.053 -0.2561 -0.2273  0.1146
 2839W        W16253  10.119   7.636  16.194  0.1342  0.4153  0.1583
 2840W        W16254   2.849  13.088   4.633 -0.3618 -0.1857 -0.1694
 2841W        W16255   7.821  14.850   2.123  0.1689  0.2839  0.1125
 2842W        W16256  13.132   1.730  13.650 -0.1815 -0.1390 -0.2159
 2843W        W16257  10.389  11.085   5.839 -0.0300  0.0530  0.3204
 2844W        W16258   8.051  13.322   5.704 -0.1586 -0.3001 -0.1431
 2845W        W16259  18.200   4.192   2.142 -0.1784 -0.1943 -0.1084
 2846W        W16260   9.057   1.076  14.151  0.0839  0.1098 -0.1318
 2847W        W16261   0.491   3.348   1.780 -0.0342  0.2721 -0.3076
 2848W        W16262  16.878   7.674  13.984 -0.0729  0.1445 -0.2003
 2849W        W16263  12.369   6.726   5.556  0.1603 -0.0528 -0.1267
 2850W        W16264  10.948  14.969   5.216 -0.0716 -0.0927 -0.2954
 2851W        W16265   8.893   8.000  14.672  0.1275 -0.1212 -0.0202
 2852W        W16266   1.437   2.705   2.864  0.0546  0.1125 -0.0202
 2853W        W16267  15.271   2.791  10.546  0.0024 -0.0909  0.1396
 2854W        W16268   6.522   9.130  15.507 -0.0314 -0.0929 -0.0406
 2855W        W16269   2.372  13.475   0.104 -0.1731  0.0522 -0.4105
 2856W        W16270   4.640  11.377   0.573 -0.0187  0.0273 -0.1227
 2857W        W16271   0.046   7.291  16.296  0.3703 -0.1436  0.0475
 2858W        W16272  18.139   7.587   4.725 -0.1828  0.2514 -0.0997
 2859W        W16273  11.249  12.813  14.796  0.1210 -0.0067  0.1263
 2860W        W16274   0.347   0.478  15.300  0.2595 -0.2312 -0.0160
 2861W        W16275  10.868   9.689  12.563 -0.2216  0.0487 -0.0177
 2862W        W16276   8.994  15.488   1.981  0.0309 -0.3239 -0.2046
 2863W        W16277  17.126   2.963   0.566  0.2369  0.0306  0.0779
 2864W        W16278  16.174   7.136   3.430  0.4435 -0.1112  0.4766
 2865W        W16279   8.591   8.375  13.916 -0.0624 -0.0808 -0.1159
 2866W        W16280  14.692   6.067   3.270  0.3024 -0.1927 -0.1609
 2867W        W16281  12.506  16.116   5.756 -0.1874  0.3095  0.2372
 2868W        W16282  12.952  10.512  16.438  0.1061  0.1384 -0.1443
 2869W        W16283  12.811  11.271  15.979 -0.1146  0.3158  0.0217
 2870W        W16284  10.974  15.269  14.306  0.1816 -0.0574  0.2553
 2871W        W16285  12.070  10.963  16.436 -0.0715  0.0445  0.3117
 2872W        W16286  14.505   3.906  11.204 -0.0956 -0.0230 -0.2762
 2873W        W16287   0.145   2.552  11.463  0.2130 -0.1680  0.0379
 2874W        W16288   2.411   7.635  11.639  0.0135  0.1519  0.2495
 2875W        W16289   8.474   0.079  13.171  0.1216  0.1423 -0.2310
 2876W        W16290   5.854   7.362   1.587 -0.3296  0.2546 -0.0059
 2877W        W16291  14.292   5.980  12.031  0.2039  0.2772 -0.0918
 2878W        W16292  12.701   0.878   5.554  0.2887  0.0468 -0.1505
 2879W        W16293   7.897   3.269   5.392 -0.1968 -0.0860  0.0647
 2880W        W16294  18.210   4.007  12.307  0.1586 -0.2365 -0.0163
 2881W        W16295  10.525   7.277   0.357  0.0178  0.0269  0.1283
 2882W        W16296   4.676  14.526   5.117 -0.2384 -0.0429  0.2990
 2883W        W16297  10.321   7.205  14.754 -0.2640  0.0777  0.1160
 2884W        W16298  11.221  17.121  10.694 -0.1854 -0.1597  0.1168
 2885W        W16299   2.560  14.701  14.591  0.2736  0.1748 -0.1241
 2886W        W16300   5.034   5.360  13.595 -0.0133 -0.1715 -0.3505
 2887W        W16301   6.819   5.408  15.091 -0.1865  0.2555  0.0652
 2888W        W16302   9.511  10.193  12.642 -0.0085  0.5403 -0.2190
 2889W        W16303  17.442   5.530  11.504 -0.1042  0.2058  0.1967
 2890W        W16304   1.823   2.590  14.995 -0.2422 -0.4046 -0.2414
 2891W        W16305  10.143   2.511  15.724 -0.2472 -0.3059 -0.1786
 2892W        W16306  14.786   2.440  10.393 -0.2540  0.0700 -0.1919
 2893W        W16307  14.082   6.786   2.929 -0.1538  0.0363 -0.1350
 2894W        W16308   0.756  18.026   1.298  0.1388 -0.0940 -0.1876
 2895W        W16309   4.430  17.572   5.631 -0.0431  0.2443  0.1972
 2896W        W16310   2.531  14.432  13.383 -0.2342 -0.0052 -0.1616
 2897W        W16311  15.141   0.642   2.738 -0.2679 -0.0075  0.4580
 2898W        W16312  15.149   1.124  16.218  0.1475 -0.0517 -0.2634
 2899W        W16313   5.611  11.487  14.778  0.2647  0.1626 -0.1639
 2900W        W16314   2.798  16.905  12.236 -0.1485 -0.0891  0.1293
 2901W        W16315   7.183   8.497  12.564 -0.0829 -0.1143 -0.1529
 2902W        W16316   2.290  13.345   6.313 -0.1952 -0.0256 -0.0201
 2903W        W16317   4.288   8.517   1.348  0.3631 -0.2225 -0.1959
 2904W        W16318  13.934   8.017   4.623  0.1696  0.1401  0.0168
 2905W        W16319  11.049  13.412  14.694  0.1200  0.1104 -0.3867
 2906W        W16320   2.476  12.050   5.309 -0.0819 -0.0066 -0.1914
 2907W        W16321   5.343  10.548  11.429 -0.2635  0.1382 -0.3138
 2908W        W16322  10.505   2.630   1.045 -0.0450  0.1672 -0.1738
 2909W        W16323   4.344   8.053  13.439 -0.2835  0.0912  0.1940
 2910W        W16324   1.326   7.882  14.212 -0.4496 -0.1691  0.0116
 2911W        W16325   0.690  17.560  12.902  0.0843 -0.1762  0.1383
 2912W        W16326   3.903   0.392   3.702  0.2953  0.1208  0.4136
 2913W        W16327  14.520   7.693   2.100 -0.0401  0.3768 -0.0513
 2914W        W16328   5.521  11.290  10.823  0.0577  0.0003 -0.1712
 2915W        W16329   8.295  17.795  12.071 -0.2154 -0.1020 -0.2549
 2916W        W16330   1.884  16.730  11.327  0.0424  0.5293  0.2019
 2917W        W16331   2.244  12.041   5.822 -0.2391  0.0567 -0.2428
 2918W        W16332   5.653  12.274   2.307  0.0818 -0.2617  0.0778
 2919W        W16333   6.550   5.394  15.599 -0.1502 -0.2820  0.2917
 2920W        W16334  12.152   9.126  13.761 -0.4384  0.0919  0.0707
 2921W        W16335   4.572  11.749  14.466  0.1466  0.0563  0.3508
 2922W        W16336   2.907   1.656   3.221  0.4317  0.2211  0.0851
 2923W        W16337   1.789   1.902   0.306 -0.2110 -0.1308 -0.1636
 2924W        W16338  16.231   3.310   2.433 -0.2772 -0.0165  0.2506
 2925W        W16339   4.129  17.628  11.048  0.1178 -0.1822 -0.2595
 2926W        W16340  17.237  17.924  12.976  0.0567 -0.1569  0.0345
 2927W        W16341   7.501  12.603   1.125  0.0909 -0.0745 -0.0537
 2928W        W16342   0.627   9.998  13.595  0.1027  0.1045 -0.0214
 2929W        W16343  14.753   1.300   9.925 -0.2393  0.3379  0.1601
 2930W        W16344  13.757   7.261   2.266  0.1055 -0.0765 -0.1907
 2931W        W16345   1.387   9.595   1.141  0.1792 -0.0436  0.0931
 2932W        W16346  11.800  16.202  12.879 -0.0024  0.1857 -0.0040
 2933W        W16347   7.727   1.038   2.865 -0.2292  0.0788 -0.0476
 2934W        W16348  12.569   2.101  14.138 -0.2700 -0.3361 -0.1363
 2935W        W16349  11.100   7.081  16.094 -0.0481  0.0392 -0.2570
 2936W        W16350   5.447  15.645  15.967 -0.0630 -0.3215 -0.0191
 2937W        W16351   0.332  15.769  14.620  0.0054  0.1758 -0.0815
 2938W        W16352   8.763  12.958   1.945 -0.1578  0.0031  0.1138
 2939W        W16353   5.860  17.772  11.155  0.0117  0.1969 -0.0628
 2940W        W16354   3.127   3.866  13.336  0.1786  0.4002  0.1672
 2941W        W16355   8.799   8.976  13.245  0.0694 -0.1435 -0.0814
 2942W        W16356   1.716   0.623  15.191 -0.3265 -0.1471  0.0880
 2943W        W16357  12.786   9.864  15.893 -0.1497 -0.2117 -0.0350
 2944W        W16358   1.083  11.150  15.086  0.2047  0.0853  0.1140
 2945W        W16359   7.529  14.488   2.312 -0.2391  0.0650  0.5472
 2946W        W16360  17.781  11.984  13.313 -0.1209 -0.1863  0.1390
 2947W        W16361  16.569   6.028   5.085  0.0738 -0.5790  0.1365
 2948W        W16362  11.502  17.916   0.405  0.1057 -0.1719 -0.4260
 2949W        W16363  11.836   5.864   5.332  0.1851 -0.2447 -0.2543
 2950W        W16364  12.949   2.397  11.338 -0.0637  0.0872  0.0639
 2951W        W16365  15.752  10.331  13.170  0.0040 -0.0131  0.1143
 2952W        W16366  13.638   7.858   1.418  0.0636  0.1891 -0.0616
 2953W        W16367  12.127   9.709   3.943  0.1618  0.0009 -0.4262
 2954W        W16368   0.152   8.343  15.465 -0.1599 -0.0389  0.0864
 2955W        W16369  18.128   0.022  16.549  0.1247  0.0844 -0.0363
 2956W        W16370  18.070   7.575   0.618  0.0284  0.0162  0.1264
 2957W        W16371  10.430  13.947   3.748  0.0457 -0.0734 -0.3007
 2958W        W16372  13.999  10.633   1.564 -0.0045 -0.0908  0.2402
 2959W        W16373  12.023  17.040  12.986 -0.0376 -0.0899  0.2143
 2960W        W16374   5.463   6.571   1.081  0.0564  0.0374  0.0363
 2961W        W16375  17.556  11.166   1.039 -0.0622 -0.0347 -0.0257
 2962W        W16376   7.540  10.802   0.560  0.0266  0.2859  0.0744
 2963W        W16377   1.104  11.945  14.785  0.0490 -0.2214 -0.2033
 2964W        W16378  17.652   0.561   4.305 -0.1548  0.0669 -0.2831
 2965W        W16379   5.691   8.510   4.404  0.0103  0.0928 -0.2647
 2966W        W16380   4.085  14.944  13.739 -0.1738 -0.1623 -0.1603
 2967W        W16381  12.011  17.199  11.343  0.2310 -0.2403  0.1229
 2968W        W16382   9.213   3.240   3.314  0.4163 -0.0290  0.0014
 2969W        W16383   3.980   0.195   4.399 -0.1546 -0.1229 -0.2579
 2970W        W16384  11.911  15.345   6.190  0.3076  0.1248  0.2067
 2971W        W16385  11.214  13.640  11.579  0.0911 -0.1444  0.1079
 2972W        W16386   9.185   7.527   5.651  0.2967 -0.2129 -0.1987
 2973W        W16387   0.785   3.064   3.581 -0.0673  0.2915  0.3577
 2974W        W16388   5.010  16.385  16.479  0.2275  0.0370 -0.2389
 2975W        W16389  16.851  14.604   4.765  0.2384  0.2340 -0.3065
 2976W        W16390  15.396  12.213  14.754  0.0030  0.3014 -0.2027
 2977W        W16391  12.400   7.807   4.148 -0.1311  0.0286  0.0039
 2978W        W16392  15.978   4.708   1.763 -0.0958 -0.1087 -0.0518
 2979W        W16393  15.159  13.028   3.784  0.0619  0.0831  0.0979
 2980W        W16394   2.068  14.565   3.675  0.2967  0.0733 -0.0774
 2981W        W16395   4.560   3.455  12.834  0.1125  0.2618 -0.0695
 2982W        W16396   6.037   6.777   2.414  0.2958 -0.2676 -0.0792
 2983W        W16397   6.245  14.306   0.267  0.1174 -0.0633  0.0267
 2984W        W16398   9.134  12.286  13.028  0.0240 -0.1353 -0.2504
 2985W        W16399   4.035  17.918  13.637 -0.2896 -0.2036 -0.0831
 2986W        W16400  18.023  16.698  12.944  0.0501 -0.3382  0.0296
 2987W        W16401  12.563  11.579   0.320 -0.0511  0.2463  0.2243
 2988W        W16402   4.566   3.813  11.697  0.0550  0.0710 -0.1540
 2989W        W16403  15.018   7.937  12.771  0.1486  0.0283  0.0513
 2990W        W16404   3.112   3.614  15.884  0.1554  0.2007 -0.4224
 2991W        W16405   2.731   2.410  13.597 -0.0756 -0.2365  0.0194
 2992W        W16406   1.750   6.068  13.616  0.0644 -0.5096 -0.0900
 2993W        W16407   5.314   5.407   1.536 -0.0590 -0.3598  0.2794
 2994W        W16408   3.110  15.241   2.320  0.1004 -0.1253  0.0699
 2995W        W16409   9.933  16.187  16.299  0.0287 -0.1430  0.1864
 2996W        W16410  12.435   4.878   1.131 -0.0427  0.0383 -0.2285
 2997W        W16411   6.015   4.336   4.845  0.1297  0.0488 -0.0181
 2998W        W16412  10.666   0.132   5.675  0.0360 -0.1797 -0.2076
 2999W        W16413   7.409   2.741   0.807 -0.1788 -0.0162 -0.0471
 3000W        W16414   2.233   4.269  12.123  0.1332  0.1404  0.3064
 3001W        W16415   6.087  17.033  14.595  0.1477  0.0549 -0.1364
 3002W        W16416   9.699  10.751   4.191 -0.0174  0.0377 -0.0548
 3003W        W16417   1.167   0.014  14.605  0.1604 -0.0861 -0.0710
 3004W        W16418   3.622   2.417  14.243  0.2652  0.1109 -0.3171
 3005W        W16419   5.534  16.699  15.778  0.1555  0.2764  0.3136
 3006W        W16420   1.808  15.398   4.112  0.0923 -0.0352  0.0567
 3007W        W16421   9.209   3.408   4.512 -0.0131  0.1157 -0.1614
 3008W        W16422   8.249   8.732  14.120  0.0527  0.1890 -0.0251
 3009W        W16423  12.033   1.384   0.353  0.1566  0.1830 -0.0829
 3010W        W16424  12.538   0.086  12.059  0.0582 -0.2199  0.3709
 3011W        W16425  12.754  12.554  12.943 -0.1019  0.1527 -0.0262
 3012W        W16426   0.175   0.223  14.403  0.0503 -0.1499  0.1050
 3013W        W16427   3.885  14.838   4.208 -0.0098  0.2181 -0.0139
 3014W        W16428   6.921  17.826   5.756 -0.1617 -0.0163  0.1533
 3015W        W16429  15.452  10.466  13.527  0.3321  0.3573  0.0822
 3016W        W16430  13.264  10.611  15.695  0.2190  0.0380  0.0987
 3017W        W16431  13.839   0.517  10.973  0.0673  0.0812 -0.0518
 3018W        W16432   7.387  10.312  12.117  0.4486 -0.0186 -0.0822
 3019W        W16433   9.317  14.696   0.601  0.2351  0.1856 -0.0157
 3020W        W16434  16.782   9.129  10.619 -0.0592 -0.2267  0.0385
 3021W        W16435  11.754   8.958  12.228 -0.2079  0.2504  0.2162
 3022W        W16436   8.036   1.279  14.410 -0.0395 -0.2362  0.2581
 3023W        W16437  10.199  10.496   0.415  0.1018 -0.3371  0.0353
 3024W        W16438   1.031   8.296   4.978 -0.0075 -0.1915  0.0432
 3025W        W16439   4.323  10.120  11.281 -0.0673  0.0151 -0.1739
 3026W        W16440  17.754  17.443  14.342 -0.2780 -0.2194 -0.3713
 3027W        W16441   4.245   6.799  11.838  0.1604 -0.1195 -0.0454
 3028W        W16442   1.400  13.940  11.339  0.0105 -0.0021 -0.1684
 3029W        W16443   9.978   7.360   0.491 -0.0398  0.1015 -0.0272
 3030W        W16444   0.254  13.466  11.969  0.0451  0.0967  0.3253
 3031W        W16445   5.472   3.242   1.527  0.1571  0.0322 -0.1442
 3032W        W16446  12.187  13.701  15.250  0.0958 -0.0708  0.0485
 3033W        W16447   3.310  11.376  12.904  0.2785 -0.2772  0.1775
 3034W        W16448  18.048   8.385  10.711 -0.1541  0.3137 -0.3499
 3035W        W16449  15.448   2.498  12.675  0.1027  0.0385  0.2179
 3036W        W16450   9.161   9.827   0.007  0.4630  0.0606  0.0550
 3037W        W16451  12.180   2.595  14.813 -0.0684  0.3583  0.3693
 3038W        W16452  10.091   2.749   6.815 -0.2175  0.1051  0.1541
 3039W        W16453  16.056  14.325  13.590 -0.0014  0.1356  0.1019
 3040W        W16454  13.220   3.320   4.634  0.1864 -0.0320  0.2473
 3041W        W16455  16.502  13.556   1.528 -0.0225 -0.1945 -0.1246
 3042W        W16456  11.474  14.095   6.651 -0.2761  0.0604 -0.3822
 3043W        W16457   7.852   6.059   3.793 -0.0211 -0.1416 -0.0373
 3044W        W16458   8.341   7.935   4.508  0.2180 -0.0794 -0.0558
 3045W        W16459   7.354  16.409  14.003  0.2723  0.0201 -0.2199
 3046W        W16460   3.697  15.275  12.604  0.4391  0.0726  0.3163
 3047W        W16461  13.544  12.039   6.202 -0.0968  0.0376  0.2543
 3048W        W16462   8.627   0.593  13.363 -0.1497 -0.0942  0.1841
 3049W        W16463   9.325   8.099   0.683 -0.0942 -0.2874  0.0197
 3050W        W16464   5.187  13.847   0.515  0.3603  0.1571  0.2590
 3051W        W16465  10.021  18.146   5.134  0.2882  0.2172 -0.1000
 3052W        W16466  13.163  16.938  13.829 -0.0705  0.1516 -0.0609
 3053W        W16467   3.356  16.203  16.324  0.0919 -0.0949  0.0432
 3054W        W16468   8.537   9.176  15.533  0.0245  0.0698  0.2499
 3055W        W16469   4.562   4.101  12.114 -0.0162 -0.1369  0.0340
 3056W        W16470  10.014  11.637   2.629  0.1399  0.3299  0.1760
 3057W        W16471   5.961   4.138   0.174  0.0500 -0.1522 -0.0023
 3058W        W16472   2.942   2.445  11.026 -0.0359  0.2433 -0.1116
 3059W        W16473  17.433   4.317   0.497  0.2301  0.0292  0.0299
 3060W        W16474   4.612   1.991  10.709 -0.0512 -0.2230  0.0006
 3061W        W16475  17.428  17.388  12.176 -0.0969 -0.3244  0.1931
 3062W        W16476  17.997  10.960   1.039  0.0127  0.0257 -0.3700
 3063W        W16477   1.202  16.603  13.451  0.1210 -0.1296 -0.0051
 3064W        W16478   1.690  11.808   5.232  0.1300  0.3420  0.3159
 3065W        W16479   5.744  13.915  14.611  0.3904  0.1406  0.0872
 3066W        W16480  17.964   4.144   3.844 -0.0000 -0.1843 -0.1603
 3067W        W16481   1.879  12.976   2.065 -0.1202 -0.1180  0.0477
 3068W        W16482   6.799  17.859  11.051  0.1999 -0.1961 -0.1139
 3069W        W16483  16.957  13.329  13.908 -0.0739  0.3697  0.0799
 3070W        W16484  10.542  14.207  10.630 -0.0353  0.4429  0.1440
 3071W        W16485   2.519   2.041   2.085  0.1826 -0.1796 -0.0138
 3072W        W16486   0.677  15.646   3.077  0.0537  0.0860  0.4021
 3073W        W16487  10.912   3.946  11.740  0.2144  0.3103 -0.1709
 3074W        W16488  10.880   7.862  15.676 -0.2084  0.1007 -0.2224
 3075W        W16489  15.469  12.078  11.739 -0.3680  0.1175  0.2807
 3076W        W16490  14.758  16.365   5.381  0.1119  0.0709  0.2884
 3077W        W16491  15.432  15.233   5.302  0.2489 -0.3733  0.1190
 3078W        W16492   6.173   9.257   1.856  0.0359  0.2080 -0.2844
 3079W        W16493  11.652   1.899  12.567 -0.0948 -0.3960  0.0629
 3080W        W16494   1.366   4.507  15.515 -0.1402 -0.1230  0.3503
 3081W        W16495  13.773  11.849   2.139 -0.2029  0.1747 -0.0513
 3082W        W16496   9.887  17.207  12.133 -0.1269 -0.2340  0.2203
 3083W        W16497  12.691  12.974   0.932  0.0017  0.0907 -0.3314
 3084W        W16498   4.553   5.965  11.975 -0.1876  0.0270 -0.0203
 3085W        W16499  10.557   1.550   3.286 -0.2204 -0.0779 -0.1843
 3086W        W16500   3.633   1.623   4.294  0.0320 -0.0677 -0.1266
 3087W        W16501   4.154   3.145  12.215  0.1818 -0.0061 -0.0773
 3088W        W16502  14.773  17.795  10.613  0.0133  0.4972 -0.2163
 3089W        W16503   0.072  12.486  13.193  0.3065  0.0297  0.0196
 3090W        W16504   5.983   8.277  13.092 -0.0672 -0.0552 -0.2561
 3091W        W16505   7.157   6.953  14.570  0.0770 -0.0704  0.2537
 3092W        W16506   3.558  10.229   0.900  0.1506  0.0522 -0.0004
 3093W        W16507   5.033  16.982   5.578 -0.0073  0.2112  0.0861
 3094W        W16508  13.333   4.787  11.200 -0.0084  0.0057 -0.1018
 3095W        W16509   7.069  17.045   1.886 -0.3264 -0.1563 -0.2191
 3096W        W16510   3.476  12.389  13.139 -0.0294  0.1165  0.0424
 3097W        W16511  15.610   7.622   2.734 -0.0239  0.3128  0.0848
 3098W        W16512   4.182   9.305  15.521  0.0575 -0.2478  0.0320
 3099W        W16513  12.232   3.370   4.842  0.3874  0.0166  0.0895
 3100W        W16514   1.352   7.811  10.214  0.0977 -0.0755 -0.1326
 3101W        W16515  14.637   9.001  14.732  0.2015 -0.1256  0.3440
 3102W        W16516  16.288   7.079  13.519 -0.1311 -0.1329 -0.0085
 3103W        W16517   9.220  17.314  15.755 -0.1163  0.1415  0.0211
 3104W        W16518  17.994   8.635  10.249  0.0662  0.0592 -0.3072
 3105W        W16519  12.149   2.614  13.594 -0.2642 -0.0549  0.2899
 3106W        W16520   9.280   6.538  14.227 -0.1943 -0.0081  0.0946
 3107W        W16521   7.920   6.988  13.749 -0.0554 -0.0342  0.3622
 3108W        W16522  10.079   7.377  15.330  0.3738  0.1685  0.0240
 3109W        W16523  16.009   6.706  10.832 -0.0860 -0.2227 -0.0334
 3110W        W16524   1.184   2.439  13.797  0.2231 -0.6105  0.0175
 3111W        W16525   0.551   7.534   1.236 -0.2425 -0.1978  0.0481
 3112W        W16526   3.449   4.744   3.094 -0.0019  0.1764 -0.0388
 3113W        W16527   2.834  12.474   3.417 -0.0143  0.1637 -0.2410
 3114W        W16528   6.104   2.956   0.615 -0.0726 -0.0710  0.0975
 3115W        W16529  13.514   5.656  13.992  0.4453 -0.0059  0.0543
 3116W        W16530  11.650   9.282   3.098 -0.1137 -0.2485 -0.4098
 3117W        W16531  12.887   6.934  12.585  0.2614  0.2259 -0.2511
 3118W        W16532  10.611   2.408  15.260  0.0679  0.1831  0.0163
 3119W        W16533  10.873   3.905  12.633  0.1253  0.1427  0.0574
 3120W        W16534  15.430  17.722   1.072  0.0104 -0.2214 -0.0292
 3121W        W16535   0.160   6.575  14.846 -0.0902 -0.2463 -0.0628
 3122W        W16536   9.355  15.836   5.258 -0.1932  0.0330  0.1204
 3123W        W16537  15.065  13.191   4.907 -0.0179 -0.0955  0.1991
 3124W        W16538   5.808  16.372  12.641 -0.0866 -0.4138  0.4388
 3125W        W16539   1.949  14.379   2.151 -0.1533 -0.2773  0.3824
 3126W        W16540  16.507   8.481  13.604  0.2036  0.5297 -0.0499
 3127W        W16541   7.909   6.007   2.769 -0.0380 -0.1840  0.0728
 3128W        W16542   2.997   3.901  16.397  0.4433  0.1097 -0.3646
 3129W        W16543  13.646  15.056   4.786 -0.1436 -0.0282  0.3343
 3130W        W16544  15.255   4.415  13.957 -0.0384  0.3026 -0.0479
 3131W        W16545  12.160  13.052   2.235 -0.0786  0.0431  0.0708
 3132W        W16546  16.956  12.929   4.119 -0.0231  0.0353 -0.0301
 3133W        W16547   4.402   1.070  15.926 -0.1773 -0.0562 -0.0004
 3134W        W16548   9.640   3.264  15.844 -0.0973 -0.0727  0.1971
 3135W        W16549   1.316   3.058  13.833  0.1859  0.0097 -0.0012
 3136W        W16550   5.684   1.860   3.609 -0.1886  0.1665 -0.1412
 3137W        W16551  15.178   4.755   0.154  0.0181  0.1803  0.4497
 3138W        W16552   5.495   0.942   2.373 -0.0852  0.0951  0.2506
 3139W        W16553  12.062  13.391  12.449  0.0680  0.2684  0.0881
 3140W        W16554   1.285  10.556  14.754  0.0362  0.3361 -0.1211
 3141W        W16555   5.577   5.093   0.381  0.1423  0.1173  0.0254
 3142W        W16556   3.959   6.011  11.178 -0.2097  0.1160  0.1251
 3143W        W16557  15.892   3.267   0.293  0.1794  0.0660 -0.0446
 3144W        W16558   0.014   2.724  14.474 -0.3119 -0.5556 -0.0969
 3145W        W16559   8.102   4.638   4.764 -0.1325 -0.0334  0.3409
 3146W        W16560   9.174   2.049   2.365  0.0576 -0.1112 -0.1053
 3147W        W16561  11.197   1.335   1.991  0.2331 -0.0772  0.1318
 3148W        W16562   3.293   7.958  10.566 -0.1127 -0.0020 -0.0557
 3149W        W16563  14.378   8.503   3.313  0.3193  0.1569 -0.2878
 3150W        W16564  16.386   5.171  13.391  0.2330  0.0430  0.0941
 3151W        W16565  15.527  15.937   0.838  0.0447 -0.1267 -0.0600
 3152W        W16566   7.601   6.066  14.784 -0.0092 -0.1786 -0.1040
 3153W        W16567   5.338   6.493  10.930 -0.0229  0.3489 -0.1754
 3154W        W16568  10.811  14.836  14.147 -0.1936  0.0328  0.0126
 3155W        W16569  15.414   0.920   4.221 -0.0268 -0.0570  0.0103
 3156W        W16570  10.741   7.111   1.049 -0.1532 -0.0083 -0.0694
 3157W        W16571  10.658  16.534  13.492  0.1230  0.0765 -0.0534
 3158W        W16572  13.517  17.178   5.133 -0.2824 -0.0540  0.1560
 3159W        W16573  16.090   4.676   5.105  0.0599  0.1309  0.2127
 3160W        W16574  14.763   0.021  10.556  0.1118 -0.1521 -0.2598
 3161W        W16575   2.932  13.064  10.622  0.1319  0.1834 -0.0346
 3162W        W16576  15.285  12.026   3.785 -0.0315 -0.0812 -0.0147
 3163W        W16577   9.789  16.208   4.809  0.0298 -0.0809  0.0554
 3164W        W16578   4.739   4.082  13.685  0.0494 -0.1946  0.0181
 3165W        W16579  14.090   7.716   1.721  0.0003 -0.0603  0.2286
 3166W        W16580  14.355   3.491  12.853  0.0434 -0.2112  0.1827
 3167W        W16581   6.386  16.692   3.854 -0.1816  0.1106  0.2014
 3168W        W16582   0.699   0.771  10.647  0.2164  0.1280 -0.0223
 3169W        W16583  15.198  11.340  10.199  0.1224 -0.2952  0.2294
 3170W        W16584   6.869   4.740   0.420  0.1416 -0.0080  0.2141
 3171W        W16585  10.633   6.448  10.538  0.0480 -0.0788 -0.0654
 3172W        W16586   4.658  17.983   5.841  0.0802 -0.3451 -0.1662
 3173W        W16587  17.419   2.491   4.848 -0.0979  0.0101 -0.0151
 3174W        W16588  17.718  10.654   1.301  0.3877 -0.2784 -0.2114
 3175W        W16589   3.731   3.110  15.006 -0.0925 -0.2887 -0.1962
 3176W        W16590   3.179   2.354   0.829  0.0134  0.0790  0.0613
 3177W        W16591   5.089  17.271  11.911  0.1089 -0.3086 -0.0388
 3178W        W16592   0.846  16.805   3.886  0.1285  0.2318  0.0198
 3179W        W16593   2.017  12.058  16.220  0.1270  0.2483 -0.0917
 3180W        W16594   3.656  10.012  12.273  0.0246 -0.0277 -0.1930
 3181W        W16595  18.089  18.201  16.033 -0.2486  0.0505 -0.0548
 3182W        W16596   8.915   2.019   0.232 -0.2831 -0.0684  0.2392
 3183W        W16597   9.605  15.879   3.569 -0.2385  0.0698 -0.2042
 3184W        W16598  13.171   1.468   3.403 -0.0703  0.0630 -0.0808
 3185W        W16599  13.564   0.987   6.003 -0.0045 -0.2386 -0.3409
 3186W        W16600  11.707   3.303   5.527 -0.1151  0.0954 -0.2300
 3187W        W16601  13.121   5.738   2.758 -0.2420  0.0346  0.0571
 3188W        W16602   5.938   6.928   2.926 -0.1020 -0.0516  0.2115
 3189W        W16603   2.487  18.007   2.676  0.0704  0.3387 -0.0157
 3190W        W16604   9.320  13.117   4.194  0.2807  0.2826 -0.2691
 3191W        W16605   3.405  10.259  14.077  0.0176  0.2363  0.3060
 3192W        W16606  15.655   4.764   1.420  0.2151 -0.0088  0.2148
 3193W        W16607  13.730  17.409   1.428 -0.0851  0.1490  0.1193
 3194W        W16608   6.750   0.650  15.761 -0.0211  0.0523 -0.0022
 3195W        W16609  17.397  14.934  13.358 -0.1113  0.0464  0.1167
 3196W        W16610   1.503   3.014  12.646 -0.0115  0.1482  0.1289
 3197W        W16611   4.292   8.977   1.644 -0.1404  0.1420 -0.0539
 3198W        W16612  15.347   6.881   1.943  0.2642 -0.0908 -0.0051
 3199W        W16613  16.358  13.188  12.810  0.1685 -0.1817 -0.0325
 3200W        W16614   6.785   5.865  11.406 -0.1252  0.1372  0.1623
 3201W        W16615  18.209   3.550  15.183  0.1795  0.2243 -0.0889
 3202W        W16616   6.873   7.579   3.705  0.2090 -0.1894 -0.0376
 3203W        W16617  13.142   3.605   5.165 -0.3670  0.1356  0.1169
 3204W        W16618  16.883   2.112   5.872  0.2851 -0.1131 -0.2022
 3205W        W16619   3.546   8.949  10.937  0.0467 -0.2378  0.0267
 3206W        W16620   1.040  12.133   0.436 -0.0271  0.1498  0.1127
 3207W        W16621   6.897   6.284  12.190 -0.1300  0.2593  0.1483
 3208W        W16622  11.645  17.108  13.304 -0.2819  0.1309  0.3830
 3209W        W16623  11.688   7.871  11.103  0.3413  0.0745 -0.2779
 3210W        W16624   7.022  11.740  11.926 -0.2710  0.0947  0.0329
 3211W        W16625   4.531  10.572  16.401 -0.1304 -0.1127  0.1638
 3212W        W16626   5.915  15.120   0.623 -0.0283  0.0783 -0.0219
 3213W        W16627   3.755   8.832   3.491 -0.1691  0.2434 -0.1341
 3214W        W16628  13.764   5.278   3.848 -0.0402 -0.0416 -0.1347
 3215W        W16629  12.734   0.579  15.871 -0.0517  0.3338  0.2489
 3216W        W16630  10.397   2.202   6.065 -0.1872 -0.1500 -0.2691
 3217W        W16631   1.212  12.537   0.760  0.0032  0.1936 -0.0891
 3218W        W16632   1.479   7.034   1.370 -0.2992 -0.2648  0.0416
 3219W        W16633  13.248   7.489   1.273  0.1234 -0.2595 -0.3289
 3220W        W16634   8.118   9.042   9.873 -0.1090 -0.0803 -0.2094
 3221W        W16635   4.474   3.917   0.303  0.0196 -0.1807  0.2321
 3222W        W16636   9.994  16.987  13.085 -0.0162  0.2006 -0.1735
 3223W        W16637  11.105   2.855   2.676  0.3069  0.3921  0.0332
 3224W        W16638   0.476   3.641  16.037  0.1421  0.2948  0.0790
 3225W        W16639   6.546  18.091   0.962  0.0399  0.0265 -0.1216
 3226W        W16640   6.001   0.324  15.401 -0.0628  0.1809 -0.1287
 3227W        W16641  13.525   6.378   3.950 -0.0978 -0.2086 -0.0476
 3228W        W16642  14.665  17.552  13.224 -0.2486  0.0433  0.1841
 3229W        W16643   1.062  12.457  15.276  0.2512  0.2691 -0.0320
 3230W        W16644  15.504   8.892  16.409  0.0575 -0.1193 -0.2274
 3231W        W16645  11.814   3.457  11.015  0.0440  0.2922  0.0400
 3232W        W16646  12.985  17.284   3.813  0.1528  0.1439 -0.0227
 3233W        W16647   6.284  13.866  14.389  0.0273 -0.0025  0.2762
 3234W        W16648   0.091  12.212  12.226  0.0433  0.0154 -0.3552
 3235W        W16649  17.822  16.843  12.166  0.3574 -0.2287 -0.0655
 3236W        W16650  16.798   5.746  12.822 -0.2670  0.0657  0.1427
 3237W        W16651  17.119   6.325   1.806 -0.0740  0.1329  0.2769
 3238W        W16652  16.818   9.782  13.780  0.0723 -0.1132  0.0555
 3239W        W16653   9.693   2.897  12.682 -0.0341  0.2526 -0.0538
 3240W        W16654  14.540   1.020  10.750  0.1288 -0.1036  0.1007
 3241W        W16655  15.212  13.097  15.210 -0.1241  0.0387 -0.2690
 3242W        W16656   0.280  14.842  12.079 -0.2124  0.0717  0.0684
 3243W        W16657   1.407   0.969   5.710 -0.2668 -0.3049  0.0018
 3244W        W16658   7.465   2.545  15.089  0.1690 -0.2268 -0.0157
 3245W        W16659  13.825  17.942   2.540  0.2402 -0.0841  0.2983
 3246W        W16660   0.685  10.164  14.414  0.3160  0.1427  0.4963
 3247W        W16661  16.666  17.052   4.625 -0.0299 -0.2060  0.0235
 3248W        W16662   5.227  16.136  15.298  0.0196  0.0476 -0.0032
 3249W        W16663  14.707   6.482  14.479 -0.1188 -0.0819  0.2693
 3250W        W16664  15.478  16.795   1.530 -0.0599 -0.1988  0.2063
 3251W        W16665   8.036  17.342  15.787  0.1020  0.0752 -0.0510
 3252W        W16666  17.349  11.940   6.048  0.0924 -0.1956  0.0658
 3253W        W16667   9.789  17.526   0.604 -0.0257 -0.0875  0.1410
 3254W        W16668  15.965   6.504  12.930  0.1527 -0.1215 -0.2225
 3255W        W16669   7.920   7.918  14.731 -0.0793 -0.2244  0.4051
 3256W        W16670  17.620  17.700   3.758 -0.1528  0.3746 -0.0685
 3257W        W16671   9.669   2.299   4.023 -0.0674 -0.0813 -0.1464
 3258W        W16672   9.386   1.679  16.557 -0.1726  0.0570 -0.2235
 3259W        W16673  17.171   6.072   0.375 -0.0784  0.0838 -0.2105
 3260W        W16674  10.618   1.550   2.790 -0.1869 -0.1668 -0.0466
 3261W        W16675  10.900  10.114  13.513 -0.0064  0.2124 -0.1563
 3262W        W16676  10.793   6.101   5.053  0.1171  0.0177 -0.0131
 3263W        W16677   2.589   0.355  15.624 -0.1613 -0.2698  0.1721
 3264W        W16678  16.044   1.609  10.740 -0.2509 -0.0075 -0.0560
 3265W        W16679  14.265   9.992   4.450  0.0624 -0.1604 -0.0085
 3266W        W16680  12.894   7.178   0.668 -0.1232 -0.2653 -0.1290
 3267W        W16681   5.995   6.431   5.392 -0.0312 -0.1996  0.1628
 3268W        W16682  12.345  14.252   0.041 -0.0192 -0.0093 -0.1971
 3269W        W16683  12.478   0.918  14.664  0.1085  0.1776  0.0617
 3270W        W16684   2.369   7.517   0.338  0.0978  0.1608 -0.3109
 3271W        W16685   6.339  10.246   4.396 -0.1684 -0.0988 -0.0910
 3272W        W16686   9.339   1.090  13.767  0.3735 -0.1236 -0.1136
 3273W        W16687   9.767  12.570   3.660 -0.1398  0.0133 -0.2704
 3274W        W16688  13.178   4.952   5.658 -0.0080  0.0905  0.2706
 3275W        W16689   2.912  14.997   1.949  0.1605 -0.4308  0.1334
 3276W        W16690  10.153  15.128  14.903  0.0958  0.2217 -0.1309
 3277W        W16691   8.369   0.859  14.743  0.1093 -0.3922  0.1863
 3278W        W16692   6.271  10.047  11.277  0.1335  0.2208 -0.0729
 3279W        W16693   1.537   8.881   5.660  0.0867  0.2136  0.0221
 3280W        W16694  17.464   1.603  11.249 -0.2306  0.0637 -0.0718
 3281W        W16695   7.058   9.034   4.915 -0.2097 -0.2379 -0.1409
 3282W        W16696  17.495  16.278   3.161  0.2520  0.2190 -0.1073
 3283W        W16697   1.022  15.126  14.060  0.2929 -0.1404 -0.3031
 3284W        W16698   7.061   0.230   0.041 -0.0003  0.1989  0.0406
 3285W        W16699   2.954  17.633  15.695  0.1858 -0.1324 -0.0449
 3286W        W16700   9.684  17.513   3.231  0.3639 -0.2772  0.1063
 3287W        W16701  13.315  16.762  16.174  0.1305 -0.2007  0.1885
 3288W        W16702  13.428   6.359   2.196  0.3256 -0.0342 -0.3419
 3289W        W16703  12.955  13.494   5.337 -0.1365 -0.1731  0.3925
 3290W        W16704   2.662  16.898   6.112  0.1284  0.1338  0.1034
 3291W        W16705   9.947   1.266  12.680  0.1266 -0.1814  0.0415
 3292W        W16706   9.556  13.563   5.380 -0.0027 -0.0199  0.1774
 3293W        W16707   0.928   5.574  10.796  0.4153  0.1109  0.3023
 3294W        W16708   0.169   8.539  11.089 -0.1354  0.1686 -0.3163
 3295W        W16709   7.613  10.490   4.827 -0.0439 -0.1293 -0.0596
 3296W        W16710  11.427  15.147   6.073 -0.0349 -0.0730 -0.2126
 3297W        W16711  16.763   0.715   1.215  0.1300 -0.1287  0.1682
 3298W        W16712   0.093  17.907   4.220 -0.0479 -0.0822 -0.0585
 3299W        W16713  17.855  14.688   4.412 -0.0114  0.0759  0.0398
 3300W        W16714  16.205   1.131   0.776  0.0570  0.1198 -0.0188
 3301W        W16715  11.467  15.139  14.534 -0.1012  0.1291  0.2310
 3302W        W16716   9.132   8.698   4.214 -0.1540  0.0803  0.1525
 3303W        W16717   2.238   6.512  16.409 -0.3656  0.0663  0.0923
 3304W        W16718   2.818   1.850   5.760 -0.4728  0.1039 -0.1782
 3305W        W16719   3.670  16.205  12.866  0.1488 -0.0183  0.3963
 3306W        W16720  10.081  12.046   2.985  0.1196  0.1283 -0.1466
 3307W        W16721   4.589   1.773  12.374 -0.3477 -0.1911 -0.1115
 3308W        W16722  10.194  15.999   1.089  0.2066  0.0055 -0.1373
 3309W        W16723  11.131   2.726  12.282  0.1028  0.0913  0.3884
 3310W        W16724   9.148  11.222  12.511 -0.3777 -0.2924  0.1772
 3311W        W16725  12.893   5.535   1.801  0.0256 -0.1096  0.1069
 3312W        W16726  10.872   9.836  11.567  0.1323 -0.2300 -0.0284
 3313W        W16727  15.125  12.769   1.428 -0.0666 -0.3170 -0.0808
 3314W        W16728   1.363   4.794   0.234  0.0977 -0.0185 -0.0553
 3315W        W16729   3.689   0.184  14.676  0.1763  0.2321 -0.0113
 3316W        W16730   4.448  13.554  14.372 -0.1232  0.0033 -0.1378
 3317W        W16731  17.243  13.450  13.474 -0.1209  0.1327 -0.0716
 3318W        W16732   6.404   3.004  15.303 -0.0021 -0.0547  0.0130
 3319W        W16733   3.001   5.887   6.172  0.0007  0.2533 -0.1074
 3320W        W16734   4.416   2.638   5.467 -0.0748  0.1434 -0.0315
 3321W        W16735   3.417  14.889  15.123 -0.0863 -0.0890  0.3163
 3322W        W16736  11.096  17.996  13.476 -0.0362 -0.2535 -0.1768
 3323W        W16737   2.236   1.556  15.889  0.0467  0.4161  0.0811
 3324W        W16738  16.987  13.639  14.482  0.1524  0.1189  0.2571
 3325W        W16739  11.332  16.713  14.713 -0.0831 -0.2045 -0.3039
 3326W        W16740  10.396   0.411   3.245  0.0417 -0.1940 -0.1527
 3327W        W16741   6.201  11.185   3.830  0.0236 -0.0735 -0.1411
 3328W        W16742  17.395   0.287  14.929 -0.0933 -0.0651 -0.0107
 3329W        W16743  17.880  10.680  11.562  0.4297 -0.2865 -0.1731
 3330W        W16744  13.938  17.171   2.888 -0.2663 -0.0242 -0.1576
 3331W        W16745   0.911  13.213   4.184 -0.0593 -0.2270  0.0890
 3332W        W16746  16.484  17.259  13.916 -0.0087 -0.0074 -0.3847
 3333W        W16747  13.278  13.262  16.178 -0.1093 -0.2905 -0.0648
 3334W        W16748   6.267  13.045  14.590  0.1324  0.0020  0.1533
 3335W        W16749   0.035   3.529   1.514  0.0626 -0.0699  0.0269
 3336W        W16750   8.632  12.596  13.847  0.4701  0.0895  0.3832
 3337W        W16751  11.117   8.983  16.285 -0.2763  0.0709  0.0646
 3338W        W16752  16.164   2.393   5.469 -0.1591 -0.0396  0.0860
 3339W        W16753  16.757   2.461  16.023  0.2095 -0.4438  0.0420
 3340W        W16754   4.483   6.743   3.948 -0.3328  0.4109  0.1370
 3341W        W16755  16.767  17.440  11.872 -0.1121 -0.2993 -0.0751
 3342W        W16756  14.535   6.464  11.883 -0.0705  0.1493  0.1086
 3343W        W16757   8.229   8.276   2.222 -0.1015 -0.4792 -0.0087
 3344W        W16758   3.943   4.686  15.247  0.0296  0.0668 -0.0925
 3345W        W16759   4.237  15.798   4.405  0.1437 -0.2139 -0.1989
 3346W        W16760   8.490  18.175  10.412  0.2478  0.0675 -0.1845
 3347W        W16761   0.179   6.017   5.477  0.1002 -0.1289  0.1971
 3348W        W16762  17.055   5.643  15.961  0.0048 -0.2450 -0.0378
 3349W        W16763  11.609   3.315  15.135 -0.0463  0.1883 -0.0511
 3350W        W16764  10.147   3.373   1.347  0.1161  0.2043  0.0388
 3351W        W16765  14.147   1.400  12.342  0.1644 -0.1358  0.1071
 3352W        W16766   8.811  14.521  11.295 -0.0489  0.0373  0.1761
 3353W        W16767   4.574  16.422   6.257  0.2379  0.1254 -0.0981
 3354W        W16768   3.627   9.389   0.882  0.0224  0.0216 -0.2544
 3355W        W16769  16.914  16.183   6.137  0.1626  0.3979  0.2040
 3356W        W16770   4.094  10.958  12.669 -0.1824  0.2092 -0.0283
 3357W        W16771  13.925  17.042  11.930  0.1339  0.0462 -0.0730
 3358W        W16772   9.747   6.880  10.844  0.2304  0.2035  0.1574
 3359W        W16773  17.452  14.430  13.455 -0.0340 -0.0804  0.1080
 3360W        W16774  15.987   5.709   2.385  0.1972  0.0670  0.0255
 3361W        W16775   5.286  11.731   4.557 -0.0031 -0.1333  0.3376
 3362W        W16776  11.636   7.698  14.350  0.0070  0.1020 -0.0757
 3363W        W16777   9.422  10.889  13.475 -0.1278 -0.4946 -0.0271
 3364W        W16778  12.121   3.284  13.341 -0.1395 -0.0209 -0.1311
 3365W        W16779   7.434   9.569   5.340  0.0936 -0.0574  0.1550
 3366W        W16780  11.336   1.622  13.809  0.2528 -0.2152 -0.0571
 3367W        W16781  14.394   9.104  15.678  0.0967 -0.2545  0.3539
 3368W        W16782  15.726   6.353  13.875  0.1844 -0.0440 -0.5050
 3369W        W16783   6.867   6.184  15.013 -0.0111 -0.0689  0.1460
 3370W        W16784   2.247  17.567   3.518  0.1492  0.3483  0.2114
 3371W        W16785  10.005   5.854  15.992 -0.1224  0.1428 -0.1115
 3372W        W16786  16.495   6.523   2.071 -0.0960 -0.0901  0.3222
 3373W        W16787   3.074   4.095   2.315  0.3717 -0.2264 -0.2025
 3374W        W16788  15.822   2.443  11.599 -0.0386 -0.0628  0.1191
 3375W        W16789  16.508  10.479  10.268 -0.0831 -0.0552 -0.3007
 3376W        W16790  14.869  18.000  13.705 -0.0770  0.2361  0.2193
 3377W        W16791   5.881   6.402  15.133 -0.0616  0.0544  0.2089
 3378W        W16792  11.406   4.058  12.589  0.0668  0.0421  0.0188
 3379W        W16793   6.749  13.383   4.116 -0.0094 -0.0969  0.1297
 3380W        W16794  13.924  13.388   0.558  0.1188 -0.1715 -0.1983
 3381W        W16795   7.606   9.246   0.153 -0.0657 -0.0880  0.2764
 3382W        W16796  12.353  12.868   5.014 -0.1110  0.1973 -0.1059
 3383W        W16797  14.854   0.167  12.977 -0.0053 -0.2232  0.0224
 3384W        W16798   2.563  16.461  14.850 -0.1706  0.4119 -0.2894
 3385W        W16799   4.852   2.617  12.888  0.2586 -0.0003 -0.0839
 3386W        W16800   7.249   2.458  16.004 -0.1346 -0.2414  0.0768
 3387W        W16801   9.898   3.902  15.306 -0.0751  0.2022 -0.0375
 3388W        W16802  12.591  15.592  15.637 -0.0889 -0.1235  0.0757
 3389W        W16803  16.439   0.318  14.624  0.0807 -0.1744  0.0853
 3390W        W16804   0.663   5.164  12.995  0.2505  0.2206 -0.0870
 3391W        W16805  10.355   4.907   3.139  0.0601  0.0342  0.3049
 3392W        W16806   0.788   3.544  11.684  0.1181  0.0597  0.2582
 3393W        W16807   4.261   2.835  10.550  0.1523 -0.1194 -0.0010
 3394W        W16808  11.616   5.470   4.533 -0.1845  0.0268  0.1557
 3395W        W16809  17.878   6.172   0.266 -0.0322  0.0576 -0.1022
 3396W        W16810  15.667   1.203  16.145  0.0514 -0.3227  0.1030
 3397W        W16811  11.867   6.381  11.585 -0.1672 -0.1261 -0.3165
 3398W        W16812  10.142   4.836  12.302  0.0158 -0.1200  0.0255
 3399W        W16813  14.417  14.149  15.406  0.0137  0.2451 -0.0724
 3400W        W16814  14.016  17.418   5.321 -0.2913 -0.1834 -0.1079
 3401W        W16815   0.864  11.530   1.640 -0.0236 -0.1831 -0.2989
 3402W        W16816  15.412   3.148  14.347  0.1371  0.0898  0.1348
 3403W        W16817  13.576  14.902   0.165  0.3325  0.0813  0.0145
 3404W        W16818   6.173   1.303  14.335 -0.1373  0.0227 -0.2251
 3405W        W16819  15.454  14.000   1.647  0.1223 -0.1566  0.4809
 3406W        W16820  12.594   9.556   1.974 -0.1490 -0.1639 -0.0489
 3407W        W16821   9.846  17.627  11.802 -0.1573  0.2042  0.0184
 3408W        W16822  14.238   9.472  10.708 -0.2377 -0.0850 -0.2644
 3409W        W16823   6.036  10.373  14.814  0.1437 -0.2368  0.1282
 3410W        W16824   5.948  12.771  10.604 -0.2239 -0.2670  0.1745
 3411W        W16825   7.008  10.407  12.424 -0.0000  0.0732 -0.0651
 3412W        W16826   0.798   9.381   4.972  0.0605  0.0215  0.0719
 3413W        W16827  15.667  14.807  15.589 -0.1413  0.0860 -0.0488
 3414W        W16828   9.190   2.158   1.119 -0.0522  0.1049  0.2179
 3415W        W16829   4.581   6.725  13.950  0.0325  0.0750 -0.1445
 3416W        W16830   9.111  13.480   0.665 -0.0939  0.0193 -0.1950
 3417W        W16831   6.998   7.576  10.940 -0.1754  0.0267 -0.2515
 3418W        W16832  16.553   4.249   0.215  0.1678  0.0896  0.1718
 3419W        W16833  13.126  11.331  13.578  0.0702 -0.2676 -0.2569
 3420W        W16834   4.315   3.919   5.063  0.1933  0.0814  0.0935
 3421W        W16835   2.949  12.159   0.015  0.0558 -0.0104  0.1308
 3422W        W16836   0.720   7.645   4.705 -0.2382 -0.2340  0.1356
 3423W        W16837  10.203  11.888   1.194 -0.1351  0.0952  0.0607
 3424W        W16838   7.338   1.925  14.188 -0.1088  0.0557  0.0164
 3425W        W16839  18.122  10.525  12.401 -0.0906 -0.0938 -0.0830
 3426W        W16840  17.601   4.662  11.710 -0.2251  0.0553 -0.3053
 3427W        W16841   0.610  12.830   1.509 -0.1373 -0.0951 -0.1567
 3428W        W16842  12.398  13.237  13.683  0.1792 -0.0993  0.1385
 3429W        W16843   3.286  16.269  12.559 -0.2365 -0.3477 -0.3143
 3430W        W16844   8.075   4.873  14.940 -0.2955 -0.2733 -0.1816
 3431W        W16845   3.171   3.240   2.915  0.0979  0.0360  0.1936
 3432W        W16846  14.235  13.102  11.670 -0.4848 -0.0761 -0.0337
 3433W        W16847   2.811  16.188  12.674 -0.0614  0.1464 -0.1884
 3434W        W16848  12.252  10.333  10.428 -0.1406  0.1027  0.2885
 3435W        W16849   1.880   2.191  11.914 -0.1594 -0.0991 -0.0026
 3436W        W16850   6.605   9.041  13.169 -0.0105 -0.2935  0.4609
 3437W        W16851  11.988  13.464   4.224 -0.2537  0.0769  0.0239
 3438W        W16852   2.835   0.292   5.170 -0.3878 -0.1110  0.1595
 3439W        W16853   1.386  10.540   0.699  0.0582 -0.0628  0.3076
 3440W        W16854   8.683  16.243   3.990  0.0757  0.4626 -0.2384
 3441W        W16855  10.068   0.208   7.010 -0.0956  0.1550 -0.2285
 3442W        W16856   4.514   2.972   5.062 -0.1765  0.3495  0.0693
 3443W        W16857  10.455   4.386   4.481  0.1561  0.1770  0.1332
 3444W        W16858  17.944  13.907  14.840  0.2140 -0.0991  0.3080
 3445W        W16859   7.168  10.359  11.144  0.0090 -0.0353 -0.1086
 3446W        W16860  16.174   0.966  12.568 -0.2513  0.2065  0.2133
 3447W        W16861   5.314  17.821   5.408  0.4331  0.3754 -0.0563
 3448W        W16862  15.602   0.732  14.324  0.0484  0.3166 -0.2847
 3449W        W16863   6.933  17.760   1.899  0.1297 -0.0995  0.2450
 3450W        W16864   4.893   2.590  12.372  0.0375  0.0978  0.2746
 3451W        W16865   5.132   3.224   2.456 -0.1808  0.1296  0.0696
 3452W        W16866  13.651  10.110   4.938 -0.2343  0.1092  0.2726
 3453W        W16867  11.792   8.029  13.327  0.2762  0.0524 -0.0212
 3454W        W16868   0.201   4.399   3.169  0.4094  0.2635 -0.0867
 3455W        W16869   1.461   1.240  11.967 -0.0867 -0.0079 -0.4142
 3456W        W16870  11.837   7.646   2.459  0.1044  0.0954 -0.0509
 3457W        W16871  15.797   1.421  15.540 -0.0270  0.1646 -0.3328
 3458W        W16872  12.498   1.684  11.994 -0.0701 -0.1975 -0.1051
 3459W        W16873  11.288   1.537  12.446  0.0986 -0.0081 -0.3382
 3460W        W16874   4.119   8.145  16.218 -0.2608  0.0681 -0.1090
 3461W        W16875   1.524   8.600  11.911 -0.0006 -0.0493  0.0013
 3462W        W16876  15.382  10.738  13.055  0.1208  0.0498  0.1081
 3463W        W16877  12.550  16.724  13.379 -0.0885 -0.4634 -0.2640
 3464W        W16878   0.343   1.271  16.001  0.1668  0.3806 -0.1915
 3465W        W16879  17.591  17.924  14.254  0.0419  0.1529 -0.0869
 3466W        W16880   9.776   5.494   1.648  0.1893  0.2377 -0.3190
 3467W        W16881   7.565   4.957  10.716  0.0657  0.4125  0.0813
 3468W        W16882  12.447  15.535  13.780 -0.0382 -0.5795 -0.0766
 3469W        W16883  18.076  12.523  11.748  0.1723  0.0431 -0.0232
 3470W        W16884  17.818   6.837   2.082 -0.0446 -0.1622  0.1409
 3471W        W16885  13.916  13.092   2.188 -0.2928 -0.0528  0.1344
 3472W        W16886   5.732  10.766   3.918  0.3440  0.1181  0.1033
 3473W        W16887   4.668  16.825   0.874  0.0509 -0.2274 -0.3029
 3474W        W16888   9.105   9.271   3.350 -0.1946 -0.1774  0.0295
 3475W        W16889  14.488  10.325  11.191 -0.0726  0.1263 -0.2475
 3476W        W16890   5.666   2.798  11.367  0.0989 -0.2592 -0.0128
 3477W        W16891   6.931  12.016  14.365 -0.1522 -0.2302  0.2202
 3478W        W16892   5.110   5.251   0.151  0.0383 -0.4934 -0.3757
 3479W        W16893   7.846   1.515  10.876  0.1977  0.2260 -0.1102
 3480W        W16894   7.236  12.220   3.489 -0.0807  0.0541  0.0111
 3481W        W16895  15.373   8.995   3.772  0.3177  0.0550  0.1111
 3482W        W16896   4.772  11.241   0.079  0.0930 -0.0027  0.5338
 3483W        W16897  10.573  17.858  12.862  0.1036  0.0881  0.1867
 3484W        W16898   3.489  13.997  13.847  0.0312 -0.0334  0.0124
 3485W        W16899   2.819   5.405  13.105  0.0136  0.1023 -0.2763
 3486W        W16900  17.292   3.396  14.436 -0.0875  0.0443  0.0856
 3487W        W16901  13.817  10.225  12.196 -0.0892 -0.3319  0.0687
 3488W        W16902   8.314   9.178   6.058  0.1645  0.1208  0.2573
 3489W        W16903  10.512  14.990  16.413 -0.1805  0.2558  0.0946
 3490W        W16904   8.407   9.632   0.506 -0.3466 -0.1634 -0.0905
 3491W        W16905   5.787  13.676   5.988  0.0062 -0.0215 -0.5214
 3492W        W16906   5.177  16.483   5.579 -0.1271  0.2235  0.1943
 3493W        W16907   7.547  16.191   2.534  0.1131 -0.3252 -0.1339
 3494W        W16908  17.806   6.212  16.329 -0.4543 -0.0614 -0.4736
 3495W        W16909   9.783   0.419  16.191  0.1586  0.1388  0.1152
 3496W        W16910  11.502  12.861  12.292  0.0042 -0.1852 -0.1169
 3497W        W16911   4.137   2.475  11.805 -0.0181  0.1871  0.3715
 3498W        W16912   4.123   9.766  13.086  0.1826  0.3234  0.0946
 3499W        W16913   3.697  11.348   1.994 -0.1454  0.1254 -0.1645
 3500W        W16914   4.772  17.025   4.815 -0.0340  0.0031 -0.2152
 3501W        W16915  16.628  13.957  15.357 -0.0164 -0.1372  0.0460
 3502W        W16916  17.985   5.055  10.555 -0.2643 -0.0658  0.0478
 3503W        W16917  12.103  16.535  12.673  0.3530  0.0736 -0.3186
 3504W        W16918  16.658   3.388   5.263  0.0612 -0.1673  0.2230
 3505W        W16919  10.916  13.816  10.693  0.0294 -0.0805 -0.2158
 3506W        W16920   6.243  15.627   4.991 -0.1503  0.1166  0.2750
 3507W        W16921   9.748  11.634   1.119 -0.0602 -0.0188 -0.1858
 3508W        W16922  12.725  10.721   1.708 -0.0075 -0.3050  0.1994
 3509W        W16923   2.821  17.202  11.804  0.0306 -0.0605  0.2646
 3510W        W16924  15.885   7.055  10.499  0.0597  0.0331  0.0647
 3511W        W16925  13.847   6.012  14.136 -0.0295 -0.2806 -0.3147
 3512W        W16926   6.946  16.095   2.891 -0.0263  0.0470 -0.0740
 3513W        W16927  12.655   9.750   4.132 -0.1984 -0.2479  0.1646
 3514W        W16928   9.618   3.373   1.465 -0.0879  0.2145  0.2817
 3515W        W16929  13.878   4.748   3.142 -0.2828  0.0810  0.1323
 3516W        W16930   5.863   7.846   5.128  0.1055  0.3251 -0.2028
 3517W        W16931  13.859  11.181   2.620  0.1606 -0.0332  0.1992
 3518W        W16932   7.681   2.601  13.480 -0.1372  0.1877 -0.2129
 3519W        W16933   4.909  10.214   1.724 -0.0577 -0.1700  0.3546
 3520W        W16934   3.991   9.159   4.282 -0.2049  0.1203  0.0256
 3521W        W16935   7.961  12.507   2.323 -0.0238  0.1418 -0.0454
 3522W        W16936   0.640  14.894   6.094  0.2411 -0.4503 -0.0757
 3523W        W16937  17.656  15.646   3.791 -0.2607  0.1171  0.0323
 3524W        W16938   6.904   2.017  15.788  0.0675 -0.0925  0.1752
 3525W        W16939   3.243   0.606  13.876  0.2208 -0.2783 -0.2841
 3526W        W16940  13.082  11.710   3.807 -0.3354 -0.0186  0.0396
 3527W        W16941  15.978  18.079  13.512  0.0862 -0.4540  0.2988
 3528W        W16942  13.023   9.949   0.814 -0.1293 -0.0931 -0.2097
 3529W        W16943  10.167  14.564   1.633 -0.0817 -0.1730  0.2737
 3530W        W16944   2.439  17.498   1.133 -0.0603  0.0185 -0.0047
 3531W        W16945  12.034  11.878   6.110 -0.1936  0.0536  0.1960
 3532W        W16946  14.023   9.332   4.557  0.1087  0.2661 -0.5945
 3533W        W16947  10.699   2.599   0.406  0.0366 -0.0067 -0.0190
 3534W        W16948   2.696   8.606  10.811  0.0881 -0.3096  0.3746
 3535W        W16949  13.744  13.504   6.347 -0.0723  0.3789  0.4734
 3536W        W16950   5.838   1.236   1.865 -0.2046 -0.3570 -0.0173
 3537W        W16951  13.497  10.105   3.945 -0.0354 -0.2473  0.0377
 3538W        W16952  16.502   5.628  13.669 -0.2088  0.4402  0.0502
 3539W        W16953  13.642  13.903  16.135  0.0041  0.0814 -0.2295
 3540W        W16954  12.364   9.003   1.952  0.1005 -0.0357 -0.4046
 3541W        W16955   9.252   2.009  14.728  0.2243 -0.2479 -0.4362
 3542W        W16956   2.638   8.761  15.844  0.2637  0.0041  0.2222
 3543W        W16957  12.783   2.205  11.906 -0.1501 -0.1342 -0.1994
 3544W        W16958   7.741  11.893  15.070  0.1737 -0.2442 -0.2525
 3545W        W16959   3.893  17.111   5.539  0.0376  0.0307  0.0155
 3546W        W16960   0.273  10.193   4.357  0.1410  0.0009  0.1250
 3547W        W16961   1.036  11.014   6.236  0.0909  0.0778 -0.0581
 3548W        W16962   2.154   8.881  14.902  0.0131  0.2777  0.0311
 3549W        W16963  17.563  10.164  14.143  0.0524 -0.1700 -0.0254
 3550W        W16964  17.061   4.390   3.682  0.2254  0.2076 -0.0294
 3551W        W16965  13.735   4.940  13.369  0.0667 -0.0849  0.2148
 3552W        W16966   3.590   9.878   5.382 -0.1937 -0.0893 -0.3287
 3553W        W16967   4.348   4.803  16.411 -0.0822  0.1042  0.3016
 3554W        W16968   5.000  14.366   3.950  0.3021  0.1521 -0.0664
 3555W        W16969   2.240   3.466  12.049  0.1841  0.3498  0.2977
 3556W        W16970  11.711   1.472   6.916  0.0057  0.0047 -0.0283
 3557W        W16971   4.870   4.420  14.959 -0.1296  0.0044  0.0222
 3558W        W16972   6.935   3.954   1.866  0.1862  0.1240 -0.2144
 3559W        W16973   2.453  17.602  15.140 -0.4548  0.2433 -0.2031
 3560W        W16974   0.064  10.356   2.718  0.1581  0.1662 -0.1387
 3561W        W16975   3.001  15.595  11.925 -0.1088  0.0493 -0.1612
 3562W        W16976   5.499  13.339   0.662  0.3064 -0.0662  0.2883
 3563W        W16977   1.327  17.393   0.103  0.2650  0.3655 -0.1008
 3564W        W16978   6.755  17.019   3.570  0.2029  0.0574 -0.0848
 3565W        W16979   7.205   0.872   5.457  0.3128 -0.0412  0.0866
 3566W        W16980   5.381   2.133   4.480 -0.2590 -0.0682  0.1161
 3567W        W16981  16.619  12.046   4.691  0.1063 -0.1197  0.1756
 3568W        W16982  11.887   1.160  15.196 -0.0563  0.3578  0.1451
 3569W        W16983   0.071   3.297   0.896  0.1147  0.3674  0.1187
 3570W        W16984   6.521  14.916  11.809  0.0063  0.1739 -0.1037
 3571W        W16985  18.120  13.098   1.705 -0.1648  0.1846  0.0660
 3572W        W16986   1.233  12.053  12.512  0.0265 -0.0198 -0.2074
 3573W        W16987  15.349   7.230  16.538  0.3529 -0.1263  0.0572
 3574W        W16988  11.355  17.348  12.937  0.2124  0.1758 -0.0557
 3575W        W16989   2.457   3.582   1.636  0.1626 -0.0051  0.0819
 3576W        W16990  14.361  15.919   2.937 -0.1516  0.2629  0.2603
 3577W        W16991   5.788   5.758   1.675  0.1704 -0.1243 -0.1575
 3578W        W16992   3.953   5.499  10.954 -0.0292  0.1356 -0.2217
 3579W        W16993  10.515  13.066   1.794 -0.1044  0.0555 -0.3319
 3580W        W16994  12.150  16.455  13.168  0.0718 -0.1492 -0.0577
 3581W        W16995   9.057  14.660   6.441 -0.0532  0.1174 -0.0698
 3582W        W16996   6.734   1.218   4.092 -0.1146  0.4145 -0.1644
 3583W        W16997  13.264   6.424  14.686 -0.5937  0.1803 -0.0441
 3584W        W16998   3.058   5.367   4.882 -0.0491 -0.0073  0.1783
 3585W        W16999   2.240   9.093   0.059 -0.2387  0.0018  0.0043
 3586W        W17000   9.809   8.107   5.391 -0.0152  0.2284  0.2718
 3587W        W17001   0.404   4.615   2.769  0.1305 -0.2340  0.1792
 3588W        W17002  15.693  12.525  14.436 -0.0248 -0.2828 -0.0827
 3589W        W17003   4.407   4.767  12.210  0.0570  0.0486 -0.0131
 3590W        W17004   9.967   9.249  14.722 -0.1941 -0.0596  0.3466
 3591W        W17005   8.764  14.307   3.629  0.0060 -0.0826  0.0577
 3592W        W17006  10.108  15.911  13.805  0.2231  0.2301  0.1901
 3593W        W17007   4.303  13.442   0.028  0.2647  0.1654 -0.4034
 3594W        W17008   8.708   3.313   3.224 -0.0884  0.1677 -0.0421
 3595W        W17009   8.110   0.713   2.912  0.0810  0.0692  0.0204
 3596W        W17010   3.022   6.308  12.315  0.2999 -0.0785 -0.1580
 3597W        W17011   8.953   8.324  12.250 -0.0098 -0.0915 -0.2550
 3598W        W17012   9.311   2.180   6.376  0.0602  0.0382  0.0171
 3599W        W17013   1.500   7.944   4.291  0.2243 -0.1054  0.0610
 3600W        W17014   5.007   6.101  16.342  0.3095 -0.0712 -0.4120
 3601W        W17015   9.222   7.779  15.032 -0.1066 -0.1973 -0.1870
 3602W        W17016  16.558   0.541  11.347 -0.0177 -0.0578  0.1372
 3603W        W17017   5.622  10.265  15.231 -0.0786  0.3366 -0.1520
 3604W        W17018   2.192  11.322  15.832 -0.1382 -0.1025  0.1707
 3605W        W17019  11.686  15.139  12.886 -0.1449 -0.1035 -0.0386
 3606W        W17020   8.921  15.915   0.508 -0.0297  0.1773 -0.1901
 3607W        W17021  16.437   5.719   1.454  0.2943  0.0520  0.1269
 3608W        W17022   8.723  11.287  14.049 -0.1370 -0.1187  0.1508
 3609W        W17023  10.592  14.285   4.471  0.0894  0.0814 -0.0917
 3610W        W17024  16.143  13.274   1.811  0.2021  0.2201  0.1517
 3611W        W17025   4.413  10.555  12.690  0.4775  0.1092  0.1620
 3612W        W17026  16.704  14.005  14.469 -0.1706 -0.1227  0.2631
 3613W        W17027  14.735   1.277  12.353  0.2215  0.0293  0.0373
 3614W        W17028  13.702   5.663   0.161  0.0902  0.3046  0.1404
 3615W        W17029  11.133   1.033   4.617 -0.0112 -0.0413  0.0375
 3616W        W17030   9.522  13.648   4.856  0.3382 -0.1141  0.3418
 3617W        W17031   3.408   1.241  13.355  0.2151  0.1790 -0.1168
 3618W        W17032  13.278   4.182  10.912  0.1449  0.0439 -0.3421
 3619W        W17033   4.464   6.884  13.029 -0.3818 -0.0630 -0.4854
 3620W        W17034   7.238   1.787  11.599  0.4264  0.0664 -0.0446
 3621W        W17035  11.706   9.520   1.392  0.2003 -0.2273  0.0717
 3622W        W17036   4.734   0.527  12.725  0.0281  0.0711  0.0302
 3623W        W17037   4.739   9.887  16.012 -0.2009  0.0468  0.1512
 3624W        W17038  16.309   9.716   2.506 -0.1543  0.0778 -0.0391
 3625W        W17039   1.283   3.742  11.687 -0.1303 -0.2696 -0.1496
 3626W        W17040  11.517  16.426  13.786 -0.2371 -0.1837 -0.2162
 3627W        W17041  16.544   7.459  10.027  0.1061 -0.2118 -0.0726
 3628W        W17042   9.983   8.337   2.112 -0.0651  0.2567  0.3902
 3629W        W17043  10.026   9.399  14.210  0.2973  0.2733  0.0117
 3630W        W17044   8.051  16.762  15.010  0.0453 -0.0694  0.1877
 3631W        W17045   2.449   5.976  12.044  0.1073  0.1272 -0.0223
 3632W        W17046   3.053   6.573  13.613  0.0705  0.1094 -0.0907
 3633W        W17047   8.100   5.082   1.484 -0.5108 -0.0465  0.0407
 3634W        W17048  13.426   7.144   4.696 -0.3045 -0.0150 -0.3301
 3635W        W17049   3.213  12.297   3.117 -0.0612 -0.0615  0.0805
 3636W        W17050   2.029   6.273   1.489  0.2262 -0.1010  0.1390
 3637W        W17051  17.894  12.545   4.783  0.1535  0.0045 -0.0295
 3638W        W17052   0.917   9.174   3.564 -0.0884 -0.2062 -0.0338
 3639W        W17053   0.500   6.575   2.173  0.2970 -0.1144 -0.3294
 3640W        W17054   5.052   8.770   3.746 -0.2918 -0.1305 -0.1254
 3641W        W17055  17.259  14.861   5.266  0.0232  0.0363  0.3991
 3642W        W17056   3.040  18.182  11.992  0.2294  0.1370 -0.1754
 3643W        W17057   1.349   2.431   9.733  0.1742 -0.0270  0.4096
 3644W        W17058   4.829  12.434   0.866 -0.3227 -0.1650  0.0512
 3645W        W17059  10.404  18.274  11.131 -0.4139 -0.2443 -0.1685
 3646W        W17060  16.544  13.506  14.214  0.0617  0.1713 -0.0528
 3647W        W17061  11.857   4.884   5.531 -0.0208  0.4099  0.0146
 3648W        W17062  15.331  15.944  13.545 -0.2398 -0.0038  0.1150
 3649W        W17063   4.624   7.445  15.795  0.0666 -0.1371 -0.3697
 3650W        W17064   7.213  16.781  11.756 -0.0536  0.2121  0.2535
 3651W        W17065  13.432  13.510  15.134  0.1543  0.0634 -0.1207
 3652W        W17066  15.736   6.172   5.120  0.0955 -0.1311 -0.2830
 3653W        W17067   3.732  14.994   5.381 -0.3290 -0.0186 -0.1428
 3654W        W17068   8.969   9.138  15.203 -0.1667  0.0230  0.0689
 3655W        W17069   5.988   2.424  11.330  0.2030  0.0697  0.2672
 3656W        W17070  14.985  17.709   3.774 -0.0131  0.2311 -0.1236
 3657W        W17071  18.094   7.887  13.614 -0.0261 -0.2972 -0.1532
 3658W        W17072  15.034  11.181  13.894 -0.0579 -0.2077  0.0496
 3659W        W17073  16.792  10.915  12.969  0.2826  0.2546 -0.1071
 3660W        W17074   5.834   9.406  10.776  0.0051 -0.2027 -0.3760
 3661W        W17075  11.778  10.076  14.505  0.1267  0.1691  0.2343
 3662W        W17076  15.029   5.087   0.860  0.2550  0.0866  0.1763
 3663W        W17077  16.905  13.727   1.344 -0.0504 -0.4054  0.0924
 3664W        W17078  16.935   9.622   3.255 -0.1276  0.1910 -0.2387
 3665W        W17079   9.512  12.208  10.613  0.0343  0.2304 -0.0867
 3666W        W17080   6.181   1.085  10.740  0.2154  0.0406 -0.0471
 3667W        W17081   5.559   4.990   4.292 -0.0290 -0.1533  0.1236
 3668W        W17082   8.792   6.366   2.379  0.0665  0.1791 -0.1617
 3669W        W17083  16.780  15.587   1.666 -0.0168  0.0114  0.0575
 3670W        W17084   8.434   0.843  13.806  0.0703 -0.0501  0.2101
 3671W        W17085   3.602  14.845  11.908 -0.0429 -0.3464 -0.1641
 3672W        W17086  16.363   3.990  15.977 -0.0766  0.1100 -0.2063
 3673W        W17087  12.143  12.288  14.082  0.2362 -0.2422  0.0349
 3674W        W17088   6.337  17.593  12.621  0.2420 -0.0790 -0.0846
 3675W        W17089   3.777   0.577   5.152  0.1873  0.1244  0.1841
 3676W        W17090   6.285  14.265   3.305 -0.0023  0.0668  0.1551
 3677W        W17091  13.631   6.950  15.590  0.1882  0.1278 -0.0070
 3678W        W17092  10.869   1.235   4.231 -0.4892  0.1410  0.1578
 3679W        W17093   7.294  10.850   4.725 -0.2912  0.3798 -0.0900
 3680W        W17094   8.290  14.550   0.049  0.2585  0.0246 -0.6111
 3681W        W17095   6.124   1.540   4.911  0.1598 -0.1473 -0.0092
 3682W        W17096   7.042  15.414  12.364  0.0768  0.3680 -0.1009
 3683W        W17097  13.288   2.679  13.727 -0.1254  0.1160  0.0720
 3684W        W17098   8.211   1.378  11.639 -0.1660  0.2114  0.0063
 3685W        W17099  18.214   5.419  10.806  0.2700 -0.1356  0.0976
 3686W        W17100  13.458   9.379  13.119  0.0369  0.1604  0.1303
 3687W        W17101  10.555   1.039  12.179 -0.0544  0.2327 -0.1365
 3688W        W17102   9.925   6.216  11.536  0.3179 -0.0174  0.0376
 3689W        W17103   1.752   5.085  13.822  0.0111 -0.1351  0.1064
 3690W        W17104  12.125  11.842  15.765  0.0994  0.0330  0.1672
 3691W        W17105  14.104  10.793   3.342  0.2115 -0.0801  0.2569
 3692W        W17106  16.716   6.954  14.775  0.3198 -0.2350  0.1013
 3693W        W17107  15.306   0.917  15.798 -0.1724  0.2448 -0.1427
 3694W        W17108  16.095  12.419  16.109 -0.1972  0.0250 -0.0035
 3695W        W17109  10.421  16.032  12.804 -0.1484  0.1537 -0.2281
 3696W        W17110  17.688   2.915  15.528  0.4159 -0.0784  0.0687
 3697W        W17111   2.067   2.221   1.834 -0.1290 -0.0205  0.2184
 3698W        W17112  15.167   4.077   1.065  0.0604 -0.0285 -0.0202
 3699W        W17113   7.465   9.316  13.527  0.1798 -0.0979  0.1196
 3700W        W17114  12.394  14.186   2.602 -0.0254 -0.4537  0.1454
 3701W        W17115  15.826  13.774  12.349  0.0494  0.0290  0.0413
 3702W        W17116  17.312   9.253  11.157 -0.3507 -0.0692  0.0749
 3703W        W17117  17.183   2.066   0.843 -0.1682  0.3550 -0.0479
 3704W        W17118   1.106  11.527   4.611 -0.1725  0.1261 -0.5655
 3705W        W17119   0.714   3.412  15.537 -0.3315 -0.2469  0.3013
 3706W        W17120  13.369   4.007   2.841  0.0318  0.0031  0.0767
 3707W        W17121   1.099   4.185   2.698 -0.0393  0.0822  0.0548
 3708W        W17122   4.201   5.380  15.024 -0.2880 -0.2421 -0.2953
 3709W        W17123   4.388  17.536   3.795 -0.0254 -0.1609  0.2395
 3710W        W17124   7.501   2.797  16.374  0.0171 -0.3581 -0.0989
 3711W        W17125   4.175   9.260   0.007 -0.0955 -0.1581 -0.1110
 3712W        W17126  16.831   8.368  12.048  0.2271 -0.3677  0.2948
 3713W        W17127   4.741   8.682  15.675  0.1027  0.1738  0.0032
 3714W        W17128  12.126   2.398  15.674  0.0806  0.0199 -0.0932
 3715W        W17129  17.842  11.925   6.001 -0.1129  0.0578 -0.0241
 3716W        W17130  13.611   2.744  12.882 -0.0286 -0.3640  0.0578
 3717W        W17131  14.992  14.905   3.699 -0.2010  0.2589 -0.0452
 3718W        W17132   6.761  15.890  16.145 -0.1090 -0.1649  0.0342
 3719W        W17133   4.651   5.510   5.557  0.1686 -0.2599 -0.1245
 3720W        W17134   4.041  12.422   2.244  0.2583  0.1096  0.0498
 3721W        W17135   0.560   8.565   2.891  0.1720  0.0683 -0.2324
 3722W        W17136   4.999  15.143   0.849  0.3052  0.1422 -0.1660
 3723W        W17137   5.095  12.776  12.363  0.1221  0.2061 -0.0318
 3724W        W17138  15.429  16.661   3.385  0.1234 -0.3094 -0.1482
 3725W        W17139   1.237  16.646   2.741  0.0419 -0.1490  0.2627
 3726W        W17140  14.020   1.565  16.512 -0.2207  0.1113 -0.3940
 3727W        W17141  11.797   5.910  12.806 -0.2324 -0.2896  0.0702
 3728W        W17142   4.796   5.257  12.933 -0.0659 -0.1736  0.1120
 3729W        W17143   6.939   8.447  15.290 -0.3720 -0.0637  0.0075
 3730W        W17144  13.762  16.369   4.054 -0.2016  0.2660 -0.0913
 3731W        W17145   4.681   0.557   4.904 -0.1369  0.2122 -0.1558
 3732W        W17146  17.898   2.583   5.228  0.1465  0.0264  0.2302
 3733W        W17147   7.636  16.759   5.973 -0.1501  0.1427 -0.4123
 3734W        W17148  10.548   3.514   2.859 -0.0713  0.0420  0.0480
 3735W        W17149   7.719   8.748  12.459  0.0303 -0.1111 -0.1031
 3736W        W17150   2.533   5.502   0.337  0.1356 -0.1162 -0.1088
 3737W        W17151  14.573  12.287   3.720  0.0394  0.0285  0.0924
 3738W        W17152   6.205  12.300  10.576  0.0410 -0.3551  0.0278
 3739W        W17153  15.825   4.854   4.626  0.1087 -0.0434  0.0192
 3740W        W17154   9.828   9.350  12.658  0.0841  0.2250  0.1678
 3741W        W17155   0.285   3.241  15.783  0.0261  0.2164 -0.0835
 3742W        W17156   6.372   9.191   4.447  0.0343 -0.0007  0.2791
 3743W        W17157   4.070   9.135  16.076  0.2809 -0.2398 -0.0334
 3744W        W17158   5.379  15.269  12.949  0.0140 -0.1039  0.0491
 3745W        W17159  10.310  15.092  10.141 -0.1711 -0.3196  0.2295
 3746W        W17160   0.135  11.460  13.001 -0.0461  0.0005 -0.0568
 3747W        W17161  15.278   8.522   0.554  0.1153  0.0622  0.1787
 3748W        W17162  16.884  11.249  12.461 -0.1190 -0.1055  0.1497
 3749W        W17163   7.301   1.915   1.685  0.1680  0.0419  0.1467
 3750W        W17164  12.771  11.436  16.429  0.0780 -0.0409 -0.0746
 3751W        W17165   2.807  15.488  13.662  0.1086  0.5924 -0.1461
 3752W        W17166  11.664   4.288   0.060  0.1925  0.3058  0.5711
 3753W        W17167   1.115  17.877   0.951 -0.0489  0.0740 -0.2890
 3754W        W17168   1.943   3.190   2.140 -0.1005  0.1997 -0.1730
 3755W        W17169  16.374   0.727  13.008  0.3428  0.1870 -0.0160
 3756W        W17170   1.492   0.595   4.148  0.1537 -0.0956 -0.0399
 3757W        W17171   3.386  13.482  13.789 -0.2976 -0.0108  0.0823
 3758W        W17172   3.420   4.372   2.721 -0.1612 -0.0692 -0.1374
 3759W        W17173   1.832  16.893  15.172  0.0896  0.1031 -0.0455
 3760W        W17174   0.835   3.164  11.032  0.0347  0.1179 -0.1173
 3761W        W17175   6.837   7.056   2.407  0.1026 -0.1257 -0.1299
 3762W        W17176   6.023  12.279  14.950 -0.0110  0.1184 -0.0974
 3763W        W17177   8.495   7.727   0.406  0.2699 -0.2503 -0.1238
 3764W        W17178  11.239   2.028  12.127 -0.0259 -0.0484 -0.2828
 3765W        W17179  14.351   3.329  15.551  0.0218 -0.2540 -0.1603
 3766W        W17180  12.358   7.275  14.794 -0.0317 -0.0061  0.2442
 3767W        W17181   8.808   5.996  13.051  0.0224  0.1675  0.4496
 3768W        W17182   9.973  15.506   3.619 -0.1539 -0.2779  0.2565
 3769W        W17183   7.452   4.481  15.512 -0.2740  0.2537  0.1987
 3770W        W17184  18.094   2.430  13.300 -0.2083 -0.3653  0.1570
 3771W        W17185   3.009  16.097  14.694  0.1114  0.1956  0.0461
 3772W        W17186   1.336   1.656  13.247  0.0596 -0.0861 -0.0418
 3773W        W17187  11.038   0.234  16.327 -0.3228 -0.0022 -0.0188
 3774W        W17188   7.117   2.813   2.234 -0.2156 -0.0958  0.0625
 3775W        W17189   9.902  15.633  14.739  0.4180  0.3446 -0.1623
 3776W        W17190  11.514   4.033  13.418  0.1904  0.3270  0.0216
 3777W        W17191   0.487  15.800  12.132  0.2194  0.2116 -0.0836
 3778W        W17192   5.100  12.531  13.889  0.5138  0.1379  0.0142
 3779W        W17193   3.733   3.891   1.668 -0.2663 -0.2977  0.2177
 3780W        W17194  14.066  15.588   1.306 -0.1626  0.1500 -0.0783
 3781W        W17195   5.421   7.412  13.362  0.1963 -0.1489 -0.1688
 3782W        W17196  14.925   6.756  13.976 -0.0836  0.0398 -0.1014
 3783W        W17197  14.829  14.202   2.574  0.0121 -0.0733  0.0061
 3784W        W17198  15.652   3.604   0.671 -0.1092  0.0271  0.1646
 3785W        W17199   2.223  13.301   3.722 -0.1471  0.0874  0.0835
 3786W        W17200   2.471   1.847   5.256 -0.2465 -0.2496 -0.0140
 3787W        W17201  16.808  17.965   1.130  0.4075 -0.0691  0.2757
 3788W        W17202   4.166   3.329  13.339 -0.0185  0.1181  0.1795
 3789W        W17203   8.470   5.990   4.505 -0.2318  0.1352  0.0667
 3790W        W17204  17.737  12.395  15.022 -0.2386 -0.3832 -0.0482
 3791W        W17205   3.491   0.976   3.422 -0.3180 -0.1407  0.1270
 3792W        W17206   6.303  16.597  12.785 -0.1134 -0.3291 -0.0735
 3793W        W17207  16.301   6.254   2.941 -0.1871 -0.0759 -0.2458
 3794W        W17208  12.759  15.916  12.393  0.5166  0.0324  0.1563
 3795W        W17209   3.954  10.019   3.683  0.2059 -0.0726  0.1342
 3796W        W17210  16.843  13.776   6.137 -0.3436 -0.3558  0.1670
 3797W        W17211   6.739   8.144   5.273  0.0005  0.0909 -0.0395
 3798W        W17212  14.243  11.248  15.668  0.1253  0.0979 -0.3628
 3799W        W17213  13.965  14.502   0.906 -0.1707 -0.0354  0.2031
 3800W        W17214   5.819   8.726   3.202 -0.1647  0.0224  0.1296
 3801W        W17215   8.562   1.178   6.488 -0.0809  0.0687  0.0503
 3802W        W17216   9.043  13.847   0.279 -0.0455  0.3484  0.3045
 3803W        W17217   4.108  15.429  15.836 -0.4406 -0.4096  0.0528
 3804W        W17218   5.311   7.375   1.406 -0.2156 -0.0277 -0.2878
 3805W        W17219  13.540   7.445   5.106  0.1003  0.1603  0.2208
 3806W        W17220  12.321   3.746   6.475  0.1888 -0.2034  0.1218
 3807W        W17221  16.700   4.843  13.168  0.1108  0.2381  0.0710
 3808W        W17222   7.662   4.531   0.703 -0.0099  0.0071 -0.0888
 3809W        W17223   6.330   2.456  13.946 -0.0170  0.1099  0.1474
 3810W        W17224  17.435  12.775  10.794  0.0527 -0.1614  0.0846
 3811W        W17225   9.706  17.106   3.725 -0.1505  0.1067 -0.0371
 3812W        W17226   6.225  12.267  11.573  0.1363 -0.1211  0.0559
 3813W        W17227  14.308   1.611   4.659  0.1986 -0.0010  0.0844
 3814W        W17228   1.442  10.423  13.205  0.0190 -0.0629  0.0766
 3815W        W17229   0.999   6.271  10.966  0.0081  0.1271 -0.1010
 3816W        W17230  12.068  16.488   0.018 -0.1718  0.1050  0.1229
 3817W        W17231   1.826   3.365  12.418  0.0269 -0.1579 -0.3740
 3818W        W17232  13.654   2.075  11.896  0.2290  0.1652 -0.2185
 3819W        W17233  17.955  17.090   4.406 -0.1841  0.0744 -0.1925
 3820W        W17234  13.537   7.823  11.526 -0.1255 -0.0837  0.3143
 3821W        W17235  16.538  15.002   0.173  0.0640  0.2341 -0.1028
 3822W        W17236   8.247  14.288  15.443 -0.0687 -0.2228  0.0989
 3823W        W17237  12.226  11.988  14.879 -0.0276  0.1524 -0.0580
 3824W        W17238  12.355   2.535  14.335  0.2104  0.1431  0.0498
 3825W        W17239   7.291   7.271   4.878 -0.1457 -0.3831 -0.1233
 3826W        W17240   9.805   8.670  16.554 -0.0780  0.0187  0.1048
 3827W        W17241  12.359   0.262  11.649  0.1650 -0.0602 -0.1259
 3828W        W17242   8.577  16.838   4.354  0.2412  0.1627 -0.2590
 3829W        W17243   6.318   2.773   2.747  0.0584  0.1269  0.0214
 3830W        W17244   6.742   4.443  16.537 -0.4253  0.2489 -0.4354
 3831W        W17245   9.249   8.714  14.340  0.2379  0.1286  0.0698
 3832W        W17246   8.792   8.541   1.297  0.3954  0.0056 -0.0718
 3833W        W17247   6.002   3.659   4.760  0.2024 -0.0376  0.0548
 3834W        W17248  15.924   1.088   3.617 -0.1799 -0.2614 -0.1483
 3835W        W17249   5.469   7.838   5.563  0.1554 -0.1872  0.0038
 3836W        W17250  16.496   9.248  13.809  0.0978 -0.3232  0.0654
 3837W        W17251   0.646  15.762  15.921  0.1580 -0.1938  0.0260
 3838W        W17252   7.296  14.422  13.060 -0.0643  0.2769  0.1820
 3839W        W17253   4.232  17.279  13.571  0.2947  0.1649 -0.0037
 3840W        W17254   1.645   6.563  12.880  0.0430 -0.1484  0.2407
 3841W        W17255   9.330  15.004  13.323  0.1539 -0.1316 -0.0279
 3842W        W17256   7.830   3.944  11.505  0.1130  0.1675 -0.3479
 3843W        W17257   5.231  12.896   9.991  0.2289  0.2413  0.3440
 3844W        W17258  10.331   4.136  14.486 -0.0022  0.0346 -0.3660
 3845W        W17259  11.774  15.049   1.477  0.0324  0.1683 -0.3935
 3846W        W17260  15.468  10.760   3.698  0.0249  0.0235  0.0413
 3847W        W17261  16.750   0.248  12.010 -0.1318  0.0915 -0.1644
 3848W        W17262   4.336  13.608  11.671 -0.1807 -0.1482 -0.0560
 3849W        W17263   0.753   5.391   0.515  0.1005  0.1451  0.0773
 3850W        W17264  12.180   5.738   5.637  0.2785 -0.1489 -0.1919
 3851W        W17265   4.676  15.609   0.082 -0.1314 -0.0908 -0.3113
 3852W        W17266  11.459   5.069  15.864 -0.3202 -0.1373  0.2570
 3853W        W17267  10.669   5.381  12.712 -0.1604 -0.0821 -0.2660
 3854W        W17268   6.958   8.689   4.578  0.1604 -0.1913  0.0608
 3855W        W17269  15.037  14.177   5.085 -0.0905 -0.0550 -0.1774
 3856W        W17270   8.788   0.586  14.780 -0.0894 -0.0229 -0.0785
 3857W        W17271   1.648   6.719   3.942 -0.0985  0.0830 -0.0260
 3858W        W17272  13.989   5.566  12.068 -0.0263  0.0825  0.1922
 3859W        W17273  17.916  12.587  10.448 -0.0589  0.0372  0.3196
 3860W        W17274   8.276  10.533  13.607  0.1809 -0.1158  0.2386
 3861W        W17275  12.160   9.350  12.693 -0.1336 -0.1405  0.2554
 3862W        W17276   2.005  10.928  16.091  0.1601  0.0270  0.0164
 3863W        W17277  16.468  16.282  11.896 -0.1969 -0.2955  0.4637
 3864W        W17278  17.357  11.157  12.193  0.2216 -0.0112  0.1040
 3865W        W17279  15.036  17.170   3.474 -0.1034 -0.3078  0.1035
 3866W        W17280   4.221  17.729  14.894 -0.1888  0.1692 -0.0396
 3867W        W17281  18.250  15.076   1.496  0.2043  0.1782  0.1127
 3868W        W17282  12.529  16.777  16.553 -0.3442  0.0621 -0.1710
 3869W        W17283   0.776  14.627  13.270 -0.0066  0.3206 -0.5744
 3870W        W17284  13.557  12.491   3.872  0.1615 -0.1399 -0.0690
 3871W        W17285   4.021   2.475  14.782 -0.0030  0.0317  0.1606
 3872W        W17286   5.641   6.150  11.083 -0.0591  0.2364  0.0965
 3873W        W17287   1.474  11.152  14.775 -0.0162  0.1369 -0.2320
 3874W        W17288  16.920   6.408   4.979  0.2752  0.1279  0.0304
 3875W        W17289   8.555   6.112  16.195  0.4135  0.0851  0.1440
 3876W        W17290   3.521  14.224  14.289 -0.1196 -0.3458 -0.3461
 3877W        W17291  17.963   9.105  15.407  0.0510  0.3470 -0.2279
 3878W        W17292  13.006  14.775  14.623  0.3391  0.0491  0.0400
 3879W        W17293   5.958   4.838   1.903  0.0645  0.0044 -0.0981
 3880W        W17294  14.377  15.990  11.695  0.1459 -0.1773 -0.1846
 3881W        W17295   2.558  11.059  12.734 -0.1293  0.0762  0.3174
 3882W        W17296   3.707   0.900  15.269  0.2750  0.0724  0.0628
 3883W        W17297   9.260  13.713  13.776 -0.2172  0.1309  0.1034
 3884W        W17298  15.719  13.608   5.432 -0.1929  0.0043  0.1215
 3885W        W17299  14.910  17.543  12.824  0.1070 -0.1136 -0.1036
 3886W        W17300  13.525   8.584   0.769 -0.1719  0.0216  0.2460
 3887W        W17301   9.914   2.969  13.593 -0.1326  0.0507 -0.1670
 3888W        W17302  17.235  11.208  11.167 -0.0550  0.0046 -0.1230
 3889W        W17303   9.423  12.748   4.587 -0.1021  0.0668 -0.0019
 3890W        W17304   5.698   8.148  13.659 -0.0621  0.1106  0.0397
 3891W        W17305   4.204   5.129   1.519 -0.0847  0.3385 -0.0497
 3892W        W17306   1.412   7.125  16.015  0.3613  0.1569  0.2508
 3893W        W17307  10.458  16.148  11.738  0.2133 -0.0721  0.2217
 3894W        W17308   4.514  14.019  14.229 -0.0170 -0.0145  0.1473
 3895W        W17309   9.106  16.768   2.082  0.2519  0.3202 -0.2531
 3896W        W17310  10.029   3.176  13.144  0.1122 -0.2114 -0.0287
 3897W        W17311  17.443   1.645  13.917 -0.0692 -0.0979 -0.1095
 3898W        W17312  17.803   3.451  10.849  0.0393  0.0067 -0.0693
 3899W        W17313   8.578   2.977   3.546  0.0308  0.2676 -0.0328
 3900W        W17314   1.865  15.262   1.562 -0.1201  0.0626  0.1190
 3901W        W17315   0.621   6.925   1.836 -0.3118 -0.3731  0.0542
 3902W        W17316   4.793   4.457  12.362 -0.0321  0.0083 -0.0750
 3903W        W17317   9.127   6.456  15.623  0.0519  0.0187  0.0190
 3904W        W17318   3.115   1.969  14.528 -0.0007  0.1114  0.0348
 3905W        W17319  15.400   3.907   5.060 -0.1161 -0.2414 -0.1202
 3906W        W17320   1.046   5.231  13.431 -0.0285 -0.0075  0.2824
 3907W        W17321  11.449  15.762   0.309  0.1938 -0.1491  0.0064
 3908W        W17322   4.631   4.931  14.280 -0.0051 -0.2554 -0.3716
 3909W        W17323   7.000  15.299  10.471  0.0651 -0.0568 -0.1865
 3910W        W17324  11.391   7.710  12.312  0.2304  0.1049  0.2073
 3911W        W17325  12.995   7.147   5.058  0.2009  0.1821 -0.0329
 3912W        W17326  15.996   5.488  11.914 -0.0543 -0.1798  0.1201
 3913W        W17327   6.018   4.862   0.544  0.0225  0.1438  0.2779
 3914W        W17328   4.679   7.542   3.921  0.0692  0.1615 -0.0758
 3915W        W17329  13.064   3.521  12.491  0.1535  0.1205 -0.0892
 3916W        W17330  16.042   2.057  13.344 -0.2530  0.2672 -0.3167
 3917W        W17331  17.914   1.996   5.266  0.1812  0.1042 -0.0119
 3918W        W17332  11.540   3.107   2.203  0.0124 -0.0656  0.0750
 3919W        W17333  10.995  17.198   1.529 -0.2610 -0.0438  0.0819
 3920W        W17334  10.536   8.159   4.693 -0.0829 -0.1291  0.0794
 3921W        W17335  14.996  16.914   2.108  0.0232 -0.0532  0.3003
 3922W        W17336  17.571  16.856   0.686 -0.0228 -0.4436 -0.0078
 3923W        W17337  15.829   8.469  12.413 -0.2528 -0.3600 -0.2983
 3924W        W17338   9.903   0.397  11.619  0.3292  0.1418 -0.2110
 3925W        W17339   3.753   4.809   5.461 -0.0158  0.1017 -0.0937
 3926W        W17340   1.317   6.363  15.928 -0.0563  0.1587  0.2324
 3927W        W17341   9.235  15.678  13.978 -0.1240 -0.0194  0.0752
 3928W        W17342  17.437   8.403   1.396  0.2388 -0.2786 -0.0229
 3929W        W17343  15.233   0.082  12.196 -0.0548 -0.1254  0.0265
 3930W        W17344   4.437   1.342   5.827  0.1750  0.0652  0.1157
 3931W        W17345   9.830   6.495   0.225 -0.2433  0.0688 -0.0352
 3932W        W17346   3.017  17.110  13.954 -0.0764 -0.3042  0.2003
 3933W        W17347   2.103  13.675   4.164  0.0540 -0.0426  0.0030
 3934W        W17348   0.939  13.120   4.701 -0.1936  0.0211  0.1040
 3935W        W17349   8.725   7.708   1.946 -0.0435  0.1885  0.0150
 3936W        W17350  17.332  17.256  16.533  0.0709 -0.2508 -0.2250
 3937W        W17351   5.777  10.042   5.279  0.1445  0.1623  0.2430
 3938W        W17352   5.033  13.153  14.987 -0.1768 -0.2450  0.0223
 3939W        W17353   6.148  11.662   4.141 -0.1437  0.3289  0.1108
 3940W        W17354  12.352  16.812   6.468  0.1801 -0.2081  0.2594
 3941W        W17355   2.794  11.321   3.995  0.1707  0.0547 -0.0841
 3942W        W17356   8.714  12.873   5.956  0.0779  0.0472  0.0802
 3943W        W17357   8.852   9.461  14.813  0.1617  0.1935  0.0297
 3944W        W17358  10.995   1.645   2.355  0.2364  0.3333 -0.1836
 3945W        W17359   9.625   8.652  14.681 -0.3534 -0.1355 -0.2222
 3946W        W17360  11.243  14.301   5.675 -0.1870  0.0154 -0.0858
 3947W        W17361   2.699   0.032   3.845  0.1140  0.1514 -0.0221
 3948W        W17362  12.578   4.452  12.295  0.0307  0.0396  0.2041
 3949W        W17363  13.819  16.882   5.628  0.0156 -0.2314 -0.2372
 3950W        W17364   9.990   9.707   2.691 -0.1631  0.3339 -0.1128
 3951W        W17365  12.592  14.650   0.426 -0.0003 -0.0842  0.1412
 3952W        W17366   1.808  14.741  13.531  0.0017 -0.3851 -0.0520
 3953W        W17367   2.003  12.046   4.872 -0.1123  0.1034  0.0497
 3954W        W17368   1.059  10.875  12.750 -0.0259  0.1885 -0.1915
 3955W        W17369  10.293   5.772  10.870 -0.2318 -0.1949  0.4550
 3956W        W17370   5.879   6.228  12.488  0.2404  0.1609  0.0328
 3957W        W17371   7.688   4.185   3.965  0.3368  0.1847  0.0067
 3958W        W17372  17.859  10.723   5.716 -0.0476 -0.1124 -0.2143
 3959W        W17373  15.059  10.539   0.023 -0.0472  0.1170 -0.0263
 3960W        W17374  10.781   3.267  13.433 -0.0026 -0.2384  0.1002
 3961W        W17375  18.060  16.429   5.160  0.1685 -0.2002  0.2421
 3962W        W17376   0.873   5.133   1.939 -0.0375 -0.1723  0.0762
 3963W        W17377   9.692   3.289   3.174  0.1582 -0.2717  0.0954
 3964W        W17378   4.143  17.043  11.901 -0.2399  0.1356  0.3594
 3965W        W17379  18.154   4.389   5.118  0.0357 -0.0805 -0.1860
 3966W        W17380  12.197   1.319  14.816  0.1772 -0.1856  0.0417
 3967W        W17381   1.100  16.369   3.771 -0.0452  0.4675 -0.0023
 3968W        W17382  13.656  15.785   2.482  0.1385  0.1387 -0.1293
 3969W        W17383   5.788  11.073   3.556  0.4431 -0.0987  0.5034
 3970W        W17384   6.159   3.879  10.612  0.1305  0.2485 -0.2524
 3971W        W17385  11.370   7.352  16.507 -0.1772 -0.2041  0.1777
 3972W        W17386   2.469  17.834  13.391  0.2524  0.1072 -0.1124
 3973W        W17387   0.864  18.063   4.691  0.0734  0.1877  0.3247
 3974W        W17388  13.475   8.073   0.726 -0.1406  0.1796  0.0789
 3975W        W17389   3.294   7.261   2.974  0.1135  0.4224  0.1673
 3976W        W17390  11.704  10.228  16.094 -0.3809 -0.1494 -0.0983
 3977W        W17391   6.708   9.514  10.119 -0.1193  0.0184 -0.0403
 3978W        W17392   7.110   2.779  10.602  0.0622 -0.2310  0.1225
 3979W        W17393   2.908   1.916  12.316  0.1178 -0.1397 -0.0955
 3980W        W17394   0.097  14.688   0.672  0.2968  0.0103  0.0892
 3981W        W17395  11.704   2.491   1.378  0.0193  0.0512 -0.1345
 3982W        W17396  17.923   9.232   0.144  0.0813 -0.2108 -0.0746
 3983W        W17397  11.597  16.206   6.400 -0.0567 -0.1927  0.1251
 3984W        W17398  11.127  10.369   2.785 -0.0392 -0.2172  0.0691
 3985W        W17399   2.901   2.685  10.424  0.0799 -0.0020 -0.0930
 3986W        W17400  17.995  12.498   2.363  0.0129 -0.3383 -0.2782
 3987W        W17401   0.611   6.003  10.683  0.3214 -0.1149  0.0294
 3988W        W17402  14.435   6.522   4.699 -0.2418 -0.1368  0.2566
 3989W        W17403  17.537   8.900   1.562  0.1195  0.4249  0.2932
 3990W        W17404   0.841  11.721   5.447 -0.1209  0.2534  0.1576
 3991W        W17405   4.789  16.462  14.569  0.1346  0.0542 -0.0674
 3992W        W17406  15.851  11.610  10.495  0.0221 -0.1616  0.2586
 3993W        W17407   7.695   6.527  13.697  0.2110 -0.2066 -0.1646
 3994W        W17408   5.315   0.055   1.265 -0.1154  0.0595  0.1942
 3995W        W17409  14.098   2.065   1.550 -0.2159  0.2228 -0.2922
 3996W        W17410  17.820   9.731  11.977 -0.0267  0.1325  0.0229
 3997W        W17411  17.569   6.874   4.558 -0.1394  0.1599  0.0251
 3998W        W17412  15.365   9.436  11.474  0.0267  0.0886  0.1666
 3999W        W17413   9.776   3.557   1.893 -0.1079  0.0347  0.0696
 4000W        W17414  13.313  15.699   3.727  0.0428 -0.2292  0.0930
 4001W        W17415   1.920  13.698   0.268 -0.3481 -0.0193  0.0594
 4002W        W17416  10.972  16.940  12.776 -0.2564  0.0980 -0.1978
 4003W        W17417   3.891  16.047  10.938 -0.3670  0.0172  0.0996
 4004W        W17418   1.479  15.103  12.604 -0.0990 -0.0362 -0.0224
 4005W        W17419  17.799   0.188   4.994  0.0237  0.1033  0.5371
 4006W        W17420  13.648   4.096   4.465 -0.1430 -0.2026 -0.2462
 4007W        W17421   6.262   7.912  11.485  0.4395 -0.0876 -0.0156
 4008W        W17422   2.967   3.371   1.874  0.0645 -0.2259 -0.0751
 4009W        W17423   2.621   1.222  10.966 -0.1593  0.0371 -0.2138
 4010W        W17424   2.050   0.411  12.658 -0.0876 -0.2162  0.0787
 4011W        W17425  13.831   3.388   4.740  0.0970 -0.0379 -0.1357
 4012W        W17426   7.983  15.630  16.117  0.0931  0.1590 -0.0972
 4013W        W17427   1.003  17.732   6.457  0.1800 -0.2820  0.0632
 4014W        W17428  14.567   6.841  14.837  0.1255 -0.0343 -0.3814
 4015W        W17429   0.768   0.572  15.603 -0.1481  0.4088 -0.0129
 4016W        W17430  18.215  11.091  13.270 -0.1233  0.0471 -0.0617
 4017W        W17431   5.324   4.740   3.897  0.1511 -0.0465 -0.0540
 4018W        W17432  16.964   7.342  12.932  0.1379  0.2921 -0.4832
 4019W        W17433  16.325   7.717   0.007  0.1447 -0.0220  0.1190
 4020W        W17434  14.603   7.758   4.130 -0.1662  0.1387  0.0811
 4021W        W17435  13.494   4.477   5.626  0.3022 -0.4157  0.0399
 4022W        W17436  16.349   3.778  11.803 -0.0824  0.0703 -0.2434
 4023W        W17437  13.961   7.388  16.343 -0.0946 -0.0317 -0.4499
 4024W        W17438   7.875   3.426  13.683  0.0643 -0.1533 -0.1479
 4025W        W17439   9.768   1.683  12.189 -0.0266 -0.2335  0.2808
 4026W        W17440  10.756  16.996  10.485  0.1281 -0.1904  0.1817
 4027W        W17441   8.302  11.029   2.603  0.0287 -0.0443  0.0166
 4028W        W17442  13.326  16.192   4.333 -0.3700  0.1977 -0.0007
 4029W        W17443   7.566   4.076  14.643 -0.3119  0.1622  0.1869
 4030W        W17444  13.092   9.399  12.761 -0.0715 -0.0754  0.0120
 4031W        W17445   8.932   6.163   0.838  0.1454 -0.0598 -0.1123
 4032W        W17446   4.953  17.552   5.580 -0.0987  0.3448 -0.0636
 4033W        W17447   1.736   1.303  16.206  0.0148 -0.3773  0.0812
 4034W        W17448  18.264   4.491  14.071 -0.1243  0.0816 -0.3162
 4035W        W17449  13.731   3.344   3.470 -0.1119 -0.0252 -0.1630
 4036W        W17450  14.614   7.712  15.154 -0.2011  0.1573 -0.0620
 4037W        W17451   1.990   1.660   5.361  0.0666  0.4189 -0.2110
 4038W        W17452  10.157  17.870  11.448  0.1218  0.0775  0.2148
 4039W        W17453   9.170   1.525   3.169 -0.0731 -0.1771  0.0505
 4040W        W17454   1.503   9.624  12.148 -0.1159  0.3323  0.4629
 4041W        W17455   2.797   9.992  11.272  0.4320 -0.1748  0.2223
 4042W        W17456   8.486   9.993  15.455  0.1168 -0.1813 -0.2008
 4043W        W17457  15.808  16.378  11.393  0.0636 -0.1245  0.0081
 4044W        W17458   7.064   1.046  16.115 -0.0761  0.1858  0.0318
 4045W        W17459  14.445   8.837   2.880  0.0743  0.0509 -0.1924
 4046W        W17460   1.942   9.681  12.435 -0.0659  0.2082 -0.1590
 4047W        W17461   7.573  14.844  15.810 -0.4351 -0.1853  0.2109
 4048W        W17462   1.969   0.313   6.099  0.1086 -0.1425 -0.0552
 4049W        W17463  14.650   5.816   9.967  0.2566  0.3387  0.0238
 4050W        W17464   3.461   0.988   2.924 -0.1500 -0.3184 -0.0375
 4051W        W17465   0.565  17.749  13.829  0.3175  0.0832  0.0224
 4052W        W17466  14.291  16.754  14.438 -0.2197  0.0507  0.0309
 4053W        W17467  10.485   0.088   3.636  0.0050 -0.1805  0.4637
 4054W        W17468   7.073   3.492  12.275 -0.4137  0.1154 -0.0879
 4055W        W17469  17.135  16.914   4.839  0.0448  0.2271 -0.2519
 4056W        W17470   7.759  11.596   5.282 -0.0385 -0.2062  0.1341
 4057W        W17471   4.556   9.746  16.447  0.2025 -0.3168 -0.0165
 4058W        W17472   5.829   1.145  14.956  0.1385 -0.0209  0.3100
 4059W        W17473   5.750   1.735  13.692 -0.1544  0.1080 -0.1063
 4060W        W17474   9.543   9.970   1.991  0.1741 -0.2202 -0.1126
 4061W        W17475  17.638   6.825   3.449  0.1439  0.0795 -0.3659
 4062W        W17476  12.116  10.791  14.872  0.0063 -0.1596 -0.0259
 4063W        W17477   9.764  18.199  15.218  0.0366 -0.0775  0.2899
 4064W        W17478   5.317  15.219   1.967 -0.0222  0.1343  0.2462
 4065W        W17479   1.864   0.155  11.030 -0.0684 -0.3225 -0.0211
 4066W        W17480   4.858  12.853   4.566 -0.0499 -0.1334 -0.1175
 4067W        W17481  17.819   3.810  16.374  0.0700 -0.0388 -0.0593
 4068W        W17482  16.302  16.394  16.012 -0.0768 -0.2225 -0.0259
 4069W        W17483  17.873  12.976   3.612 -0.3978  0.0720  0.0699
 4070W        W17484   7.414  11.709   3.208  0.1943  0.1171  0.0475
 4071W        W17485  11.471  13.003  12.788 -0.0351  0.1579  0.1454
 4072W        W17486  14.444  12.132   5.355 -0.1773  0.1552 -0.0749
 4073W        W17487   6.028   5.717   4.593  0.0663  0.0983  0.2962
 4074W        W17488  11.808  13.880   3.611  0.1159  0.5401  0.1850
 4075W        W17489  11.257   2.021   1.165  0.4600  0.2451 -0.1117
 4076W        W17490  12.085   7.656  12.814  0.0273  0.2796 -0.0907
 4077W        W17491   8.294   6.483  10.758  0.1018 -0.0265  0.1713
 4078W        W17492   6.857   3.692  15.798 -0.0345 -0.0999 -0.1148
 4079W        W17493  17.646  11.886  12.128  0.1842  0.1471  0.1297
 4080W        W17494   5.087  11.872  14.288 -0.2666  0.2567  0.0417
 4081W        W17495  16.540   1.823  11.411  0.1024  0.2852 -0.0856
 4082W        W17496  10.026   9.843   2.173 -0.2001 -0.2457  0.0455
 4083W        W17497  17.938  14.386   4.036 -0.0903 -0.1689  0.0277
 4084W        W17498   4.228  18.070   0.935 -0.0815 -0.0565 -0.1577
 4085W        W17499  14.684   7.852   1.072 -0.5490 -0.0213 -0.2202
 4086W        W17500  17.604   1.952   3.730 -0.3484  0.1036 -0.0697
 4087W        W17501   6.486   6.025   2.391 -0.0251  0.1221  0.0401
 4088W        W17502   4.161   8.861  13.670 -0.1098 -0.1704 -0.0177
 4089W        W17503   3.864   1.286  13.507 -0.2371  0.0378 -0.1384
 4090W        W17504  17.657  17.682  11.864  0.1585  0.0262  0.0854
 4091W        W17505  12.503   6.151  15.779 -0.0187  0.0286 -0.1235
 4092W        W17506  12.503   4.958  14.947 -0.2678 -0.1833 -0.2584
 4093W        W17507  17.137   8.924  14.858  0.3642  0.2762  0.1494
 4094W        W17508  15.544   2.544  15.427 -0.2876 -0.2463  0.1396
 4095W        W17509   5.147  15.960   1.235 -0.0038 -0.0968  0.2724
 4096W        W17510  16.246  16.289  14.752  0.2553 -0.1743  0.3978
 4097W        W17511  14.475  12.599  13.868 -0.0110 -0.2819  0.0122
 4098W        W17512   0.544  10.298  12.661  0.0453 -0.0663 -0.0222
 4099W        W17513   6.967  12.070   4.978  0.0990  0.2606 -0.0546
 4100W        W17514  17.009   1.739   2.902 -0.3832  0.1883 -0.0936
 4101W        W17515  16.307  16.252  14.237  0.0152 -0.0452  0.0953
 4102W        W17516  11.621  16.052   1.309 -0.0136 -0.2835  0.0736
 4103W        W17517  12.128  12.262   0.663  0.0328  0.0640  0.0002
 4104W        W17518   9.385   7.040   5.795  0.0089  0.2256  0.0031
 4105W        W17519   1.202   3.257  11.720 -0.0624  0.1365 -0.0383
 4106W        W17520   7.741   7.262  15.608 -0.1800  0.1797 -0.1381
 4107W        W17521   5.469   3.676  14.966 -0.0169  0.0674  0.1587
 4108W        W17522   2.575  16.672   5.656 -0.2810 -0.1374 -0.1327
 4109W        W17523   8.394   9.188   2.539 -0.0843  0.1838 -0.0325
 4110W        W17524   3.566  15.915  14.629 -0.1689 -0.0715  0.0330
 4111W        W17525   2.252   0.701  13.073  0.0061  0.0042 -0.2631
 4112W        W17526   5.337   7.037  12.177  0.0001 -0.0718 -0.0589
 4113W        W17527  17.608  13.816  12.429  0.2001  0.0103  0.0905
 4114W        W17528   5.842  16.504   3.782 -0.0841 -0.0406 -0.1814
 4115W        W17529  17.591   1.008   1.605 -0.1198  0.3021  0.0830
 4116W        W17530  10.739   4.551   5.972 -0.3021 -0.2070 -0.0814
 4117W        W17531   1.321  10.843  12.297 -0.0178  0.1190  0.3326
 4118W        W17532  12.752  14.070   5.030 -0.1769 -0.3307  0.1823
 4119W        W17533  13.007   4.670   3.468 -0.1306  0.4580  0.1272
 4120W        W17534  16.432   3.000   2.764  0.1570 -0.1805  0.0548
 4121W        W17535  15.116  14.123   4.448 -0.3580 -0.1888 -0.0672
 4122W        W17536   0.796  13.482   5.475  0.0152  0.0023 -0.2480
 4123W        W17537  10.976   1.242   1.548 -0.0718 -0.2626  0.0389
 4124W        W17538   0.363   3.888  11.742  0.2256 -0.2601 -0.0549
 4125W        W17539  17.832  14.619   2.710  0.0982  0.4807 -0.0914
 4126W        W17540  11.590   0.687   1.273  0.2163  0.0220  0.0459
 4127W        W17541  12.144  14.150  15.434 -0.2317 -0.1670  0.2517
 4128W        W17542   6.816  16.817   1.513 -0.2152  0.0497 -0.1417
 4129W        W17543   1.341  11.303  13.069 -0.2669  0.0821 -0.0377
 4130W        W17544  12.407   1.253   1.189 -0.1258 -0.0373 -0.2351
 4131W        W17545   8.850  10.854  14.288 -0.1698 -0.0252 -0.0706
 4132W        W17546  11.126   5.434   1.138 -0.1263 -0.1516  0.1072
 4133W        W17547   3.750   7.553  12.276 -0.3187  0.1685 -0.3718
 4134W        W17548   2.400  15.155  14.032 -0.0359  0.1420  0.1518
 4135W        W17549  12.681   6.400   3.365 -0.0117  0.0063 -0.4684
 4136W        W17550   4.648  10.583  11.390 -0.2070 -0.1135  0.1648
 4137W        W17551   2.092   1.266  12.343  0.2730 -0.3840 -0.3192
 4138W        W17552   9.464  10.080  14.202 -0.2562 -0.0718 -0.2599
 4139W        W17553  13.495  15.961   3.350  0.0436  0.1516 -0.1711
 4140W        W17554   2.957   8.982  13.081  0.0061 -0.0011 -0.3274
 4141W        W17555  15.159  15.416   4.852 -0.1498  0.0013 -0.0062
 4142W        W17556   6.379   6.091   3.067 -0.1527  0.1228 -0.1708
 4143W        W17557  17.374  11.096   3.666 -0.0178 -0.4392 -0.0720
 4144W        W17558   5.141  16.174   4.576  0.0080 -0.0491  0.0026
 4145W        W17559   4.050   6.963   0.918 -0.2576 -0.0835  0.0419
 4146W        W17560   4.792   7.873  13.411  0.0548  0.2197  0.0432
 4147W        W17561   4.247  16.011  15.857 -0.1736 -0.1803  0.1661
 4148W        W17562  15.776  14.954   5.062  0.0616 -0.1102  0.0879
 4149W        W17563   7.099   0.909  14.303  0.0370  0.2273 -0.0285
 4150W        W17564  14.970   5.916  10.568 -0.1414 -0.0249  0.0281
 4151W        W17565   7.397  13.415  12.624 -0.2199  0.1140  0.1531
 4152W        W17566   0.402   4.851   5.291 -0.1041  0.1151  0.1951
 4153W        W17567   5.549  16.586   3.340 -0.2984  0.2158 -0.0054
 4154W        W17568   7.572   2.485   1.774  0.0208  0.3092 -0.0130
 4155W        W17569   4.051  10.338  14.641 -0.0271  0.0342 -0.0686
 4156W        W17570   2.694  18.041  12.998 -0.2861 -0.0348 -0.2190
 4157W        W17571  14.801   8.865  10.750  0.0302 -0.2960 -0.2516
 4158W        W17572   3.554   4.134  13.630 -0.3095 -0.0521 -0.0210
 4159W        W17573  10.200   3.313  10.663 -0.0776  0.1478 -0.2331
 4160W        W17574   7.666  16.365  14.961 -0.0160 -0.1264  0.0394
 4161W        W17575   7.688   6.950   5.885 -0.1380  0.1411  0.2771
 4162W        W17576   3.669  15.339   5.032 -0.0749  0.0880 -0.3968
 4163W        W17577  11.521   4.341   1.744 -0.0643  0.2199 -0.2658
 4164W        W17578   3.659  13.474   1.025  0.0559 -0.1160 -0.0166
 4165W        W17579   1.966   2.350  13.581 -0.1817 -0.1048 -0.0616
 4166W        W17580   7.791  11.375   3.134 -0.2134  0.0769 -0.2118
 4167W        W17581  13.100  11.958  11.126  0.0227  0.1865 -0.2412
 4168W        W17582  16.448  12.956  12.353  0.1079  0.0951 -0.0756
 4169W        W17583   6.353   3.828   1.752 -0.0361 -0.1691  0.0082
 4170W        W17584   8.839   4.015  12.775 -0.0256 -0.0287 -0.1780
 4171W        W17585  10.092  16.565   2.700 -0.0940 -0.1829 -0.0944
 4172W        W17586  16.397   0.512   3.291  0.0473 -0.1803 -0.0231
 4173W        W17587   9.284   2.195   0.632 -0.2309  0.0141  0.0862
 4174W        W17588   8.323  11.214   1.709  0.1622  0.1692 -0.1794
 4175W        W17589   8.500  13.873   4.322 -0.0331  0.0800  0.1030
 4176W        W17590   9.204  12.251   5.296 -0.3382 -0.2936 -0.2673
 4177W        W17591  16.238   3.954  15.411  0.1285 -0.1257 -0.0691
 4178W        W17592   5.619  11.969  11.980 -0.0224 -0.1109  0.3322
 4179W        W17593   1.232  12.230  16.116  0.3868  0.0024  0.1127
 4180W        W17594   9.877   4.135  10.122 -0.2362 -0.1724 -0.1823
 4181W        W17595   8.680   7.414  14.321  0.1239  0.1430 -0.0637
 4182W        W17596  13.385  14.465  10.876  0.2626  0.0196  0.1726
 4183W        W17597  12.812  16.908  11.849  0.2374 -0.1629  0.0356
 4184W        W17598   1.730   8.169  12.785 -0.0697  0.2283  0.0470
 4185W        W17599  14.737   9.525  14.939 -0.1740 -0.5018  0.1922
 4186W        W17600   6.462  10.776  11.966  0.0285 -0.2262 -0.1329
 4187W        W17601   3.840   8.840   0.043  0.0058  0.1831  0.0684
 4188W        W17602  17.528  10.102   0.038 -0.1060 -0.3273 -0.1180
 4189W        W17603  14.880   3.404   1.065  0.2356  0.2489 -0.2089
 4190W        W17604   6.718  15.496  11.877  0.0964  0.2536  0.0116
 4191W        W17605   2.672   4.746   0.270 -0.1557 -0.1227 -0.1212
 4192W        W17606   8.391   1.332  12.160  0.0313 -0.2530 -0.0138
 4193W        W17607   9.637   2.423   0.344  0.2036  0.3271 -0.0079
 4194W        W17608   5.139   1.297  15.502  0.0316 -0.2199 -0.0232
 4195W        W17609  10.558  16.345   5.893  0.0883 -0.0526 -0.0427
 4196W        W17610  11.823  16.469  14.743 -0.3272 -0.0306  0.0928
 4197W        W17611   6.988  17.979  13.057 -0.0125  0.1144  0.0805
 4198W        W17612  11.506  10.680  15.680  0.1177  0.0754 -0.0697
 4199W        W17613  10.915  10.618   2.324 -0.0017 -0.0814  0.1135
 4200W        W17614   9.893  15.102   6.020  0.2678  0.1654  0.1109
 4201W        W17615  17.945   8.474   0.309  0.2138 -0.3627  0.1843
 4202W        W17616   9.535  15.433   2.258  0.1145  0.0672 -0.2470
 4203W        W17617   7.526   8.238   1.056  0.2480  0.1048  0.3193
 4204W        W17618   1.442   7.753  12.098 -0.0488  0.1365 -0.0621
 4205W        W17619  12.379   4.186  15.974 -0.0230 -0.0052  0.3226
 4206W        W17620  14.193   2.940   0.815 -0.3971 -0.1381 -0.0097
 4207W        W17621   3.662  13.878  13.045  0.1634  0.3558 -0.0172
 4208W        W17622   3.530  15.031   2.369  0.0709  0.0934  0.1519
 4209W        W17623  10.397   1.803  12.717  0.2432  0.0127  0.0199
 4210W        W17624   7.991  13.859  11.204 -0.1322  0.0767  0.1073
 4211W        W17625   4.629  17.627  14.484  0.0476  0.2871 -0.1419
 4212W        W17626  13.707   2.078  12.393  0.2760 -0.1704  0.0588
 4213W        W17627  13.855   5.132  14.176 -0.2807  0.2682  0.0418
 4214W        W17628  17.166  14.084  14.364  0.0309  0.1917  0.0711
 4215W        W17629   1.351   9.946   3.296  0.0425  0.3862 -0.3169
 4216W        W17630  11.493   6.097   6.202  0.1395  0.1376  0.1438
 4217W        W17631  14.062   3.916  16.293  0.0995 -0.1123 -0.0896
 4218W        W17632  11.262  12.565  11.939  0.0747  0.1055 -0.1854
 4219W        W17633  13.959  17.261   4.814 -0.1471  0.0838  0.0287
 4220W        W17634  14.217  14.124  16.404 -0.1050  0.1769  0.0680
 4221W        W17635  15.237   2.881   4.617  0.3949  0.0819  0.2477
 4222W        W17636   8.728  16.311   0.020  0.2292  0.0551  0.1575
 4223W        W17637   0.369   0.182  11.220 -0.2173 -0.0918 -0.0455
 4224W        W17638  16.008  12.353   1.371 -0.1285 -0.0303 -0.1341
 4225W        W17639   6.308   7.700   3.305 -0.1726  0.0191  0.1305
 4226W        W17640   3.823  17.958   2.220  0.0217  0.4768 -0.0066
 4227W        W17641   4.125  10.056  10.855  0.0812  0.0248  0.1156
 4228W        W17642  15.644   7.974  11.341  0.2058 -0.3865 -0.3390
 4229W        W17643  16.263  17.803   4.233 -0.0584  0.3321 -0.0631
 4230W        W17644   9.414   1.666  15.133  0.0439 -0.0703  0.0484
 4231W        W17645  12.566   9.536  15.178 -0.1644 -0.1599 -0.0972
 4232W        W17646  12.886  10.946   0.336 -0.0732 -0.0472  0.0025
 4233W        W17647   4.024  10.113  12.694  0.0695 -0.0820 -0.0743
 4234W        W17648  10.716  16.899  12.356  0.1134 -0.0425 -0.0700
 4235W        W17649  11.851   3.181  11.937  0.0775 -0.2060  0.0913
 4236W        W17650   8.556   0.350   4.899 -0.0625  0.0020  0.1645
 4237W        W17651   6.464   2.769   0.317 -0.3102 -0.0304  0.1576
 4238W        W17652  16.901  13.466  11.201 -0.0221  0.3140  0.2691
 4239W        W17653   2.357   2.628  12.558  0.1333  0.5170 -0.1546
 4240W        W17654  17.279  11.621  12.430 -0.1754 -0.3104 -0.0452
 4241W        W17655  15.553  15.207  13.519  0.0468  0.3859  0.0329
 4242W        W17656  13.923  13.715   5.375 -0.0418 -0.2233  0.3958
 4243W        W17657   5.400  13.808   1.800  0.1389  0.1103  0.0674
 4244W        W17658  15.233   6.926  15.704  0.0233  0.1532 -0.2393
 4245W        W17659   5.982   9.742   4.279 -0.0603 -0.1025  0.0740
 4246W        W17660   7.193  13.184  11.397  0.1962  0.0792 -0.0001
 4247W        W17661   3.413  10.676   1.166 -0.1448 -0.3356  0.3358
 4248W        W17662  17.269  16.539  12.948 -0.2147 -0.1028  0.0418
 4249W        W17663  17.022  12.014  15.663  0.2061  0.0151  0.0382
 4250W        W17664  13.857   6.389  10.988  0.0022  0.1957  0.0669
 4251W        W17665  13.480  12.924   5.170  0.2950  0.0599 -0.2508
 4252W        W17666   7.455   2.006  15.775 -0.0863 -0.1266 -0.1163
 4253W        W17667  15.234   9.271  12.309 -0.0641 -0.2701 -0.4645
 4254W        W17668   5.017   6.991   1.593 -0.1398  0.0184  0.0086
 4255W        W17669   6.053  12.172   4.920 -0.0859  0.2359 -0.0611
 4256W        W17670   9.436  15.447  16.052  0.0853 -0.3650  0.0789
 4257W        W17671  14.949   3.319   1.926  0.0999  0.0157  0.2270
 4258W        W17672   4.333  14.108  11.315  0.1197  0.1395 -0.1274
 4259W        W17673  11.683   5.492   3.169  0.0715 -0.1995 -0.1177
 4260W        W17674   6.299  15.342   5.418 -0.1834 -0.4715 -0.0879
 4261W        W17675  16.151   5.847   0.953  0.4729 -0.1801  0.0540
 4262W        W17676   2.984  14.867   4.346 -0.0320 -0.1170 -0.0596
 4263W        W17677   3.034   1.351  11.149 -0.1502  0.3674 -0.1159
 4264W        W17678  11.298  10.060   3.922 -0.1262  0.1282 -0.0237
 4265W        W17679   5.892   3.635   1.696 -0.0475 -0.1069 -0.2373
 4266W        W17680   2.274  18.242   6.348  0.0556  0.1585 -0.0973
 4267W        W17681  15.414  11.431  14.657 -0.0267  0.0496  0.2632
 4268W        W17682   9.696   1.216   3.013  0.5334  0.0961  0.2344
 4269W        W17683   1.697  10.618  13.740  0.1765 -0.0409  0.2887
 4270W        W17684   6.575   9.551  13.060  0.0265  0.2532  0.1427
 4271W        W17685  11.969  16.363  13.613  0.1738  0.0976 -0.2046
 4272W        W17686   8.291  14.091  16.266  0.0207 -0.1193 -0.0028
 4273W        W17687  13.391  16.541  12.473 -0.1299  0.2992 -0.0560
 4274W        W17688  17.570   5.931  11.810 -0.2701  0.0182 -0.2474
 4275W        W17689  14.214   7.469   3.510  0.2462 -0.2349 -0.0379
 4276W        W17690   6.733   8.327  11.664 -0.1146 -0.0846 -0.1391
 4277W        W17691   8.860  10.464  16.311 -0.4516 -0.2058  0.1098
 4278W        W17692   2.532   3.641  11.637 -0.3603 -0.1874 -0.1047
 4279W        W17693   7.156   7.990   3.845  0.2503 -0.2314  0.0053
 4280W        W17694   4.405  15.628  13.116 -0.1991 -0.0421 -0.0280
 4281W        W17695   7.925  17.492   1.016  0.2556  0.1695 -0.0673
 4282W        W17696  17.573  11.185  16.176 -0.1723 -0.0187  0.2936
 4283W        W17697   2.677   5.784  16.205 -0.1895 -0.0830  0.0295
 4284W        W17698   3.243   5.752  14.028 -0.0639 -0.1883  0.0520
 4285W        W17699   6.108  15.758  11.493 -0.2019 -0.0291  0.0744
 4286W        W17700  18.178   1.625   6.413 -0.1960  0.1492 -0.0564
 4287W        W17701   2.958  17.786   0.386 -0.1599 -0.2754  0.4009
 4288W        W17702   5.275  10.142  14.917 -0.0610  0.4484  0.0481
 4289W        W17703  14.243  13.055  13.072 -0.3907 -0.0545  0.3627
 4290W        W17704   8.173  14.374   2.913  0.1947 -0.0628  0.3168
 4291W        W17705  10.540   7.242   2.449  0.0219  0.1281  0.1970
 4292W        W17706   3.400  13.261   3.886 -0.0269  0.1863  0.1867
 4293W        W17707   5.327  10.453   2.629 -0.0116 -0.0409 -0.0681
 4294W        W17708   2.160   8.810   4.065 -0.2125  0.0208 -0.1511
 4295W        W17709   1.113  15.767   0.708 -0.2826 -0.2552  0.0847
 4296W        W17710   3.222  17.151   4.866  0.0700 -0.3309 -0.1173
 4297W        W17711   0.805   5.067  10.798  0.1283  0.2482  0.0416
 4298W        W17712   4.251  16.230  10.469 -0.0045 -0.2572 -0.1691
 4299W        W17713  13.068  10.580   0.819  0.4325 -0.3260 -0.2847
 4300W        W17714   6.787  11.544  15.070  0.1967  0.0398  0.1476
 4301W        W17715  15.526  12.663   1.104 -0.0330  0.2072 -0.1336
 4302W        W17716   1.475   4.655  13.951  0.0414 -0.3295  0.1065
 4303W        W17717   2.649   8.214  15.077  0.2235 -0.0061  0.2088
 4304W        W17718  10.152   0.050   1.355  0.3356  0.2550  0.1230
 4305W        W17719  17.193   9.582  11.936 -0.1959 -0.0873 -0.1909
 4306W        W17720  10.293   4.538  14.796 -0.1846 -0.1180 -0.0465
 4307W        W17721   1.896  16.008   2.984 -0.0882 -0.2181 -0.3186
 4308W        W17722  10.433   9.840  13.251 -0.3292  0.3874 -0.3852
 4309W        W17723   4.394  12.748   4.845 -0.3456 -0.2035  0.0822
 4310W        W17724  17.347   8.576   0.542 -0.0916  0.1833  0.3061
 4311W        W17725  16.626   6.766  11.766  0.2432 -0.2605  0.0286
 4312W        W17726   7.855   6.562  13.072  0.0807  0.2608 -0.0893
 4313W        W17727   4.713   6.818  14.488 -0.2257  0.3023 -0.3923
 4314W        W17728   5.855   7.464   0.999  0.0246 -0.0259 -0.0261
 4315W        W17729   4.128  17.056  14.007 -0.1957  0.4689 -0.0338
 4316W        W17730   0.617  11.816  14.207  0.0960 -0.0130  0.0746
 4317W        W17731   8.360   3.877  15.259  0.0404 -0.0100 -0.2011
 4318W        W17732   0.444   0.230  16.195  0.0202 -0.1440 -0.1934
 4319W        W17733   1.115  13.661   5.817 -0.0061  0.3470 -0.2656
 4320W        W17734   9.869   4.646  10.375 -0.0576 -0.0502  0.2878
 4321W        W17735   6.609  13.490  10.776  0.0259  0.2010 -0.1511
 4322W        W17736   0.231   7.074   4.649 -0.0079 -0.1097  0.1372
 4323W        W17737   0.315  15.129   2.239 -0.2535  0.0080  0.0436
 4324W        W17738   0.957  16.408  12.192 -0.2123 -0.0921 -0.3419
 4325W        W17739   3.078   2.384  14.312 -0.0848  0.1041  0.0519
 4326W        W17740  10.856   5.467  13.773 -0.2174 -0.0956  0.1585
 4327W        W17741   2.080   4.229  16.077  0.0094  0.2009 -0.0683
 4328W        W17742   0.441   5.164   0.143 -0.0962 -0.0874 -0.1467
 4329W        W17743   8.589   5.325   1.802 -0.0621 -0.1222  0.0016
 4330W        W17744  17.806   2.222  14.966 -0.2627 -0.1545 -0.0238
 4331W        W17745   1.409   9.574   1.620 -0.2765 -0.2322 -0.0520
 4332W        W17746   2.301   5.374  10.350  0.3671  0.0927 -0.0397
 4333W        W17747   7.435  15.481   2.400  0.3487  0.1109 -0.2618
 4334W        W17748   0.494   4.050   1.923  0.1220 -0.0690  0.0622
 4335W        W17749  13.011   5.269   2.706  0.0124  0.1865 -0.0065
 4336W        W17750   2.447  16.067   0.971  0.0527  0.3825  0.0928
 4337W        W17751  15.039   6.775  14.950 -0.0055  0.0750  0.2528
 4338W        W17752  16.233  15.027   2.712 -0.0172 -0.0517 -0.1788
 4339W        W17753   9.717   2.526  13.495 -0.3195 -0.3205  0.1232
 4340W        W17754   0.277   2.669   0.504  0.2668  0.1397 -0.1806
 4341W        W17755   0.538  16.628  14.062 -0.0022  0.4110 -0.1216
 4342W        W17756   1.395   5.246  12.496 -0.2719  0.0613  0.3658
 4343W        W17757  13.656   3.998  12.113 -0.4431 -0.0672  0.1726
 4344W        W17758  10.365   8.218   0.281 -0.0718  0.3878  0.4393
 4345W        W17759  15.359   3.395   0.295  0.0476  0.2395 -0.1566
 4346W        W17760   3.300  16.311   5.291 -0.1198  0.1151  0.1341
 4347W        W17761   1.115  18.244   1.568 -0.0956  0.0940  0.0008
 4348W        W17762   6.291   2.790  13.275  0.0934  0.2168 -0.2701
 4349W        W17763  11.444  17.419  11.977 -0.2541  0.0207 -0.0083
 4350W        W17764   5.267   1.613   3.294 -0.2156  0.1006  0.1060
 4351W        W17765  12.671  12.349   5.675  0.1359 -0.2779  0.1152
 4352W        W17766   3.145   2.407  14.936 -0.1071  0.2318  0.1407
 4353W        W17767  12.661   3.853   1.601 -0.1522  0.1786 -0.1303
 4354W        W17768   7.806  17.942  12.286  0.3836  0.0053  0.2285
 4355W        W17769   5.114  11.325   4.847  0.2888  0.0778  0.2225
 4356W        W17770  15.466   5.629  12.713 -0.1658 -0.2548 -0.0793
 4357W        W17771  14.348  14.852  14.371 -0.3155  0.0399  0.6483
 4358W        W17772  12.793  10.843  13.409 -0.2615  0.1837  0.1569
 4359W        W17773   7.260  11.370  11.021 -0.1780 -0.1213 -0.1090
 4360W        W17774   4.876  13.612  15.185  0.1529  0.0141 -0.0842
 4361W        W17775   4.632  15.154   5.554  0.1052 -0.2455 -0.0595
 4362W        W17776  12.658  10.394   9.592  0.2756  0.0121  0.0938
 4363W        W17777   1.738  13.296   3.564  0.2074 -0.0578  0.1210
 4364W        W17778  16.364  12.482   5.243 -0.0093  0.0965  0.3007
 4365W        W17779  13.290   2.073   2.497 -0.1485  0.0109  0.3809
 4366W        W17780  17.976  16.733  10.974 -0.0888 -0.1942  0.0458
 4367W        W17781  17.776   6.941  13.897  0.2430 -0.1187 -0.1811
 4368W        W17782  17.468   7.583  14.666 -0.0578  0.1310 -0.0882
 4369W        W17783   6.449  18.163  13.049  0.0080  0.1062 -0.2290
 4370W        W17784  13.511  14.937   2.621 -0.1254 -0.3739 -0.0409
 4371W        W17785  17.016  17.348  13.999  0.0441  0.0153 -0.2065
 4372W        W17786   2.307   7.940   0.067 -0.0872  0.1110 -0.0427
 4373W        W17787   5.335  12.491   5.928  0.1202 -0.0473  0.2679
 4374W        W17788   6.026   1.756   2.201  0.2198 -0.0270  0.0169
 4375W        W17789   2.548  10.090  14.585 -0.0041  0.1102 -0.1265
 4376W        W17790   3.279   0.540   5.195  0.0621  0.1863 -0.2600
 4377W        W17791   1.465   2.467  10.810 -0.0982 -0.1323  0.1103
 4378W        W17792  12.362   2.934  16.030  0.0368 -0.3947 -0.3840
 4379W        W17793   5.130   4.924   2.612 -0.2978  0.4205 -0.1112
 4380W        W17794   2.996   5.160   0.225  0.2316  0.1404 -0.3193
 4381W        W17795  13.294   6.447   2.754 -0.0455  0.3094  0.0628
 4382W        W17796   0.670  15.019  12.442 -0.2427 -0.2529  0.0125
 4383W        W17797  10.676   9.035  10.845  0.3992  0.2648  0.1323
 4384W        W17798   4.792   8.131   2.200 -0.0465 -0.3959  0.0910
 4385W        W17799   8.245   3.750  12.820 -0.0834  0.0642  0.1833
 4386W        W17800  18.237  12.646   3.196  0.0702  0.2334  0.3714
 4387W        W17801  15.117   4.250  12.354  0.2806  0.2706  0.1203
 4388W        W17802   1.767   0.104  13.718 -0.1729  0.1870 -0.0893
 4389W        W17803   2.002   4.844  14.230  0.2479 -0.2746  0.1055
 4390W        W17804  11.579  16.421   5.036  0.2118 -0.0490 -0.1133
 4391W        W17805  14.279   2.180  16.349  0.2221  0.0802  0.1203
 4392W        W17806  10.725  15.303   5.610 -0.1690  0.0778  0.1042
 4393W        W17807   8.755   0.912   3.545 -0.0963  0.3005  0.2481
 4394W        W17808   0.869   0.505  16.147 -0.0981  0.0898 -0.1403
 4395W        W17809   6.890  10.614  14.424 -0.1632 -0.0266 -0.0183
 4396W        W17810   1.347   2.856   4.832  0.0005  0.1052  0.0913
 4397W        W17811   3.082   6.575   4.866  0.5134  0.1156 -0.1380
 4398W        W17812   4.396   3.170   5.524  0.0722 -0.1901 -0.0460
 4399W        W17813  10.294  13.509   2.232 -0.3543 -0.1212  0.0738
 4400W        W17814   7.707   4.302  14.222 -0.1960 -0.1163 -0.0356
 4401W        W17815  11.862   1.079   6.081 -0.1998 -0.0469 -0.0420
 4402W        W17816  16.357   5.092   5.007 -0.0453 -0.0728 -0.0059
 4403W        W17817   9.014   6.708  11.398 -0.2683  0.0337  0.1802
 4404W        W17818  17.379  11.282   4.981 -0.1086  0.0384  0.0978
 4405W        W17819  10.470  15.953  14.682 -0.4038 -0.2609  0.0070
 4406W        W17820  14.768  12.732   2.631 -0.0845  0.1927 -0.0681
 4407W        W17821  11.900   6.711   3.898  0.1552  0.1030  0.1894
 4408W        W17822  16.496   9.420  16.112 -0.2427 -0.2213  0.1536
 4409W        W17823   5.965  12.946  13.020  0.2583 -0.0004  0.0476
 4410W        W17824   2.722   3.101   2.606 -0.3113 -0.0935 -0.0497
 4411W        W17825   6.125  14.912   2.369 -0.2131  0.0049  0.0838
 4412W        W17826  12.545  12.273   1.120 -0.0200 -0.1159  0.1997
 4413W        W17827  13.054   9.171  14.167  0.0769 -0.0938  0.1594
 4414W        W17828  15.169  15.028  13.773  0.0963 -0.0506 -0.3247
 4415W        W17829   6.814  16.956  11.484 -0.2819  0.1658  0.0521
 4416W        W17830  16.370  15.545   3.606  0.0299  0.0518 -0.1888
 4417W        W17831   8.688  11.763  16.335 -0.0115 -0.0376 -0.0774
 4418W        W17832   6.483  16.225  11.214  0.2948  0.3521  0.0336
 4419W        W17833  15.201   1.714   3.026  0.3086 -0.4803  0.1631
 4420W        W17834  17.003   3.475   3.077  0.0481  0.1217  0.0859
 4421W        W17835  14.087   3.855   3.330 -0.1709  0.3564 -0.0679
 4422W        W17836   6.574   2.653  15.642  0.0402 -0.0937  0.0387
 4423W        W17837   9.338   0.308  14.459 -0.0903  0.0041 -0.1259
 4424W        W17838  10.739   3.298   5.546  0.1225  0.2037 -0.4980
 4425W        W17839  10.635  13.929  12.807 -0.1370  0.0080 -0.1291
 4426W        W17840   9.873  12.671   3.186 -0.1797 -0.0090 -0.2459
 4427W        W17841   4.540  10.292  15.656 -0.0532 -0.0244 -0.2590
 4428W        W17842   4.633   1.540   4.693  0.0178 -0.1273  0.1461
 4429W        W17843   5.362  11.320  14.336 -0.0606  0.1967 -0.1688
 4430W        W17844   7.421   7.518  13.131  0.2334  0.4457 -0.2302
 4431W        W17845  16.502   3.704   3.214 -0.1639 -0.4716  0.2522
 4432W        W17846   4.661   1.215   2.361  0.0473  0.1315  0.1865
 4433W        W17847   0.659  10.151   6.149 -0.2242  0.0603 -0.0433
 4434W        W17848  12.973   5.822  15.192  0.4593  0.0905 -0.1299
 4435W        W17849  15.114  11.566  11.522  0.0290  0.0075 -0.0269
 4436W        W17850  16.380   7.555   0.878  0.3541  0.0443 -0.2041
 4437W        W17851   6.780   7.866   4.817  0.0948  0.3247  0.0487
 4438W        W17852  15.972   7.509  11.299  0.2288 -0.0596 -0.0552
 4439W        W17853  14.310   7.253   2.493 -0.2429 -0.1188 -0.1670
 4440W        W17854  12.189   5.720   2.420 -0.0078  0.0781 -0.1787
 4441W        W17855  15.120   0.333  15.586 -0.1277 -0.0633 -0.3602
 4442W        W17856  10.204   4.100   2.226  0.3024 -0.0952 -0.1143
 4443W        W17857   4.196  15.419  16.536  0.0236 -0.1844  0.3000
 4444W        W17858   0.670   7.135   4.454 -0.2673  0.1337 -0.1061
 4445W        W17859   4.532  13.142   2.021  0.2015  0.0404  0.1683
 4446W        W17860  10.543  11.152   4.971  0.1313 -0.0629  0.2980
 4447W        W17861   2.299   5.084  14.503  0.2378 -0.1842  0.0971
 4448W        W17862   3.536   0.447   5.672  0.0539 -0.0376  0.0884
 4449W        W17863   0.698  11.016   3.458 -0.1424  0.0298 -0.0549
 4450W        W17864   6.007   6.347  15.649  0.1595 -0.2214  0.0094
 4451W        W17865   9.112   8.835   3.107 -0.0379 -0.0484 -0.0816
 4452W        W17866  16.461  18.012  14.784 -0.0096 -0.1769  0.0930
 4453W        W17867   7.782   0.760  10.285 -0.0597  0.1146 -0.1187
 4454W        W17868   8.128  10.371   5.319  0.0131  0.1139  0.1382
 4455W        W17869  14.114   9.593  16.237  0.0506  0.1845 -0.1905
 4456W        W17870  12.463   2.879  13.216 -0.1169  0.0528 -0.2258
 4457W        W17871   9.397  12.925   0.197 -0.1562 -0.1105 -0.0982
 4458W        W17872   0.421  12.175   0.766  0.1705 -0.1228  0.1050
 4459W        W17873   9.369  11.592  13.788  0.2178  0.0878  0.1700
 4460W        W17874  17.850   4.663  10.278 -0.2190  0.1413  0.0613
 4461W        W17875   0.409  14.611   1.930 -0.1488 -0.0650 -0.1471
 4462W        W17876   5.738  15.886  12.645 -0.1605 -0.4012  0.2063
 4463W        W17877  17.000   4.742  15.975 -0.0826 -0.1352 -0.2577
 4464W        W17878   0.349   3.101  13.723 -0.0545 -0.2354  0.1641
 4465W        W17879  16.890  17.198  13.567 -0.0869  0.0660 -0.2061
 4466W        W17880   2.996   9.550   0.277  0.1112  0.2274 -0.2331
 4467W        W17881   3.813  18.139   3.023 -0.2359 -0.2206  0.1217
 4468W        W17882  12.733  17.143   5.106 -0.3262 -0.4376 -0.2325
 4469W        W17883  13.680   3.741   0.389 -0.0525 -0.4470  0.1586
 4470W        W17884   2.320  16.601   1.091  0.2617  0.1284  0.0118
 4471W        W17885  13.871   0.990   2.367 -0.2311 -0.1159 -0.1685
 4472W        W17886   7.586  18.192  14.026  0.0508  0.0871 -0.1122
 4473W        W17887  13.262  12.526   1.502  0.0382 -0.1471  0.4741
 4474W        W17888  13.913  10.469  11.464  0.1048  0.5188  0.2714
 4475W        W17889  13.182   5.162  10.876 -0.0143 -0.2839  0.0871
 4476W        W17890  16.113   5.087   0.636 -0.0521  0.0506  0.3309
 4477W        W17891  11.806   7.052   2.116 -0.1421  0.1583 -0.1923
 4478W        W17892   0.085  11.126   2.527 -0.0740 -0.4079 -0.0309
 4479W        W17893   3.110   8.129   3.573 -0.0784 -0.2273 -0.0356
 4480W        W17894  10.802  13.296   5.761 -0.0777  0.0275 -0.1084
 4481W        W17895   2.699  12.081  11.821 -0.0093 -0.4116 -0.1584
 4482W        W17896   2.698   2.741   1.603  0.1972  0.1564 -0.0382
 4483W        W17897  14.904   1.392  15.431 -0.1648  0.0741 -0.1425
 4484W        W17898   0.801   3.178  16.011  0.2935 -0.4628 -0.0894
 4485W        W17899  11.234   4.313   4.294 -0.1804 -0.2823 -0.1242
 4486W        W17900   7.919   6.774   0.450  0.0743  0.1464  0.3486
 4487W        W17901   4.876   1.068   1.090  0.2225  0.1521 -0.0279
 4488W        W17902  11.661  12.604   2.960  0.1378 -0.0012  0.1379
 4489W        W17903   0.457  14.921  13.466 -0.2283  0.1042 -0.2105
 4490W        W17904   2.983  14.325   0.090  0.0732 -0.0981 -0.1408
 4491W        W17905  14.051   1.249  16.015 -0.0177 -0.0082 -0.1668
 4492W        W17906   8.716  11.799   1.164  0.0734 -0.0695 -0.0646
 4493W        W17907  10.429  17.951   0.257  0.1596 -0.0046 -0.0716
 4494W        W17908   6.954   7.462  14.576  0.2537  0.0298  0.1065
 4495W        W17909   4.102   2.095   0.312  0.0921  0.2036  0.2392
 4496W        W17910  16.361   6.249  11.652  0.0999 -0.1038  0.1481
 4497W        W17911  10.053   1.698  13.884 -0.0939 -0.0205 -0.0616
 4498W        W17912  10.199   7.940  12.037 -0.1268 -0.0411 -0.0376
 4499W        W17913  10.636   6.540  14.169 -0.1801 -0.2643  0.1830
 4500W        W17914  17.163   4.751   2.639  0.2631  0.2511  0.2119
 4501W        W17915   7.137   0.188  11.503  0.0742  0.0631 -0.0233
 4502W        W17916   1.398  15.599  12.665 -0.0265  0.0782  0.1173
 4503W        W17917   0.370   4.726   3.524 -0.1439 -0.0829  0.6208
 4504W        W17918   7.553  15.692  11.957  0.1028 -0.1518 -0.0368
 4505W        W17919  15.133   0.547   5.373 -0.0306  0.0381 -0.1179
 4506W        W17920  18.084  13.713   0.430 -0.0141  0.1676 -0.2018
 4507W        W17921  17.616  13.380  12.211 -0.0950 -0.0764  0.1835
 4508W        W17922   7.381  16.374  15.649  0.1572  0.0156 -0.0177
 4509W        W17923   5.216  18.180   5.041 -0.1060  0.1789  0.1834
 4510W        W17924   9.919   7.722  15.681  0.0400  0.1989  0.0140
 4511W        W17925  16.743  16.514  13.137 -0.0727 -0.1662 -0.0572
 4512W        W17926   0.004  15.092  13.217  0.1145 -0.0632 -0.0300
 4513W        W17927   6.713   0.298  12.385  0.2062  0.0891 -0.1654
 4514W        W17928   7.130   7.837   1.154  0.0542 -0.1023  0.1257
 4515W        W17929  12.050   7.770  11.716  0.1593  0.2433  0.0951
 4516W        W17930   8.046  14.556  10.779  0.4417  0.1183 -0.3239
 4517W        W17931   7.960  17.995   5.452  0.0868  0.2500 -0.0622
 4518W        W17932  15.149   9.303   1.161 -0.3074  0.1993 -0.0084
 4519W        W17933   2.210  10.782   1.954  0.2463 -0.0344 -0.0643
 4520W        W17934  17.937   2.972   3.117 -0.1381 -0.2430  0.1764
 4521W        W17935   8.745   4.967  11.238 -0.0601  0.0149 -0.0146
 4522W        W17936  10.362   5.146  15.451 -0.2868  0.1601  0.1834
 4523W        W17937  11.192   2.162  14.627  0.0293  0.0052  0.0150
 4524W        W17938   2.287   5.412   5.863  0.3342 -0.1998 -0.2114
 4525W        W17939   7.983   5.094   6.173 -0.1141  0.1591 -0.1450
 4526W        W17940  13.028   2.437  15.988  0.0306 -0.0932 -0.0706
 4527W        W17941  17.182   3.887   0.714  0.0011 -0.2851  0.1323
 4528W        W17942  14.908  10.006   4.009 -0.0181  0.1695  0.3124
 4529W        W17943   4.630   5.116   2.743 -0.1066  0.1099  0.0023
 4530W        W17944   2.555   4.490  13.635 -0.3026  0.4582 -0.1472
 4531W        W17945   7.865  11.507  14.068  0.0629 -0.2354 -0.2681
 4532W        W17946  13.809   4.212  12.597  0.1204  0.2579 -0.0630
 4533W        W17947   7.228   1.147   3.960 -0.2929  0.0003 -0.2303
 4534W        W17948   1.469   0.542  12.846 -0.0114  0.0736 -0.1544
 4535W        W17949  14.057  14.166   3.480  0.0912 -0.2170 -0.3043
 4536W        W17950  10.628  14.090   5.442  0.1820  0.2347  0.2319
 4537W        W17951  16.596  17.595  15.000  0.1720 -0.0825 -0.2412
 4538W        W17952   2.026   0.003   2.594  0.1571  0.1840  0.0324
 4539W        W17953   7.686  14.422   1.192  0.2037  0.1779  0.0598
 4540W        W17954  13.935   0.600  13.822 -0.3438 -0.1117  0.2409
 4541W        W17955  11.535   5.289  11.702 -0.0726  0.2095 -0.1734
 4542W        W17956   2.577  16.610   4.623 -0.2747 -0.0403 -0.3158
 4543W        W17957   7.535  13.112  15.064 -0.1358  0.1274 -0.1909
 4544W        W17958   5.063   4.730  16.156 -0.1676  0.0568  0.3245
 4545W        W17959  17.825  17.099   1.033 -0.1183 -0.2280  0.0755
 4546W        W17960  12.924   6.094  14.792 -0.0676 -0.0115  0.0683
 4547W        W17961  10.852  12.701   0.237  0.2804  0.2319  0.3085
 4548W        W17962   9.824   6.529   4.839 -0.2730  0.1328  0.2217
 4549W        W17963  13.582  11.632  15.196 -0.2663 -0.1940  0.1198
 4550W        W17964  14.940   8.269   2.748  0.1824 -0.1353 -0.1042
 4551W        W17965  13.321  12.989  14.907 -0.2298 -0.0620  0.2269
 4552W        W17966   7.311   0.813  11.001  0.1068 -0.0383 -0.0548
 4553W        W17967  15.368   7.250  14.931  0.1429  0.1168  0.3755
 4554W        W17968  13.451  17.256   3.046 -0.1288 -0.0924 -0.1468
 4555W        W17969   9.336   5.843  11.694 -0.0099 -0.1735  0.0832
 4556W        W17970  10.499   6.199   4.008  0.0086  0.0313  0.3017
 4557W        W17971   1.958   7.836   4.149 -0.4122 -0.0070 -0.2251
 4558W        W17972   7.986  10.993  16.068 -0.0325  0.3659  0.0367
 4559W        W17973  16.455  13.723  11.100 -0.2101 -0.1872  0.2546
 4560W        W17974  10.905  12.673   4.300 -0.2434 -0.1537 -0.0685
 4561W        W17975  10.402   9.558   1.453 -0.0491  0.1607  0.0748
 4562W        W17976   3.959   8.677  10.746 -0.0814  0.1059 -0.1493
 4563W        W17977  16.295  16.256   3.775 -0.0699 -0.0437  0.2341
 4564W        W17978   7.162   1.233   5.050 -0.0269 -0.4150 -0.0355
 4565W        W17979  17.809   4.933   0.246 -0.0265 -0.0957 -0.3262
 4566W        W17980   9.926  14.443   1.164 -0.0454  0.0221  0.2794
 4567W        W17981   7.939   6.858  16.049  0.3229 -0.0222  0.2257
 4568W        W17982   1.514   3.791  14.924  0.5259  0.0786 -0.0074
 4569W        W17983   7.413   8.711  15.160  0.2665  0.1058 -0.0244
 4570W        W17984   1.979   8.454  11.870 -0.0520  0.0786  0.1523
 4571W        W17985  11.763   0.484  14.478 -0.1878  0.0075 -0.2962
 4572W        W17986  11.827  17.119  11.891 -0.0867  0.1522 -0.3908
 4573W        W17987   9.245   3.770  11.138  0.1845  0.0654  0.0671
 4574W        W17988   5.929  15.151  11.324 -0.2866  0.1708 -0.1703
 4575W        W17989   3.716   4.204  11.312 -0.0069 -0.0912  0.1496
 4576W        W17990  15.074   5.173  15.982 -0.0089  0.0047  0.0175
 4577W        W17991   1.510   3.244  15.701  0.0639  0.0238  0.2303
 4578W        W17992   5.867  12.965   0.598  0.0371 -0.1275  0.0187
 4579W        W17993  11.181   4.904  13.368  0.1670  0.0814 -0.1391
 4580W        W17994  15.446  17.801  15.882  0.3646 -0.2006  0.2675
 4581W        W17995  13.336  11.538  12.344 -0.0530  0.0547  0.1695
 4582W        W17996   4.972  13.881   3.715  0.2233 -0.0187  0.0789
 4583W        W17997  15.086   0.034  15.982  0.1093  0.1806 -0.1375
 4584W        W17998   6.499  10.249   0.738 -0.1964  0.1849  0.1251
 4585W        W17999   6.454   1.952  14.095  0.2457 -0.0682  0.3449
 4586W        W18000   6.992   2.427  13.120 -0.2141 -0.1674 -0.0485
 4587W        W18001  11.764  16.055  14.280  0.1535 -0.0858 -0.0928
 4588W        W18002   8.246  17.202   4.910 -0.1932 -0.1061  0.0911
 4589W        W18003  10.948   1.993   4.709 -0.2712 -0.0860  0.0591
 4590W        W18004  15.643   6.751  12.645  0.1058  0.1598  0.0939
 4591W        W18005  16.606   8.553  11.257 -0.3510 -0.0373  0.0940
 4592W        W18006   3.252   2.566  12.832  0.1912 -0.0132 -0.0383
 4593W        W18007   2.610   1.881  11.836 -0.3506  0.0993 -0.2292
 4594W        W18008   0.540   5.406  11.729  0.3394  0.1094 -0.4359
 4595W        W18009   7.114  13.872  11.340 -0.1417 -0.0753 -0.0047
 4596W        W18010  13.708   2.234   4.029 -0.0001  0.0291 -0.1154
 4597W        W18011   5.870   5.334   1.891 -0.0543 -0.2405  0.2187
 4598W        W18012  12.237  16.026  12.743  0.0005  0.1433 -0.1336
 4599W        W18013  15.365  10.202   4.638 -0.2675 -0.2187 -0.1707
 4600W        W18014   0.858   7.477  13.891  0.1556 -0.0663  0.1633
 4601W        W18015   2.314   2.257   3.008 -0.1742 -0.1227 -0.2224
 4602W        W18016   3.802   5.282   1.192  0.2260 -0.0613  0.0781
 4603W        W18017  12.911  16.575   2.206 -0.1970 -0.2283 -0.0058
 4604W        W18018  17.374   5.309   0.819 -0.1210 -0.3001  0.3754
 4605W        W18019   8.695  16.549   5.591 -0.1963 -0.1804 -0.1389
 4606W        W18020   0.560  11.213   5.511 -0.2034  0.1451  0.0531
 4607W        W18021   6.532  13.737   0.246 -0.0656 -0.0642  0.1593
 4608W        W18022  13.799  13.092  13.839 -0.1620  0.2108  0.0100
 4609W        W18023   3.962   2.452   0.012  0.2294 -0.2931 -0.2017
 4610W        W18024   8.442   4.521   2.346  0.1754 -0.4369  0.0605
 4611W        W18025  10.521  12.572  11.731  0.1292  0.4256  0.1895
 4612W        W18026   8.998   8.978  14.656 -0.0710 -0.0960 -0.3200
 4613W        W18027  12.833  13.625   4.800 -0.1087 -0.1324 -0.0166
 4614W        W18028  12.725   3.808   3.799 -0.0115  0.1048  0.1337
 4615W        W18029  18.197   7.725  16.034  0.0719 -0.3050 -0.0516
 4616W        W18030  13.597   3.625  12.439 -0.0813 -0.2485 -0.1525
 4617W        W18031  12.161   2.919  14.016 -0.0889 -0.1624  0.0520
 4618W        W18032  13.523   1.958   4.405  0.3135 -0.0068  0.4845
 4619W        W18033  15.716   1.782  16.520 -0.0756  0.3180  0.1022
 4620W        W18034  12.191   4.709   5.900  0.0483 -0.1047 -0.1913
 4621W        W18035   5.380  12.372  14.833  0.1258  0.0677  0.1720
 4622W        W18036  17.748   7.571   4.990 -0.2728  0.1538  0.0938
 4623W        W18037   8.924  15.900  15.447 -0.0824 -0.0908  0.0781
 4624W        W18038  12.251   9.609  13.854  0.2207  0.0933 -0.1526
 4625W        W18039   0.935  15.241  10.522  0.4053  0.0850 -0.1843
 4626W        W18040   0.472   7.380  16.512 -0.3251  0.0602  0.0619
 4627W        W18041   6.974   0.379   2.090 -0.1310  0.2276  0.1364
 4628W        W18042   8.627   5.735  11.923 -0.1273 -0.0028  0.4485
 4629W        W18043   1.045   3.393   6.044 -0.1546  0.0607  0.0394
 4630W        W18044   0.560   8.620  14.557 -0.1528  0.2867  0.0844
 4631W        W18045  15.458   9.803  14.853  0.2864  0.0287  0.1411
 4632W        W18046   2.948  10.949  14.973 -0.0137 -0.0358  0.2473
 4633W        W18047   5.064  11.624   5.603 -0.0579  0.1002  0.0008
 4634W        W18048  11.418   1.075   5.803 -0.1737 -0.0193 -0.0286
 4635W        W18049   6.670   7.243  10.809 -0.5859 -0.0287  0.0681
 4636W        W18050   6.538  11.887   1.657  0.0850 -0.4261 -0.1678
 4637W        W18051  14.178  14.253   1.910 -0.2210  0.1163  0.4677
 4638W        W18052   2.838  16.658  12.657 -0.0659  0.0344  0.1090
 4639W        W18053   2.847  16.144  16.474 -0.2691  0.0060 -0.0300
 4640W        W18054   3.327   9.667   3.167 -0.0679 -0.2577 -0.2572
 4641W        W18055  11.520  11.266  12.997 -0.1329  0.3460 -0.0222
 4642W        W18056  16.253   2.978  15.059 -0.0598 -0.2386 -0.0774
 4643W        W18057  12.436  17.563  12.938  0.1359 -0.0836  0.1310
 4644W        W18058  15.440  11.943  15.175 -0.1165  0.1126 -0.1075
 4645W        W18059  14.322  14.925  16.190 -0.1352  0.2758  0.0704
 4646W        W18060  17.221   6.225  11.161  0.6295 -0.0943  0.2415
 4647W        W18061  11.946   2.404  14.039  0.0884 -0.0265 -0.3977
 4648W        W18062  11.656   1.514   6.016  0.1512 -0.2390 -0.0558
 4649W        W18063   6.437   9.412   3.357  0.0145 -0.0731  0.0332
 4650W        W18064  11.686  12.724   0.733 -0.1181  0.4951 -0.0653
 4651W        W18065  16.513  16.700  14.084 -0.0399 -0.0860  0.3202
 4652W        W18066   8.771  16.116  14.661 -0.1728 -0.0078 -0.0011
 4653W        W18067  15.688  12.162  14.089 -0.1015  0.0674  0.0276
 4654W        W18068   1.348   2.760  14.652  0.2914  0.0586 -0.1235
 4655W        W18069  14.495  15.069  11.772  0.2430 -0.2568  0.0284
 4656W        W18070   6.650  11.711   0.762 -0.3042 -0.1684 -0.1282
 4657W        W18071   7.102  14.865  11.706  0.2267 -0.0173  0.1795
 4658W        W18072   1.324  16.010  14.247  0.5131  0.0715 -0.0935
 4659W        W18073   8.128   0.809  14.286  0.1268  0.0310 -0.1642
 4660W        W18074  10.699  14.104   1.598  0.0121 -0.2669  0.0528
 4661W        W18075  15.262  16.913  10.788  0.0772 -0.0928  0.0048
 4662W        W18076   7.390  16.313  12.482 -0.1362  0.0302  0.2049
 4663W        W18077   0.644   2.948   3.060 -0.1031  0.1402  0.0048
 4664W        W18078   6.464   8.255  12.218 -0.2816  0.0465  0.3283
 4665W        W18079  17.590  13.831  14.280  0.2525  0.1432  0.0458
 4666W        W18080  10.524   4.295   5.508  0.0143 -0.0463  0.1118
 4667W        W18081  16.400   5.007  11.184 -0.0910  0.3143 -0.0146
 4668W        W18082   0.453  11.367   3.721 -0.2697 -0.2158  0.0541
 4669W        W18083   2.851   3.873   4.060 -0.0725  0.1199  0.1401
 4670W        W18084   2.553  16.173   3.768  0.0403  0.0427  0.0929
 4671W        W18085   2.832   4.805   5.637 -0.2856  0.0272  0.0361
 4672W        W18086   1.959  18.050  11.965  0.0376 -0.2618 -0.0602
 4673W        W18087   0.491   9.357  10.124  0.3379 -0.0904  0.2483
 4674W        W18088  11.135  14.417  14.176 -0.0222 -0.4693  0.4235
 4675W        W18089   9.031   9.295  15.662  0.0645  0.1739  0.0808
 4676W        W18090  15.427   4.747  12.474 -0.1132  0.0460  0.0921
 4677W        W18091   9.759  10.361   2.183 -0.2309  0.3146  0.0071
 4678W        W18092   1.028   2.742  11.883  0.2418  0.0435  0.1122
 4679W        W18093   4.798   4.394   1.265  0.3519 -0.2646  0.0267
 4680W        W18094   6.841  10.043  11.963  0.4643 -0.1269  0.1167
 4681W        W18095   8.575  10.712   0.738  0.0223  0.3364  0.0502
 4682W        W18096  15.732  11.115   4.581  0.0858  0.1146  0.1896
 4683W        W18097   0.024   2.578   1.806  0.1351 -0.2543  0.0855
 4684W        W18098  15.225  13.382   2.664 -0.1179 -0.1500  0.0574
 4685W        W18099   4.099   7.331  12.954 -0.2258  0.0512  0.2337
 4686W        W18100   1.069  15.962   3.002  0.2378  0.1438  0.0491
 4687W        W18101  14.179  16.145  12.820 -0.1645  0.0005  0.0592
 4688W        W18102   3.564  15.366  16.372  0.2244  0.1988 -0.2391
 4689W        W18103   9.851   1.167   5.900 -0.1497  0.2196 -0.0045
 4690W        W18104   1.699   9.349  13.056 -0.1577 -0.3327 -0.2211
 4691W        W18105  11.024  16.691   1.371  0.0229 -0.1014  0.1265
 4692W        W18106   0.528  11.734  13.207  0.2294  0.1469  0.0349
 4693W        W18107  14.560   9.659   9.683 -0.2303  0.4392  0.0300
 4694W        W18108   0.925  14.280   5.065  0.3680 -0.0727 -0.5332
 4695W        W18109  14.744  15.656   1.287 -0.2532  0.1363  0.0958
 4696W        W18110  10.621   5.823   2.837 -0.0215  0.1941  0.0987
 4697W        W18111   6.575   1.529  12.333  0.1632 -0.1915 -0.0572
 4698W        W18112  17.520   8.770   6.380 -0.0762 -0.1589  0.0947
 4699W        W18113  17.831   4.767   2.032  0.2458 -0.1480 -0.0736
 4700W        W18114  16.414   5.221  13.929  0.2580  0.1092  0.0428
 4701W        W18115   2.643   8.785   4.215 -0.1484  0.1688 -0.3475
 4702W        W18116  16.434  10.209   2.335  0.1345  0.4295  0.0556
 4703W        W18117   4.034   2.063   3.577 -0.1429  0.2718  0.3116
 4704W        W18118   2.751   8.453  11.290  0.1603  0.1636  0.4420
 4705W        W18119   5.295  12.950   1.450 -0.0655  0.0074  0.2567
 4706W        W18120  17.485   9.842  16.174  0.0629 -0.0756 -0.1700
 4707W        W18121  16.149  13.201   2.720  0.1069  0.0847  0.0411
 4708W        W18122  11.546   2.495  14.805 -0.0753 -0.0055  0.1823
 4709W        W18123  15.601   3.223  12.197 -0.0308 -0.2729  0.0785
 4710W        W18124   2.313   3.730   4.007  0.0094 -0.0851  0.0563
 4711W        W18125   0.807  12.671  14.484  0.1054  0.3872  0.1754
 4712W        W18126   2.136  17.854   4.326 -0.1692  0.1367  0.0586
 4713W        W18127  15.949   1.747   5.450  0.0581 -0.3536  0.1807
 4714W        W18128   3.795   3.958   5.161  0.2764  0.0388  0.1836
 4715W        W18129  17.250   7.026   0.735  0.2477 -0.1193  0.0500
 4716W        W18130   4.643   2.767  15.282  0.0655  0.1741 -0.3386
 4717W        W18131  17.780  11.183  12.930  0.1148 -0.0816 -0.3366
 4718W        W18132  16.146   7.015  12.806 -0.1390 -0.2086  0.1391
 4719W        W18133  10.204   5.404   1.914  0.0450 -0.0000 -0.0758
 4720W        W18134   7.310  11.359   2.370  0.3050 -0.0172  0.4075
 4721W        W18135  10.160   0.684  12.240  0.0868 -0.1699  0.0470
 4722W        W18136   7.545  15.891  14.039 -0.0029 -0.2390 -0.1073
 4723W        W18137   3.200   5.361  12.139  0.3522  0.1430 -0.0971
 4724W        W18138  11.700  17.736  11.082  0.0193 -0.0968  0.3462
 4725W        W18139   3.440   1.863  14.092  0.0678 -0.0682 -0.0052
 4726W        W18140  15.693   5.458   4.016  0.2196 -0.1036 -0.1598
 4727W        W18141  15.487   5.234  14.447 -0.2875 -0.1302  0.0527
 4728W        W18142   5.533  11.714   1.530  0.0873 -0.0956 -0.3541
 4729W        W18143  15.963  11.210  12.703  0.3287  0.0246 -0.3797
 4730W        W18144   8.418   1.101   0.380 -0.2072 -0.1575  0.3592
 4731W        W18145   5.362   6.609   0.594 -0.0907 -0.0046  0.0616
 4732W        W18146  15.448   4.982  11.292 -0.1270  0.4662  0.2358
 4733W        W18147   2.630   7.347   4.553  0.1590  0.0991  0.3737
 4734W        W18148   0.716   5.898  11.741  0.0042  0.0148  0.0772
 4735W        W18149  15.858   9.578   0.246 -0.2998 -0.1014  0.2774
 4736W        W18150   5.460  13.730   5.476  0.0062 -0.1252 -0.3449
 4737W        W18151  15.781  17.294   5.354 -0.2608  0.0600  0.1194
 4738W        W18152   1.630   5.547  12.064  0.0181  0.0138 -0.0085
 4739W        W18153   9.473   7.162   4.408  0.1473  0.1546  0.0009
 4740W        W18154   7.077  16.094   1.947 -0.0241  0.1346  0.3439
 4741W        W18155  17.586  10.017  15.700  0.3714  0.0375 -0.0207
 4742W        W18156  17.221   2.669  10.385  0.1032  0.1552 -0.2557
 4743W        W18157  12.964   4.879  14.211  0.0120 -0.0441 -0.1859
 4744W        W18158  13.063   8.675  12.441 -0.3951 -0.2943  0.3646
 4745W        W18159  12.299  15.015  11.291 -0.1023  0.0968  0.4112
 4746W        W18160  17.757  13.988   5.289 -0.2199 -0.1682 -0.2995
 4747W        W18161  12.751  11.430  15.128  0.1816 -0.0016 -0.3175
 4748W        W18162  11.088  11.310   3.777  0.0506 -0.0873  0.2235
 4749W        W18163   3.468   7.170   4.427  0.0248  0.0847  0.3460
 4750W        W18164  10.812  14.623  15.688  0.0265  0.1294  0.3460
 4751W        W18165  15.813  16.386  15.826  0.2089 -0.0814 -0.2284
 4752W        W18166   2.689   5.637   5.280  0.0017  0.3145 -0.2794
 4753W        W18167  17.349   1.665   2.534 -0.1873  0.1291  0.2288
 4754W        W18168   8.610   6.376  12.726  0.2061  0.3800  0.0336
 4755W        W18169  13.165   3.867  12.075 -0.1082 -0.2375 -0.2817
 4756W        W18170  14.972  11.534  12.460 -0.0304 -0.1536  0.1502
 4757W        W18171  16.334   4.140   5.717  0.2094  0.2165  0.0780
 4758W        W18172  15.340  14.860   2.381  0.1034  0.2936  0.2486
 4759W        W18173   0.343   3.393  14.274 -0.3092  0.3739 -0.3453
 4760W        W18174  14.292  12.916  12.123 -0.1579  0.1689  0.1061
 4761W        W18175  12.808  13.051   5.173  0.0828  0.1409 -0.0860
 4762W        W18176   2.935  18.164  16.541 -0.3600 -0.1140  0.0255
 4763W        W18177   1.457  18.120  15.159  0.0070 -0.1525  0.3187
 4764W        W18178  15.275   7.092  12.716 -0.0482 -0.1542  0.1566
 4765W        W18179   9.329  16.953   5.000 -0.1337 -0.0248  0.1222
 4766W        W18180   1.331   5.263  16.044  0.1880 -0.2245 -0.0502
 4767W        W18181  16.842  10.297  12.965  0.1167 -0.1405  0.0672
 4768W        W18182  12.139   6.070  15.465  0.0067  0.1742 -0.2955
 4769W        W18183   6.842   6.632  15.334  0.3198 -0.1074 -0.3592
 4770W        W18184   1.019  13.667   5.086  0.0484 -0.0209 -0.1741
 4771W        W18185  15.205   1.046   5.628  0.0700 -0.0522 -0.0362
 4772W        W18186   7.408  10.500  12.693 -0.1053 -0.1689 -0.1619
 4773W        W18187  10.076   3.680  15.734 -0.1189  0.4523  0.0003
 4774W        W18188  16.461  14.596  15.781  0.0941  0.0200 -0.0307
 4775W        W18189  12.553   3.370   6.162  0.1440  0.2595 -0.0360
 4776W        W18190   1.108   2.901  13.434 -0.1759  0.0848  0.1429
 4777W        W18191  17.295   5.497   4.356 -0.2369  0.0782 -0.1746
 4778W        W18192   0.894   9.742   1.790 -0.1498 -0.0483 -0.1101
 4779W        W18193  11.856  11.461   5.260 -0.0134 -0.1764  0.1232
 4780W        W18194   0.702   6.979  10.781  0.1097 -0.4836  0.0006
 4781W        W18195  16.544  12.183   1.737 -0.2150  0.1100 -0.1346
 4782W        W18196  12.477  15.715  16.130 -0.0128 -0.0722  0.2847
 4783W        W18197   3.985   7.232   1.392  0.0674 -0.0403 -0.0582
 4784W        W18198   7.164   1.963  16.187  0.1483  0.1926 -0.1443
 4785W        W18199   8.467  15.547  12.598 -0.0555 -0.1746  0.1083
 4786W        W18200   8.820   8.859   1.745  0.1335 -0.2986 -0.0347
 4787W        W18201   0.777  13.970   4.718 -0.1352 -0.2478  0.0902
 4788W        W18202  10.360   2.321  16.145 -0.0783 -0.1296  0.2687
 4789W        W18203   0.494  14.547   3.861  0.3043  0.1613  0.0154
 4790W        W18204   1.331  17.800  10.877 -0.1394 -0.3273  0.1105
 4791W        W18205   9.552  16.632   1.812  0.0072  0.1041  0.0374
 4792W        W18206  13.207  14.071   2.243  0.0467 -0.1479  0.0214
 4793W        W18207   3.660  10.494  12.733  0.1501  0.0557  0.1100
 4794W        W18208   3.610   8.666   5.120 -0.0988 -0.4736  0.1705
 4795W        W18209   8.934  14.599   5.570  0.1731  0.0608  0.0339
 4796W        W18210   8.053   8.847   2.624 -0.0444  0.1315 -0.0836
 4797W        W18211   7.199  16.673  14.817  0.3830  0.0762 -0.2250
 4798W        W18212  15.351  16.711  12.717 -0.0703 -0.0929 -0.2220
 4799W        W18213  12.525   2.174   1.390 -0.2211  0.1416 -0.0630
 4800W        W18214   8.307   7.007   4.785  0.1977 -0.1601  0.1718
 4801W        W18215   3.077  12.671  13.148 -0.2427 -0.2258  0.1341
 4802W        W18216  13.870  16.037  15.445  0.2573  0.0626 -0.4824
 4803W        W18217   8.723  10.308  13.690 -0.0048 -0.3683 -0.2179
 4804W        W18218   2.363  10.119  11.690 -0.1847 -0.1689 -0.1417
 4805W        W18219   3.858   8.331   0.085 -0.2311 -0.2115 -0.1040
 4806W        W18220   1.015   2.483  15.472  0.1701  0.1389 -0.2091
 4807W        W18221  17.279   5.305  14.392 -0.1072 -0.0734 -0.0507
 4808W        W18222  12.654   3.456   4.689 -0.2477  0.1479  0.4009
 4809W        W18223  12.343  16.549  14.987  0.3499  0.0084  0.0018
 4810W        W18224   2.189   7.967   1.260 -0.0078 -0.2269  0.0068
 4811W        W18225  11.115  16.793  11.389 -0.1303 -0.0922 -0.2901
 4812W        W18226   9.712   2.895  14.368  0.1600 -0.2012  0.0933
 4813W        W18227  16.879  14.378  14.092  0.1104  0.3604  0.1323
 4814W        W18228   2.851  10.514   3.453  0.2000  0.2379  0.1513
 4815W        W18229   9.492   9.779   3.147 -0.2240  0.4368 -0.1615
 4816W        W18230  15.792  17.061  16.486 -0.1165 -0.0991 -0.1393
 4817W        W18231   0.622  11.217   2.516  0.1221  0.1594 -0.0081
 4818W        W18232   2.634   3.911   2.466  0.4520  0.0519  0.0556
 4819W        W18233   8.575   8.088   0.007  0.2244  0.0567 -0.2271
 4820W        W18234   7.291   3.183   4.109 -0.0391  0.1639 -0.0286
 4821W        W18235   7.621  17.510  12.510  0.0249 -0.1311  0.0553
 4822W        W18236   0.389   1.197  13.392 -0.1357 -0.1754 -0.1018
 4823W        W18237   1.868  16.759   0.830 -0.0548  0.0004 -0.0995
 4824W        W18238  15.684   4.325   5.073 -0.1218 -0.0991 -0.1896
 4825W        W18239   8.184  16.513  11.911  0.3430 -0.1699  0.1097
 4826W        W18240  15.919   3.775  10.059 -0.0337 -0.1609 -0.0380
 4827W        W18241   8.289   7.005  16.526  0.2109  0.2287 -0.0292
 4828W        W18242   8.265  12.376   3.898 -0.2795 -0.1355 -0.1309
 4829W        W18243   7.376   8.743   0.859  0.4487 -0.0919  0.0927
 4830W        W18244   1.439   8.379   3.436 -0.3322  0.0964  0.2154
 4831W        W18245   8.009   1.201  12.507 -0.2045  0.0755  0.3324
 4832W        W18246   6.239  13.688  11.246 -0.4337  0.1257  0.1327
 4833W        W18247   1.946  10.204   3.156  0.2248  0.0666 -0.1631
 4834W        W18248  17.634   4.032  15.024 -0.2409  0.2476 -0.1127
 4835W        W18249  15.727   6.446   5.627 -0.2750 -0.3617 -0.0361
 4836W        W18250   6.139  15.918   6.353  0.1902  0.0823  0.2459
 4837W        W18251   9.363  11.256   1.270 -0.0630  0.0198 -0.2216
 4838W        W18252  15.982  13.981   5.664 -0.1101 -0.1495 -0.1631
 4839W        W18253  10.412  10.980   1.991  0.0679  0.2242 -0.3415
 4840W        W18254   2.374   1.396   1.710  0.0928 -0.4022  0.0775
 4841W        W18255   4.139   1.154  15.523  0.2719  0.2781 -0.0320
 4842W        W18256   5.250   5.899  11.364  0.1158  0.1294  0.0967
 4843W        W18257   1.339  11.295  14.215  0.0590  0.1689  0.3988
 4844W        W18258  14.929  16.078   1.492  0.1158 -0.3540 -0.0554
 4845W        W18259  10.778   9.394   4.094 -0.0038  0.4663 -0.0572
 4846W        W18260   4.617   3.415  11.105  0.2334  0.1018 -0.0243
 4847W        W18261  17.867  13.579   1.181  0.1106  0.0911 -0.0695
 4848W        W18262   5.694  15.936  11.699  0.1862 -0.1579 -0.0359
 4849W        W18263  13.129   2.095   4.067  0.1161  0.1349  0.5280
 4850W        W18264  18.144   9.952   5.021  0.0726 -0.0348  0.4934
 4851W        W18265   6.548   6.996   3.862 -0.2304  0.2277  0.2605
 4852W        W18266   2.437  11.220   5.828  0.0805 -0.0263  0.1714
 4853W        W18267   1.033   1.002   1.797  0.1174 -0.0739 -0.1061
 4854W        W18268   3.422   2.853  10.124 -0.0768  0.2893  0.1779
 4855W        W18269   7.283   1.379   1.805  0.1019 -0.3217 -0.1069
 4856W        W18270   1.793   1.185   6.350  0.0384  0.0098 -0.0589
 4857W        W18271   4.822   4.774   0.037  0.0426  0.2479 -0.3043
 4858W        W18272   6.372   3.970   0.415  0.0090  0.0092 -0.0793
 4859W        W18273   1.818   9.227  11.264  0.3803 -0.0310  0.3787
 4860W        W18274   1.263  12.513  12.537  0.2209 -0.0504  0.0572
 4861W        W18275   5.714   1.558  15.250  0.0535 -0.0525  0.0177
 4862W        W18276   5.557   5.161  15.658  0.3089 -0.2296 -0.2186
 4863W        W18277   0.392  11.652   5.672 -0.0731 -0.0430 -0.0565
 4864W        W18278   2.906   6.643  15.525  0.3809  0.1118 -0.0718
 4865W        W18279  14.951   3.822  16.415  0.2408 -0.1496  0.0825
 4866W        W18280   6.419  15.771   5.794 -0.2148 -0.0039  0.1339
 4867W        W18281  15.351   3.891  11.438  0.2837 -0.0101  0.1371
 4868W        W18282  11.227  10.668  14.758  0.1254 -0.2466 -0.2495
 4869W        W18283  17.756   2.309  12.900 -0.0386 -0.2810 -0.2610
 4870W        W18284   8.720   8.152  10.923  0.0275  0.3389 -0.0614
 4871W        W18285   3.304  16.433  15.865 -0.0488  0.1188  0.2929
 4872W        W18286   4.289  11.221  11.045 -0.0521 -0.0332  0.2782
 4873W        W18287   6.438   6.337   3.525 -0.0460  0.3459 -0.0533
 4874W        W18288  14.638   8.175  15.445 -0.1615  0.1720 -0.0913
 4875W        W18289  17.479  12.643  16.299 -0.1018 -0.0060 -0.0222
 4876W        W18290  11.698   0.259   5.700 -0.1101 -0.0624 -0.3016
 4877W        W18291   5.155   7.127  12.761  0.0435  0.3537 -0.0189
 4878W        W18292  17.302   0.763  12.669 -0.2293  0.5067  0.1078
 4879W        W18293  10.426   3.351   2.207 -0.2878  0.0430 -0.0002
 4880W        W18294   1.825   8.080   5.467 -0.2421  0.1466 -0.0818
 4881W        W18295  12.696  13.012   6.594 -0.4233 -0.0043  0.1290
 4882W        W18296   4.770   8.720   1.523  0.2001  0.0142 -0.2184
 4883W        W18297  14.486  16.902  15.353  0.1134  0.0874  0.1765
 4884W        W18298   4.851   0.572  13.930 -0.0492 -0.0261 -0.2188
 4885W        W18299   8.456   5.875  11.351 -0.2094  0.0612  0.0239
 4886W        W18300   5.072   5.027   4.255 -0.0323  0.2133  0.0413
 4887W        W18301   0.004   2.937  15.013 -0.2912 -0.0637  0.0561
 4888W        W18302  13.723   7.612   0.982 -0.0657  0.1233  0.1839
 4889W        W18303   8.976  12.880   4.850  0.0449 -0.1727  0.1479
 4890W        W18304   4.884  12.937   3.847 -0.2437 -0.3654  0.1670
 4891W        W18305   4.629   3.560  13.279  0.0242 -0.1125  0.0038
 4892W        W18306   0.944   8.825   5.043 -0.0919 -0.3960 -0.1210
 4893W        W18307   8.036   6.112  10.958  0.0167 -0.0594  0.0636
 4894W        W18308  16.057  15.719  12.401 -0.1919 -0.2064  0.3756
 4895W        W18309   9.235   6.202   5.951 -0.0724 -0.1859 -0.0991
 4896W        W18310   5.001   5.185  10.931 -0.0902  0.1031 -0.1002
 4897W        W18311  12.472  10.567   2.732  0.4192 -0.3333 -0.1268
 4898W        W18312   3.096  16.894  16.116 -0.1358 -0.3845  0.1914
 4899W        W18313  11.210   4.406   2.199 -0.2628  0.0552 -0.2816
 4900W        W18314  16.212   3.807   4.392  0.0512 -0.0625 -0.0181
 4901W        W18315   2.187   9.707   4.452  0.1654  0.2026  0.4708
 4902W        W18316  14.418  16.189  13.727  0.0078 -0.2652 -0.2038
 4903W        W18317   6.974   1.269   2.795 -0.2209  0.0649  0.0614
 4904W        W18318   1.897   4.968  15.665  0.1126  0.4055 -0.0110
 4905W        W18319  15.779  17.882   4.377 -0.1769  0.1651  0.1624
 4906W        W18320   9.185  15.020  16.203  0.1392  0.1656 -0.1262
 4907W        W18321   4.806  15.237  15.412 -0.0892  0.4579 -0.2574
 4908W        W18322   3.379  17.632   4.550  0.2011 -0.2678  0.0756
 4909W        W18323   6.165   5.095  12.542  0.0305 -0.1115 -0.0353
 4910W        W18324   3.508  11.702   0.740  0.2251  0.0512  0.0748
 4911W        W18325   2.745  13.955  11.782  0.2388  0.2062 -0.1265
 4912W        W18326   5.761  15.042   0.057 -0.2154 -0.5463 -0.0320
 4913W        W18327  13.661   7.827   0.338  0.0028 -0.0388  0.3546
 4914W        W18328   7.469  12.331  10.632  0.1639  0.2503 -0.2487
 4915W        W18329  14.176   3.057  11.555 -0.0570  0.0256 -0.2095
 4916W        W18330   5.912  11.589   1.176 -0.0660  0.0988 -0.0642
 4917W        W18331  17.578   8.279  13.838  0.2296 -0.1367  0.1516
 4918W        W18332   1.163   3.611  15.800  0.0853 -0.0990 -0.2211
 4919W        W18333  11.088  16.628  12.255 -0.0522  0.0311  0.2055
 4920W        W18334   2.646   9.147   0.455  0.0783 -0.0930 -0.1145
 4921W        W18335  15.048  13.548  15.442 -0.0467  0.0584 -0.1471
 4922W        W18336   3.599  16.065   3.823  0.0783 -0.4583  0.2706
 4923W        W18337   6.570   1.784   3.643 -0.0098  0.1047  0.3056
 4924W        W18338  14.783  13.716  13.805 -0.2980  0.0778 -0.1456
 4925W        W18339   5.751   9.159   1.619 -0.3751 -0.1853 -0.0072
 4926W        W18340  17.901   5.969   2.056  0.0656 -0.4708 -0.0630
 4927W        W18341  14.399   9.774   3.767  0.1318 -0.1404 -0.1839
 4928W        W18342  15.122   8.299  13.288 -0.3891 -0.2662 -0.1169
 4929W        W18343  18.210   2.309  12.697  0.0918 -0.1203  0.1725
 4930W        W18344   8.082   3.460  12.401 -0.2473  0.1464 -0.2058
 4931W        W18345   9.675  10.528  11.626 -0.1551 -0.1385 -0.3695
 4932W        W18346  16.153  16.618   3.234 -0.0148 -0.1207  0.0567
 4933W        W18347  14.860   3.825  11.573  0.1602  0.0842 -0.0279
 4934W        W18348  18.054   6.462   2.899 -0.2090 -0.2428 -0.2351
 4935W        W18349   9.210  15.285  11.051 -0.2805 -0.0955 -0.0200
 4936W        W18350  16.042   7.459  11.915  0.1938  0.0890  0.0045
 4937W        W18351   5.622  17.808  13.056 -0.0381  0.1704  0.0835
 4938W        W18352   7.632   7.744   1.029 -0.2427  0.0768 -0.2976
 4939W        W18353   2.447   6.356  15.516 -0.0498  0.1788  0.1834
 4940W        W18354  17.326  11.722  14.439 -0.0477 -0.1277  0.0589
 4941W        W18355   5.768  12.720   2.668 -0.0315 -0.1033 -0.0447
 4942W        W18356   2.095   9.410  14.198  0.1971 -0.2072  0.1350
 4943W        W18357  15.780   8.453   4.508 -0.0253  0.2611  0.0693
 4944W        W18358   8.352  11.948  15.802 -0.1227 -0.2188 -0.0149
 4945W        W18359  17.040   4.951  14.095  0.3551  0.0824 -0.1222
 4946W        W18360  14.921   5.912   3.712 -0.0811 -0.1090  0.0386
 4947W        W18361  13.885   2.476  13.776  0.1124  0.2294  0.0888
 4948W        W18362  17.151  18.272  12.216 -0.0256 -0.1278  0.0321
 4949W        W18363  14.879   3.757   5.006 -0.1608  0.0687 -0.0895
 4950W        W18364  11.976   8.593   2.075 -0.0819  0.1796  0.3927
 4951W        W18365  16.781  16.703  12.184 -0.0446 -0.1247  0.2901
 4952W        W18366   6.863   9.073  14.687  0.0379  0.1867 -0.1991
 4953W        W18367   3.418   9.093   2.837 -0.2939  0.0700  0.2516
 4954W        W18368  15.871  10.756  12.992  0.1405  0.2035  0.1534
 4955W        W18369  17.339  11.972   1.146 -0.3065  0.2065 -0.0737
 4956W        W18370  14.951   6.577   4.873  0.1349  0.2267 -0.0439
 4957W        W18371   3.336   3.249  16.175  0.0578 -0.2384 -0.0502
 4958W        W18372  13.660   6.161   1.166 -0.1898 -0.0050 -0.0192
 4959W        W18373   1.456   7.794   3.727 -0.2413 -0.1065 -0.4170
 4960W        W18374  16.459  11.590  13.597 -0.1245  0.1485 -0.2239
 4961W        W18375  14.719  11.416   1.802  0.0016 -0.1481 -0.2194
 4962W        W18376  10.337   9.701   0.820 -0.0693  0.2177 -0.1085
 4963W        W18377  14.647  14.021   4.726  0.0373  0.0417  0.2764
 4964W        W18378   1.222   6.899  10.656 -0.3299  0.3505  0.2058
 4965W        W18379   1.669  11.329  15.195  0.0128  0.0437 -0.1280
 4966W        W18380   3.642   6.488   5.682  0.1557 -0.1578 -0.0350
 4967W        W18381   8.784  13.394  15.851 -0.0793 -0.0263  0.1239
 4968W        W18382  16.272  13.893  11.529  0.0445 -0.3083 -0.2921
 4969W        W18383  15.390  10.096  12.467 -0.1852 -0.0005  0.1364
 4970W        W18384   6.409   4.564  11.674 -0.0054  0.0065 -0.2212
 4971W        W18385  11.777  11.373  13.994 -0.1334  0.0847  0.2292
 4972W        W18386   2.808  11.213  15.622 -0.0685 -0.3775  0.1279
 4973W        W18387   2.082  14.518  11.259 -0.0824  0.0373 -0.0703
 4974W        W18388  10.720   3.492  12.427  0.1075 -0.3370  0.1958
 4975W        W18389  12.391   4.711  16.283  0.1100  0.3064 -0.1163
 4976W        W18390  15.145   8.569  13.718  0.2404  0.1977  0.0561
 4977W        W18391   5.088  13.386   3.716 -0.0004  0.2044  0.0668
 4978W        W18392   5.026  13.281   5.500 -0.1176 -0.2389  0.1384
 4979W        W18393  12.874  12.989   1.396  0.3330 -0.2881  0.1880
 4980W        W18394  11.564  10.547   2.695 -0.2226  0.0671  0.0633
 4981W        W18395  17.016   0.771  15.620  0.0815  0.0769  0.1800
 4982W        W18396  12.924   1.342  12.021 -0.0485  0.0022  0.0059
 4983W        W18397   2.162  17.634   2.460 -0.1389  0.0331 -0.0512
 4984W        W18398   1.004  10.224  11.102  0.2531  0.4017  0.4356
 4985W        W18399   2.255   0.360   3.835 -0.0875 -0.1814  0.1360
 4986W        W18400   5.700  10.222   4.351 -0.5088  0.0566  0.2451
 4987W        W18401  17.949   4.789  16.313  0.1439  0.3783  0.0794
 4988W        W18402   6.084  17.531   4.880  0.1853 -0.1831  0.0360
 4989W        W18403  11.013  11.398  16.140  0.0852 -0.1562 -0.1825
 4990W        W18404   3.656   9.372  16.245 -0.3248  0.0003  0.0549
 4991W        W18405  10.454   9.769   4.198  0.0320 -0.0159 -0.1662
 4992W        W18406   9.630  12.747  15.133  0.0941  0.0342 -0.4611
 4993W        W18407  11.715   8.437   4.588  0.0016  0.1514  0.0334
 4994W        W18408  16.440   6.248  12.189  0.0333  0.0513 -0.2100
 4995W        W18409  10.410   9.402   3.097 -0.2619  0.1194  0.1663
 4996W        W18410  15.137   1.222  13.161  0.2649  0.1687 -0.0750
 4997W        W18411   1.596  16.946   4.492  0.0221 -0.0451  0.1734
 4998W        W18412  12.078   3.198   1.385  0.0666  0.1346 -0.2120
 4999W        W18413  14.557   0.109  13.536  0.1067  0.0950  0.1957
 5000W        W18414   3.091  11.932   2.256  0.2791  0.0659  0.2002
 5001W        W18415  14.727   7.444  13.359  0.0010 -0.0612  0.2508
 5002W        W18416   1.136  14.811   3.111  0.0585 -0.0416  0.2205
 5003W        W18417  12.988   6.669   2.310 -0.2604 -0.3454 -0.0473
 5004W        W18418   9.934  17.571   4.407  0.2140 -0.2726  0.0021
 5005W        W18419   7.473   9.678   6.297  0.1305 -0.0745  0.1230
 5006W        W18420   8.109   2.776   4.404 -0.2103 -0.0751  0.0055
 5007W        W18421   4.867   6.069   4.320 -0.0518 -0.0013 -0.2189
 5008W        W18422   9.692  13.812   1.579  0.0228  0.0418 -0.2887
 5009W        W18423  15.355   9.230  16.058 -0.3201  0.0925 -0.3247
 5010W        W18424  13.545  15.673  12.056 -0.1431  0.0263 -0.0484
 5011W        W18425  11.048   7.368   0.323 -0.0184  0.3922  0.1077
 5012W        W18426  18.103   0.831   4.358 -0.2772  0.0114 -0.1647
 5013W        W18427   7.999   1.033  16.053 -0.0709 -0.2064  0.4157
 5014W        W18428  13.468  17.981  15.638  0.0688 -0.2203 -0.2513
 5015W        W18429   5.142  12.251   2.218 -0.2103  0.0218 -0.1763
 5016W        W18430   1.072   0.972   4.772  0.3156 -0.1025  0.1878
 5017W        W18431   2.526  14.301  11.544  0.0572  0.0388  0.1063
 5018W        W18432   1.303  13.342  16.064 -0.1591 -0.4776 -0.0310
 5019W        W18433   3.757   8.239  14.729  0.1665 -0.0728  0.0456
 5020W        W18434   2.104  17.274   4.866 -0.0060 -0.1977 -0.3809
 5021W        W18435  11.921  15.280  13.705  0.5667  0.0493 -0.1849
 5022W        W18436   4.345   7.143   5.885  0.0155  0.2063 -0.0200
 5023W        W18437  13.557  12.640  14.102  0.0218 -0.2826 -0.0782
 5024W        W18438   0.261  15.976   1.088 -0.1511  0.0487 -0.2869
 5025W        W18439   0.476   9.315   4.428  0.0605 -0.0642  0.1161
 5026W        W18440   5.011   9.262  11.372  0.2029 -0.1243  0.0720
 5027W        W18441   9.985   9.204   3.309 -0.0396 -0.0849 -0.0692
 5028W        W18442  13.784  15.131  13.527 -0.1192 -0.0637 -0.3940
 5029W        W18443   1.786   3.985  10.820  0.3790  0.1718 -0.1657
 5030W        W18444  10.917   3.009  12.600  0.4986 -0.0701  0.0685
 5031W        W18445   7.542  13.866  15.747  0.3186 -0.1305 -0.2191
 5032W        W18446   1.480   7.092  12.689  0.2403 -0.1387 -0.0287
 5033W        W18447   4.082   0.341  11.105  0.0786 -0.2205 -0.0334
 5034W        W18448   8.415  17.557  13.525  0.1471  0.1179  0.0488
 5035W        W18449   4.158   1.567   0.334 -0.1773 -0.0252 -0.0040
 5036W        W18450   4.866  16.727   2.778 -0.2061  0.1862  0.0314
 5037W        W18451  13.241  13.300   3.924 -0.2476 -0.1460 -0.0386
 5038W        W18452  15.065  15.396   5.854 -0.0171  0.0189 -0.1102
 5039W        W18453   2.720   2.147   0.697 -0.0386  0.2829 -0.1594
 5040W        W18454  17.404   2.612  13.290 -0.2838 -0.1229  0.1091
 5041W        W18455   4.230  11.280   1.174  0.2929 -0.2232 -0.1639
 5042W        W18456  14.148   3.017  14.539 -0.1192 -0.2526  0.0683
 5043W        W18457  18.093   0.313  12.346 -0.5820  0.2124 -0.1738
 5044W        W18458   8.790  13.024   4.242  0.1716 -0.1145 -0.2175
 5045W        W18459  15.656  11.154  13.147  0.4295  0.2599 -0.1434
 5046W        W18460  14.237   7.047   0.434  0.1599  0.1643  0.1228
 5047W        W18461   1.978   5.524  10.703 -0.0694 -0.2586 -0.0828
 5048W        W18462  10.434   9.836  11.805 -0.0702 -0.1747 -0.0056
 5049W        W18463   7.938  10.803   4.022 -0.0678  0.5748 -0.0109
 5050W        W18464  14.826  11.166   6.013  0.2319 -0.0399 -0.1002
 5051W        W18465  14.692   0.901   0.010  0.4324 -0.3092 -0.0209
 5052W        W18466   4.244  14.386  10.916  0.1900  0.2857  0.0696
 5053W        W18467  16.935   6.724  15.497 -0.0368 -0.0119  0.0307
 5054W        W18468   0.442  10.982  10.153 -0.1887  0.1713 -0.0467
 5055W        W18469   9.381   0.769   0.093  0.0645 -0.4352 -0.0674
 5056W        W18470   4.099  16.963   3.291 -0.3832 -0.0261  0.1099
 5057W        W18471   7.214  17.642  11.277 -0.3115 -0.2518 -0.2200
 5058W        W18472  14.159   5.580   3.158 -0.0323  0.2953 -0.1379
 5059W        W18473   1.013   2.664   0.311  0.2438 -0.1076  0.2843
 5060W        W18474   6.000   4.014   3.491 -0.1565  0.0234 -0.0869
 5061W        W18475  12.055  16.861  13.509 -0.1938 -0.1739  0.1282
 5062W        W18476   2.908   2.137  15.333 -0.1016  0.0704  0.2959
 5063W        W18477   8.918   6.780  12.750  0.0285  0.4711 -0.4296
 5064W        W18478   1.878  10.274  11.520 -0.4280 -0.0267 -0.3379
 5065W        W18479   4.509   8.515  13.586  0.0965  0.1328  0.0109
 5066W        W18480   8.231  10.265  12.296 -0.0372 -0.0947  0.0177
 5067W        W18481   6.205  17.790  15.046 -0.0126  0.2090  0.1280
 5068W        W18482   0.940  14.600   0.281  0.2287  0.1569  0.2835
 5069W        W18483   2.842  10.664   4.548  0.2467 -0.1343  0.2191
 5070W        W18484   8.133   7.447   2.955  0.0193 -0.0124 -0.2310
 5071W        W18485  14.882  18.062   1.146  0.4169 -0.0603 -0.4140
 5072W        W18486   0.498   7.920  15.308  0.0125  0.1696 -0.0585
 5073W        W18487   2.279   7.302  14.156  0.1496  0.0433 -0.2755
 5074W        W18488  13.587   1.075  15.123  0.1954 -0.2533  0.2199
 5075W        W18489   8.525  15.199   3.909  0.0297 -0.1631 -0.2517
 5076W        W18490   6.089   9.669   5.372 -0.4241 -0.0063 -0.0507
 5077W        W18491   9.260  15.126   1.032 -0.1161 -0.0334 -0.1902
 5078W        W18492  15.258  11.841   0.201  0.1955 -0.0097 -0.2285
 5079W        W18493  12.925  14.279  13.845 -0.2746 -0.0189 -0.2785
 5080W        W18494  11.428   1.886   4.521  0.1623 -0.1162  0.0284
 5081W        W18495  16.947   7.965  12.891  0.0852 -0.1744  0.2663
 5082W        W18496  14.156  15.575   0.290 -0.1665 -0.0318  0.1832
 5083W        W18497   4.081   4.306  14.361 -0.0991  0.1145  0.2430
 5084W        W18498  15.633   8.608   1.530  0.5002  0.1081 -0.2767
 5085W        W18499   3.180  13.357  12.345  0.1165 -0.0103 -0.0899
 5086W        W18500   7.958  17.801  13.471  0.1717 -0.0316 -0.1509
 5087W        W18501  11.615  12.971   2.549  0.1002 -0.0228 -0.1707
 5088W        W18502  13.011  17.068   2.227 -0.1169 -0.1394  0.0159
 5089W        W18503   0.665  16.750  11.752 -0.3876  0.1309 -0.1412
 5090W        W18504   6.680   0.058   4.841 -0.1073 -0.0060  0.3509
 5091W        W18505  14.153   1.420   3.103  0.0624 -0.1911 -0.1525
 5092W        W18506  16.121  16.478  13.831  0.1397  0.0091  0.0371
 5093W        W18507  12.869   0.785   2.536 -0.2314  0.3422 -0.2520
 5094W        W18508  17.601  17.437   0.716 -0.2366 -0.0816  0.0093
 5095W        W18509   1.409   9.932   2.004 -0.1099 -0.1903  0.1562
 5096W        W18510  10.269   7.829  12.600  0.0847 -0.1248  0.0033
 5097W        W18511  12.137   4.600  15.838  0.1609 -0.3265  0.1526
 5098W        W18512   6.949   5.612   2.555 -0.1838  0.1923 -0.0557
 5099W        W18513  12.685  16.357   3.283  0.3181 -0.0426 -0.0494
 5100W        W18514  17.564  11.482  13.609 -0.1621  0.1869  0.0797
 5101W        W18515   1.932  16.671   3.747 -0.1758 -0.0758  0.0768
 5102W        W18516   3.271   6.032  14.810  0.3003  0.0448  0.1145
 5103W        W18517  16.314  10.750   0.575 -0.1439  0.0696  0.0883
 5104W        W18518   5.780   2.968  14.350 -0.3483 -0.2979 -0.2176
 5105W        W18519   9.577   0.518   4.024 -0.2073 -0.3431  0.0975
 5106W        W18520   9.187  10.710   0.192 -0.1231 -0.0192  0.0094
 5107W        W18521   0.018   4.651   1.501  0.1121  0.1048 -0.2221
 5108W        W18522  14.779   2.318   5.158  0.0606  0.2571 -0.1642
 5109W        W18523  14.478   9.093  10.490 -0.0365  0.0144  0.2173
 5110W        W18524  15.670   9.301   1.547 -0.0622 -0.2260  0.1320
 5111W        W18525   2.730  16.411  13.172 -0.1880  0.3061  0.2739
 5112W        W18526  16.192   7.962   5.803 -0.0798 -0.0665 -0.1919
 5113W        W18527  11.377   9.180  10.159  0.0151 -0.1340  0.1054
 5114W        W18528  10.580   5.762   4.243  0.0755 -0.1435 -0.0228
 5115W        W18529  16.625  11.291  15.247 -0.0087 -0.2132  0.2956
 5116W        W18530   2.668  15.697   3.694  0.2376  0.0079  0.0533
 5117W        W18531   9.906  17.784  16.101 -0.0483  0.0325  0.1642
 5118W        W18532   8.490   5.188   1.205 -0.0013  0.0292  0.0486
 5119W        W18533  11.180   5.298   0.170  0.1498 -0.0627  0.0926
 5120W        W18534   9.338   1.547   6.965  0.1286 -0.0461 -0.1625
 5121W        W18535   2.254   2.034   0.071 -0.2110  0.2817  0.1842
 5122W        W18536   4.658  15.937   4.772 -0.0581 -0.1292  0.0466
 5123W        W18537  12.957  15.950  14.525  0.1078  0.2260  0.3346
 5124W        W18538   1.281   4.263  14.770 -0.1141  0.0048  0.1334
 5125W        W18539   3.405  15.952   4.313 -0.0979 -0.2366 -0.1765
 5126W        W18540  13.360   1.267  11.805 -0.0396  0.1440  0.1912
 5127W        W18541   8.722  13.403   4.649 -0.2685  0.2025 -0.2179
 5128W        W18542   1.039  16.419  12.663 -0.1566 -0.0430  0.3557
 5129W        W18543   4.814   1.650   6.678 -0.0168 -0.0731 -0.4930
 5130W        W18544   1.430  15.977   6.082 -0.0859  0.0558 -0.0339
 5131W        W18545   2.326  14.233  14.423 -0.3515 -0.1366  0.3862
 5132W        W18546  10.649  16.240   6.379 -0.3818  0.2453 -0.0338
 5133W        W18547   5.185   6.164  12.752 -0.4526  0.2546 -0.1462
 5134W        W18548   2.099   7.569  15.027  0.1942 -0.0746 -0.0395
 5135W        W18549   8.605  13.986   4.777  0.0734  0.0177 -0.3238
 5136W        W18550   0.167   5.464   5.059  0.0520  0.0206 -0.0572
 5137W        W18551   5.139   4.415  10.539 -0.0920 -0.3439 -0.1104
 5138W        W18552   0.109  14.258  11.480  0.0613  0.1233  0.1003
 5139W        W18553  13.980  14.809  11.712 -0.1551 -0.0166 -0.3528
 5140W        W18554  10.340   0.022   2.830  0.1128 -0.0522  0.0759
 5141W        W18555  13.099   7.180  10.579 -0.1133  0.6204  0.1028
 5142W        W18556   2.315   7.537   1.107 -0.1738 -0.0724  0.0878
 5143W        W18557  13.218   7.952  13.724  0.0868  0.1074  0.0264
 5144W        W18558  14.357  14.996   6.283 -0.1036  0.0026  0.0956
 5145W        W18559  16.094  17.438   5.760 -0.2000 -0.0181  0.1393
 5146W        W18560   0.236   1.715  11.982 -0.0371  0.2489  0.2791
 5147W        W18561   9.386   7.613   4.047 -0.0066  0.0819  0.1571
 5148W        W18562   6.323  18.004  11.040 -0.0573  0.0761 -0.0052
 5149W        W18563   9.209   2.657  15.611  0.0534 -0.1706  0.1184
 5150W        W18564   8.209  13.750   6.084  0.0568 -0.3787  0.1478
 5151W        W18565  15.589   6.321  11.199  0.0813  0.1247 -0.4237
 5152W        W18566   8.630  12.259  14.890  0.1225  0.0510 -0.2697
 5153W        W18567  16.899   0.042  15.726  0.3222 -0.0462 -0.1590
 5154W        W18568   6.815  12.568  11.161 -0.0541  0.1002  0.3281
 5155W        W18569   8.769  16.233   1.365 -0.2724  0.0870 -0.1004
 5156W        W18570  17.536  17.250  11.665 -0.0795  0.1417  0.2192
 5157W        W18571   9.616  17.409  10.720 -0.0649  0.0646 -0.1770
 5158W        W18572  13.531   9.573  12.497  0.0225 -0.0852  0.3319
 5159W        W18573   2.284  12.616  14.698  0.2201  0.0328 -0.0765
 5160W        W18574   1.717  17.637   3.543 -0.2949 -0.1700 -0.0511
 5161W        W18575  16.918   9.221  16.420  0.0366  0.2035  0.1017
 5162W        W18576   0.070   7.409   4.305  0.2286  0.1981 -0.0167
 5163W        W18577  12.426  15.607   4.757  0.0243  0.2563  0.1840
 5164W        W18578   6.604   7.870  11.883 -0.1802 -0.1493 -0.1960
 5165W        W18579  13.879   3.355  15.344 -0.0322 -0.0483  0.0791
 5166W        W18580   6.113   5.926  15.212 -0.1048  0.1530  0.0200
 5167W        W18581   2.595   6.338   4.009  0.2723  0.2393 -0.0207
 5168W        W18582   9.535   9.664   1.061 -0.0792 -0.0721  0.2531
 5169W        W18583   5.007   2.973  13.891 -0.0039  0.0452  0.0309
 5170W        W18584  11.723  17.337   1.644  0.0576  0.1401  0.0957
 5171W        W18585   0.690  11.788   6.012 -0.3092  0.0975 -0.2391
 5172W        W18586  10.020   0.909   2.681 -0.0788  0.0860 -0.1178
 5173W        W18587  12.154  13.826  12.240  0.0250 -0.1534 -0.2375
 5174W        W18588  13.503   4.721   0.456 -0.1192 -0.0560 -0.0589
 5175W        W18589  15.665  17.004   2.836  0.0211 -0.1413 -0.2766
 5176W        W18590  13.192   1.090   4.344  0.1462 -0.1515 -0.1280
 5177W        W18591   5.291  13.871  14.877 -0.0786 -0.2636 -0.1655
 5178W        W18592   4.026  17.804   3.445  0.3722 -0.2788 -0.1080
 5179W        W18593   1.481  12.683  11.692  0.1237 -0.2695  0.1614
 5180W        W18594  14.701  12.518  15.572  0.3084 -0.1205  0.0625
 5181W        W18595   1.724  16.213  13.935  0.1172  0.2668  0.2126
 5182W        W18596   1.958  11.020   5.023 -0.1014  0.2298  0.0530
 5183W        W18597   2.321  10.617   5.268  0.0998 -0.2224 -0.1737
 5184W        W18598  14.210   6.950   3.664 -0.3528 -0.1022  0.3013
 5185W        W18599  17.852   3.443   0.335 -0.0804 -0.2757  0.1151
 5186W        W18600   4.734   4.814   2.369  0.2052  0.2313 -0.0336
 5187W        W18601  10.627  18.091   1.544  0.2430 -0.0766 -0.0898
 5188W        W18602   7.115   2.929  13.397 -0.1369  0.1875 -0.1743
 5189W        W18603   7.438   8.748   1.436  0.0137 -0.1277 -0.0144
 5190W        W18604  11.190  16.295   4.036  0.1611  0.1244  0.2207
 5191W        W18605   1.796  14.522   6.577 -0.0954  0.1032  0.1425
 5192W        W18606   3.217  18.274   1.827  0.0802  0.2186 -0.2128
 5193W        W18607   7.679  18.273  15.659  0.1742 -0.0924 -0.0485
 5194W        W18608   1.120  12.611   5.343 -0.0221 -0.0162  0.2776
 5195W        W18609   2.156  12.265  14.293 -0.0429 -0.1295 -0.0931
 5196W        W18610   9.570   1.179   4.673  0.2505  0.1144  0.0274
 5197W        W18611   5.899   5.912  14.794  0.2571  0.2981 -0.2608
 5198W        W18612  15.445   6.596   4.766  0.0865 -0.1008  0.0496
 5199W        W18613  14.192   0.871  12.153  0.0653  0.1903  0.1226
 5200W        W18614  14.811   3.506   2.379  0.0249 -0.0329  0.0092
 5201W        W18615  15.542   7.765   2.235 -0.1083  0.4343 -0.2514
 5202W        W18616   0.005  10.131  12.069  0.0613 -0.1286 -0.2305
 5203W        W18617   9.159   9.922   2.768  0.2116  0.0025  0.0741
 5204W        W18618   2.309   1.738  14.168  0.0008 -0.2335 -0.0086
 5205W        W18619   5.845   5.119  13.993 -0.0712  0.0115  0.4023
 5206W        W18620   5.314   0.689  11.438  0.0055 -0.1277  0.2284
 5207W        W18621   7.452  14.982   5.700 -0.2658 -0.1247  0.0441
 5208W        W18622  18.173   5.699  13.116  0.1601 -0.5659 -0.1582
 5209W        W18623   9.228   6.684   1.857  0.0443 -0.1623 -0.2011
 5210W        W18624  14.733   6.700  15.809 -0.0052 -0.3379 -0.1741
 5211W        W18625  10.123   5.284   0.483  0.0042  0.1007 -0.2053
 5212W        W18626   0.259  16.415  12.427 -0.1924 -0.0972 -0.0997
 5213W        W18627  17.122   5.937  13.238  0.2740 -0.3078  0.3843
 5214W        W18628  16.168  12.054  14.166 -0.1161 -0.1314  0.2784
 5215W        W18629  12.268  12.963  12.206  0.1016  0.0424  0.0289
 5216W        W18630  13.141   7.272   1.757  0.1852 -0.2652  0.0728
 5217W        W18631  16.215   1.657  14.546  0.1102  0.0405 -0.1229
 5218W        W18632   0.221   9.162  11.814 -0.0695 -0.2926  0.2809
 5219W        W18633   0.558  16.270   3.909 -0.2001  0.0949  0.0017
 5220W        W18634   4.511  17.831  15.785 -0.1519  0.0860 -0.1156
 5221W        W18635   4.571   1.662  10.331 -0.0265  0.3818 -0.0041
 5222W        W18636  11.979   1.417  14.356 -0.0345 -0.0741 -0.0294
 5223W        W18637   8.725  11.666  13.749  0.1455  0.0626  0.1458
 5224W        W18638  11.341   5.046   1.316  0.0042  0.1804  0.2870
 5225W        W18639   8.568   9.953  14.027 -0.3390  0.0666 -0.0362
 5226W        W18640  13.901  10.548  14.647 -0.1230  0.2555 -0.2357
 5227W        W18641   1.863   0.475   5.083 -0.0184 -0.0444 -0.1105
 5228W        W18642  17.896  13.102  10.510 -0.0157  0.2938  0.1855
 5229W        W18643   8.162   8.458   0.301 -0.2328  0.0510  0.3492
 5230W        W18644  12.385  11.549  11.801  0.3018 -0.1374  0.0221
 5231W        W18645  16.829   6.422   1.344  0.0863  0.0279  0.1957
 5232W        W18646   9.498  18.030   3.237  0.2723  0.4329 -0.0031
 5233W        W18647  15.925  15.042  16.468  0.1006  0.2439  0.3049
 5234W        W18648  12.267   3.623  14.466 -0.0545  0.5896  0.2062
 5235W        W18649   2.311  13.744  14.541  0.1473  0.0266  0.2681
 5236W        W18650  17.683  17.494  12.940  0.1416 -0.0961  0.3053
 5237W        W18651  16.792  18.021  11.835 -0.0234 -0.3873 -0.1043
 5238W        W18652   4.474   6.218  16.254  0.3548 -0.0531 -0.0377
 5239W        W18653  10.874   2.391   3.634 -0.1801  0.0372 -0.2122
 5240W        W18654  14.515  10.560   1.691  0.2026  0.0667 -0.2542
 5241W        W18655  13.195  14.352   5.152  0.0817 -0.3288  0.2160
 5242W        W18656  11.567  15.770  12.147 -0.2828  0.0009  0.0806
 5243W        W18657  17.787   1.574   2.195 -0.0534 -0.3533  0.0339
 5244W        W18658   4.673  12.259  12.478  0.0656 -0.2611  0.0911
 5245W        W18659  16.175  14.405   5.817  0.0862 -0.0425 -0.0263
 5246W        W18660  14.979   5.222  11.317 -0.0148  0.1754 -0.1265
 5247W        W18661   4.106  12.781   3.975  0.1153  0.1211  0.0454
 5248W        W18662   6.401   0.856  11.334  0.2697 -0.0133  0.0565
 5249W        W18663   8.938   2.183  15.711  0.0950  0.1284 -0.0022
 5250W        W18664   9.659   8.353   0.397  0.2260  0.2747 -0.0553
 5251W        W18665   2.503  17.052  13.789  0.0654  0.0414 -0.1296
 5252W        W18666  16.982  15.612   3.001  0.1821 -0.1637 -0.1357
 5253W        W18667  11.199   3.289   5.182 -0.3045  0.3526  0.0229
 5254W        W18668  12.594   5.499   2.900 -0.0050 -0.3512 -0.1077
 5255W        W18669  17.766   3.169  13.962 -0.3109 -0.2850 -0.1267
 5256W        W18670   8.369  16.095  11.779  0.1963 -0.0251 -0.0509
 5257W        W18671   1.362   1.335   1.445 -0.0450  0.0499 -0.1831
 5258W        W18672  12.369   7.539   5.839  0.0912 -0.0647  0.1480
 5259W        W18673   5.310  10.757  12.272 -0.1293 -0.1884 -0.1623
 5260W        W18674  16.290  11.314   5.469  0.0265  0.0556 -0.1061
 5261W        W18675   7.208  17.295  16.436 -0.0059  0.0934 -0.0457
 5262W        W18676   5.469  10.910  11.767 -0.3014  0.2175 -0.5109
 5263W        W18677  13.399   2.536   4.187  0.0640  0.1147 -0.1019
 5264W        W18678  13.834  18.243  10.914 -0.1452  0.1927  0.0313
 5265W        W18679   2.389  15.631  15.221 -0.2229 -0.2392 -0.1897
 5266W        W18680   1.111   0.994  14.797 -0.0534  0.0845 -0.1676
 5267W        W18681  17.984  18.113  11.923  0.0423  0.1606 -0.4187
 5268W        W18682  12.622   2.616   3.027 -0.0457 -0.1745 -0.0348
 5269W        W18683   6.597   1.315  11.520  0.0864 -0.2359 -0.1555
 5270W        W18684  16.173  12.508   5.991  0.1754 -0.0069  0.0464
 5271W        W18685   0.495   9.025   5.267 -0.1600 -0.1324  0.0161
 5272W        W18686  16.070   8.375  12.816  0.0713 -0.0226 -0.2419
 5273W        W18687   2.439   7.115  15.064 -0.0744 -0.0961  0.0264
 5274W        W18688  12.633  10.276   1.488  0.0665 -0.1797 -0.1304
 5275W        W18689  17.462   5.295   0.322 -0.1636 -0.2464  0.3846
 5276W        W18690  18.234  12.753  14.351  0.3360 -0.0141  0.1615
 5277W        W18691   8.391   1.344   4.279 -0.1648 -0.0157  0.3379
 5278W        W18692   2.074   7.888   5.886  0.2091  0.2505 -0.0336
 5279W        W18693  15.059   7.114   3.898  0.1614 -0.2319  0.0242
 5280W        W18694   2.558  11.208  12.234 -0.1016 -0.1252 -0.0979
 5281W        W18695  15.606   2.205  15.033  0.2305 -0.2652  0.0295
 5282W        W18696   3.859  14.762  12.779  0.3616  0.0203 -0.0950
 5283W        W18697  11.000  13.788   5.739  0.1793 -0.0397 -0.0680
 5284W        W18698  12.243  13.700   6.582 -0.0285  0.3176 -0.1335
 5285W        W18699  18.124   4.336   2.618 -0.0300 -0.0622  0.0190
 5286W        W18700   2.602   4.655  10.570  0.1656  0.1814  0.0045
 5287W        W18701  11.674   1.720   1.269  0.1330  0.0051 -0.2073
 5288W        W18702   5.208  14.416  14.855 -0.5377  0.0260 -0.1788
 5289W        W18703   9.461   7.655  11.399 -0.0060 -0.3502  0.1130
 5290W        W18704  16.562  15.832   6.002  0.0603  0.3665 -0.1830
 5291W        W18705   2.922  14.074  13.647  0.1613 -0.2070 -0.0665
 5292W        W18706   5.324   5.053  14.028  0.0171 -0.1022  0.2697
 5293W        W18707   3.038   4.509  15.266 -0.1374  0.0172 -0.0601
 5294W        W18708   5.903  10.590   5.503  0.1648 -0.3877 -0.3269
 5295W        W18709  11.467   9.863   2.187 -0.0781  0.0255 -0.2829
 5296W        W18710   5.518   6.965  13.072 -0.0392 -0.1043  0.3011
 5297W        W18711  15.934  14.077   3.212  0.0535  0.0107  0.2146
 5298W        W18712   0.590  16.133   2.930  0.0494 -0.4798 -0.0995
 5299W        W18713   5.083  16.791   5.111 -0.1886 -0.1122 -0.2367
 5300W        W18714   2.390   6.611  15.921  0.1139  0.2347 -0.0345
 5301W        W18715   9.134  13.761   1.590 -0.2773 -0.2341  0.0728
 5302W        W18716   8.401  11.049   4.872  0.1195  0.0018 -0.0654
 5303W        W18717  15.312   1.421  15.753 -0.1778  0.2695 -0.3125
 5304W        W18718  14.572   7.166  13.798 -0.1637  0.0448 -0.0291
 5305W        W18719   6.128   7.237  10.895 -0.0072 -0.0777 -0.1379
 5306W        W18720  10.772   2.486  14.506 -0.0452  0.4384 -0.2539
 5307W        W18721  13.030   6.527   4.150 -0.1756  0.0971 -0.3139
 5308W        W18722  15.977   4.245  11.107 -0.1164  0.0278 -0.2888
 5309W        W18723   3.029   0.832   2.792 -0.4122 -0.2612  0.6948
 5310W        W18724   4.525   7.421  13.214 -0.0068  0.0227 -0.1335
 5311W        W18725   3.004   4.633   3.937  0.0352 -0.2410 -0.0023
 5312W        W18726   9.309  16.185  15.697  0.0761 -0.1378  0.0979
 5313W        W18727  17.439  16.232   1.215 -0.0998 -0.0831 -0.1824
 5314W        W18728   4.904  15.997  13.753  0.0959  0.3954  0.0639
 5315W        W18729   2.279   9.370   4.929  0.3683 -0.1401 -0.2734
 5316W        W18730   8.137   8.449   3.262  0.1651  0.0363 -0.0711
 5317W        W18731   7.717   9.892  13.370  0.1703  0.0130 -0.0708
 5318W        W18732   4.229   7.086  14.394  0.0972 -0.2335  0.0302
 5319W        W18733  12.730   9.002  14.703  0.0715 -0.2619  0.0398
 5320W        W18734  10.480   2.887   2.926  0.0055  0.2056  0.1676
 5321W        W18735  17.598   0.349   3.830  0.4846 -0.0674 -0.0393
 5322W        W18736  11.009  16.005   0.566 -0.1349  0.2513 -0.2678
 5323W        W18737  14.526   0.976   4.311  0.0386  0.1039  0.1975
 5324W        W18738  15.963  15.851   3.683  0.0935 -0.3535 -0.0338
 5325W        W18739  12.035  16.553  12.064  0.1557 -0.0572 -0.0950
 5326W        W18740   5.028  11.231  13.824  0.1495 -0.2300 -0.1382
 5327W        W18741  18.111  12.226  12.814 -0.4222  0.3750 -0.1071
 5328W        W18742  15.689  10.306   1.807 -0.0830 -0.3612  0.1938
 5329W        W18743  13.904  18.183  16.338 -0.0948 -0.1802  0.1847
 5330W        W18744   4.657   6.999  15.490  0.2272 -0.1814  0.0647
 5331W        W18745  16.453  15.385  14.153 -0.1080 -0.1441 -0.2966
 5332W        W18746  17.817  15.123  14.530  0.1238  0.1431  0.1598
 5333W        W18747   9.337   8.607  11.030  0.5791  0.0427  0.2574
 5334W        W18748   5.070   4.683  11.898 -0.0249 -0.2787 -0.0312
 5335W        W18749   9.066  16.741  11.681 -0.1008 -0.1276  0.0271
 5336W        W18750  15.002   1.176  11.021 -0.1718  0.0286 -0.1475
 5337W        W18751  15.047   9.910  14.620  0.0214 -0.0943 -0.0306
 5338W        W18752   5.393  11.979  11.145 -0.0111 -0.0070  0.0972
 5339W        W18753   1.124  11.367   3.428 -0.1929 -0.0860  0.0941
 5340W        W18754  13.910   7.385  14.585 -0.0805 -0.1395  0.0839
 5341W        W18755   2.010   4.394   0.900  0.0518  0.4152 -0.0487
 5342W        W18756   1.129   7.694  14.645  0.1404 -0.0322  0.0467
 5343W        W18757  11.522  15.419   0.632 -0.0735 -0.1021 -0.0762
 5344W        W18758   3.907   4.911   0.009 -0.1970 -0.2181  0.1430
 5345W        W18759   7.481   0.554   2.123  0.1802 -0.0688 -0.0957
 5346W        W18760   0.471   9.342   0.701 -0.1064 -0.2349  0.1485
 5347W        W18761  14.489   5.414  16.091 -0.3119  0.0974 -0.0283
 5348W        W18762  14.245   4.769   0.960 -0.1249  0.0454  0.0291
 5349W        W18763  15.358   8.010   2.892  0.3366  0.2678  0.0402
 5350W        W18764  11.077   7.773   0.039  0.0588 -0.1780  0.2085
 5351W        W18765   4.112  11.242   2.870 -0.3266 -0.1934 -0.1674
 5352W        W18766   0.548   0.108  12.039 -0.0902  0.0325  0.1466
 5353W        W18767   5.705   7.396  12.009  0.1362 -0.0291 -0.2617
 5354W        W18768  14.470   0.466   4.172 -0.2893 -0.0786 -0.1368
 5355W        W18769   0.937   2.816   4.016  0.0485  0.1326  0.4036
 5356W        W18770   9.451   8.238  14.914  0.1085 -0.1002 -0.2879
 5357W        W18771  10.797   8.099   2.485 -0.0731  0.2458 -0.1156
 5358W        W18772  17.968   8.611   4.799 -0.1191  0.1911  0.0595
 5359W        W18773   6.650  12.478   6.126  0.0075 -0.2108  0.1428
 5360W        W18774  17.277   9.709  14.196 -0.0468 -0.1489  0.2808
 5361W        W18775  10.372   1.014   0.060 -0.0313  0.1606 -0.0614
 5362W        W18776   3.412  11.347   2.844 -0.1299  0.0361  0.1537
 5363W        W18777   8.486   8.683   2.463  0.0657 -0.0085  0.2681
 5364W        W18778   8.723   7.457   0.757  0.1976  0.3754 -0.0704
 5365W        W18779  10.129   0.408   5.084  0.1172  0.3909  0.2295
 5366W        W18780  12.652  10.344   5.863 -0.1367 -0.1633  0.0312
 5367W        W18781  12.602  11.181  11.231  0.2035 -0.1454 -0.1577
 5368W        W18782   1.393   9.928  13.177  0.4088  0.0479 -0.2321
 5369W        W18783   1.440   5.218  11.598 -0.2529  0.0110  0.2273
 5370W        W18784   3.446  15.745  15.995 -0.1070  0.1625  0.0879
 5371W        W18785   9.286   4.906  12.542 -0.2715  0.3804  0.0629
 5372W        W18786  12.922  12.471  14.904  0.3264  0.0880 -0.2453
 5373W        W18787  10.137   2.388  15.131 -0.0025 -0.1216 -0.1281
 5374W        W18788  14.365   3.213   2.252 -0.1180 -0.1887 -0.3561
 5375W        W18789  15.474  13.226  15.806  0.2186  0.0681  0.0052
 5376W        W18790   7.993   0.539   4.115 -0.0226 -0.1603 -0.3037
 5377W        W18791  12.733   6.000   4.823  0.2986  0.0007  0.0982
 5378W        W18792  11.437   3.227   2.769  0.2175  0.0987 -0.0437
 5379W        W18793   4.108   6.249   1.369 -0.0844 -0.6123 -0.0038
 5380W        W18794  16.082  13.979   4.212  0.0243 -0.2874 -0.3719
 5381W        W18795  14.523  15.487   2.599 -0.4114 -0.1348  0.1882
 5382W        W18796   7.533   8.449  12.077  0.2011 -0.2025 -0.1845
 5383W        W18797   5.153   3.992   3.897 -0.1586  0.1032 -0.2026
 5384W        W18798   9.830  12.593   4.911  0.2104  0.1227  0.2157
 5385W        W18799   8.219   8.811  11.534 -0.1262 -0.4353  0.0412
 5386W        W18800  11.779  13.296  13.048 -0.0479  0.1840 -0.1990
 5387W        W18801   6.990  17.983  13.949  0.1010 -0.2630 -0.0328
 5388W        W18802   2.372   2.823   2.910 -0.0175 -0.0125 -0.0586
 5389W        W18803  15.751  17.668   4.934 -0.1522 -0.0252  0.1938
 5390W        W18804  14.959   6.153  12.556 -0.0960 -0.0828 -0.2628
 5391W        W18805   0.272  13.196  12.857 -0.0537 -0.2674  0.0424
 5392W        W18806   5.356   5.462   4.247 -0.0001  0.2527  0.0112
 5393W        W18807   3.319  14.001   5.865 -0.0015  0.1618  0.0606
 5394W        W18808   5.965  16.835   3.449  0.1167 -0.0777 -0.0378
 5395W        W18809   4.822   2.470   5.786 -0.0480 -0.2180  0.2203
 5396W        W18810   5.155  13.017  11.049 -0.2977 -0.0987 -0.1125
 5397W        W18811  17.444  11.513  11.823  0.2340  0.0596  0.1021
 5398W        W18812  18.256  13.666   3.561  0.1466 -0.1445  0.2700
 5399W        W18813  13.920   3.669   0.875  0.2729 -0.0153  0.1616
 5400W        W18814   2.618   3.503  16.211  0.4025 -0.1438 -0.2236
 5401W        W18815  15.464   1.734   0.917 -0.1541 -0.1730  0.1498
 5402W        W18816   1.863   1.373   1.450  0.0400  0.3306  0.0556
 5403W        W18817   0.233  15.378   4.985  0.0743 -0.2321  0.1381
 5404W        W18818   5.166  15.187  16.341  0.1482 -0.2643 -0.1620
 5405W        W18819   8.687  13.957  13.634  0.2147  0.0032  0.2516
 5406W        W18820   0.033  14.065   3.921 -0.0998 -0.0263  0.4992
 5407W        W18821   4.824   1.241   5.393 -0.3805  0.1057  0.1072
 5408W        W18822  17.310   8.382   0.066  0.0101  0.2469  0.1239
 5409W        W18823  17.493   0.606   2.395  0.1739 -0.1866 -0.1184
 5410W        W18824   8.414  15.962   0.240 -0.2413 -0.3879  0.1030
 5411W        W18825  12.832   1.899  14.521 -0.3039  0.2078 -0.1778
 5412W        W18826  11.577   7.793  16.488  0.2747  0.2512  0.0956
 5413W        W18827  18.270   8.068   0.656 -0.0311 -0.3604  0.0614
 5414W        W18828  12.258  10.138  13.074  0.3469  0.0060  0.1332
 5415W        W18829  11.790  11.491   3.242 -0.0778 -0.1214  0.2326
 5416W        W18830   0.140   3.529   3.544  0.1235  0.1468 -0.2048
 5417W        W18831   3.457   8.462  16.332 -0.1007 -0.0260  0.0963
 5418W        W18832   3.194  13.436   0.020 -0.0224  0.1534 -0.1172
 5419W        W18833  14.264   7.503   0.959 -0.0074 -0.1019  0.1362
 5420W        W18834   0.935  11.418  10.940 -0.0086  0.2705 -0.0417
 5421W        W18835  11.887   2.792   3.499  0.0744 -0.5097  0.1349
 5422W        W18836   3.383   5.217   9.674 -0.2468  0.4940  0.1483
 5423W        W18837  12.546  10.307  14.263  0.1471  0.0285 -0.3149
 5424W        W18838  17.907   4.273   3.109  0.0017  0.0482  0.1015
 5425W        W18839   2.341   7.993  14.776  0.0759 -0.0351  0.1989
 5426W        W18840   6.460  17.714   3.907 -0.0647  0.1933 -0.1256
 5427W        W18841  14.054  12.039  11.919 -0.2243  0.0628 -0.0863
 5428W        W18842  10.293  17.581  13.947  0.1806  0.1815 -0.1325
 5429W        W18843   2.913  13.001   3.310  0.0156  0.1196  0.0954
 5430W        W18844   6.955   4.893  16.366  0.2399  0.2646  0.2036
 5431W        W18845   4.857   6.145   2.661  0.2196  0.0394  0.1971
 5432W        W18846  13.280   7.769   1.768 -0.0316  0.2970  0.0192
 5433W        W18847   6.676   5.767  14.729  0.0621  0.2460  0.0838
 5434W        W18848  17.737   8.261   4.156  0.0497 -0.1880 -0.3829
 5435W        W18849   3.028  13.304   5.178  0.0130 -0.2845 -0.0456
 5436W        W18850  14.771   6.936  15.315 -0.2491  0.2369 -0.2110
 5437W        W18851   8.310  10.723   2.074  0.0703  0.0964  0.1324
 5438W        W18852  16.059  11.091  11.799 -0.2496 -0.1203 -0.2169
 5439W        W18853  12.651   9.442  15.677  0.0561 -0.1486 -0.2543
 5440W        W18854  10.005  15.595  14.231 -0.2114  0.3096  0.0868
 5441W        W18855   9.294  15.507  13.485  0.0218 -0.4057 -0.0274
 5442W        W18856   6.795  16.777   0.850  0.1210  0.2539 -0.0099
 5443W        W18857   3.939  17.749   3.970  0.5012  0.0047  0.1184
 5444W        W18858  10.353   7.230   5.361  0.1654 -0.1877  0.0733
 5445W        W18859  11.744   0.989  14.076 -0.0551  0.0110  0.1887
 5446W        W18860   8.356   2.366   4.176 -0.1169  0.1957 -0.0934
 5447W        W18861   2.735  13.700  12.266 -0.1036  0.2350  0.0644
 5448W        W18862   4.139  13.561   4.453 -0.0347 -0.0179 -0.1238
 5449W        W18863   0.475   3.796  10.845 -0.1375  0.0810 -0.1189
 5450W        W18864  13.091   6.939   2.719 -0.0235  0.1015  0.0718
 5451W        W18865   7.934   9.192  11.733 -0.3114 -0.0925  0.1695
 5452W        W18866  14.389  18.186   1.473 -0.0819  0.1165  0.0185
 5453W        W18867   7.450  14.021  11.015  0.0849  0.0766 -0.2065
 5454W        W18868   8.680  12.116  13.957  0.1401  0.2377 -0.0954
 5455W        W18869   8.409   4.141   4.458  0.3456 -0.2883 -0.1782
 5456W        W18870   1.350   0.011   4.780  0.2544  0.0992 -0.0614
 5457W        W18871   0.877  17.922   2.601  0.1236 -0.1155  0.2098
 5458W        W18872  17.672  15.674   4.419  0.0273  0.0266  0.0672
 5459W        W18873  10.532  17.999   5.312  0.1641  0.2348  0.1078
 5460W        W18874  10.455   4.870   2.003  0.1792 -0.1910  0.0782
 5461W        W18875   1.364   1.795   3.872  0.1391  0.2156 -0.0261
 5462W        W18876   9.371   1.249   0.263  0.0506 -0.3296 -0.2063
 5463W        W18877   4.116  10.687   5.303  0.0803 -0.1562  0.0614
 5464W        W18878   9.068   2.649  14.793  0.5085  0.0632 -0.0412
 5465W        W18879  12.322   1.276   3.253  0.0456  0.0526 -0.4516
 5466W        W18880   2.559  12.062   4.832  0.0187 -0.0482  0.1778
 5467W        W18881  14.760  16.942  16.273  0.0477  0.3148 -0.1266
 5468W        W18882  15.851   9.057   3.894  0.0434 -0.0527  0.1209
 5469W        W18883   8.275  13.611  10.581  0.1365 -0.5896  0.1488
 5470W        W18884   9.141  14.412  12.733 -0.3007 -0.0120  0.0056
 5471W        W18885  14.441  13.033  10.738  0.3016 -0.0208  0.1177
 5472W        W18886   1.693   8.821  12.809  0.0449 -0.1087 -0.0986
 5473W        W18887  10.568   0.183   6.926  0.2579  0.2904 -0.0863
 5474W        W18888   7.563   3.190  13.327 -0.2226 -0.0137  0.0024
 5475W        W18889  12.419  16.605   1.343  0.0095  0.3042  0.2284
 5476W        W18890   8.714   8.346  14.988 -0.1701  0.1634  0.1943
 5477W        W18891  11.201   2.642   2.232 -0.1177 -0.1186  0.2594
 5478W        W18892  13.997   1.114   4.074 -0.2060 -0.1158  0.1676
 5479W        W18893  10.831   4.992  14.324  0.2102 -0.1684  0.0899
 5480W        W18894   8.995   1.179   6.200  0.0693  0.1898 -0.0892
 5481W        W18895   1.387  17.771   6.034 -0.2193 -0.0305  0.0581
 5482W        W18896  17.688  13.264  13.350  0.0466 -0.0787  0.0083
 5483W        W18897  15.372   1.122   3.787 -0.0202  0.0329  0.2750
 5484W        W18898  12.108  17.621   3.527  0.2339  0.0717 -0.1054
 5485W        W18899   8.668  12.762  10.935  0.1084 -0.2825 -0.3606
 5486W        W18900  14.133   3.848  15.598 -0.3645 -0.1045  0.2014
 5487W        W18901   2.725  14.725  13.961 -0.1169 -0.4106  0.1250
 5488W        W18902   3.319   3.168  10.493 -0.1176  0.1330 -0.1130
 5489W        W18903  10.835   0.815  12.578  0.1953  0.1776  0.2322
 5490W        W18904  11.364   0.771  12.435  0.2999  0.0053  0.1311
 5491W        W18905   7.022  10.063  10.751 -0.2894 -0.0163 -0.2744
 5492W        W18906  13.159  15.561  15.958  0.2695 -0.1725 -0.0157
 5493W        W18907   2.106   4.452   3.187 -0.2501  0.0079 -0.0053
 5494W        W18908  13.054  11.181   3.653  0.0817  0.2298 -0.1483
 5495W        W18909  11.492  16.152   0.660 -0.0172 -0.1821  0.0849
 5496W        W18910  17.385  10.650  12.085 -0.0601 -0.1153 -0.2866
 5497W        W18911  15.384   5.132   4.435  0.0368 -0.0271  0.1225
 5498W        W18912  16.116  12.979   5.858  0.1857 -0.1978 -0.1639
 5499W        W18913  14.607   1.141   3.204 -0.0317 -0.0256  0.0483
 5500W        W18914  11.922   5.678   1.892  0.3262  0.0774 -0.1073
 5501W        W18915   4.189  10.554  11.616 -0.1816  0.3058 -0.1546
 5502W        W18916  18.283   7.847   3.008  0.1052 -0.1448  0.0402
 5503W        W18917   4.296   8.778  11.780  0.2964 -0.0815  0.3275
 5504W        W18918  11.200  13.971  13.450  0.3281 -0.2612 -0.0570
 5505W        W18919   1.266   7.297   5.847  0.1315  0.1824 -0.1324
 5506W        W18920  10.735  15.178  13.784  0.2039 -0.1317 -0.2247
 5507W        W18921  16.405   5.584  10.452 -0.2168  0.1428 -0.0881
 5508W        W18922   0.048  13.388  15.572  0.2529  0.1263  0.0994
 5509W        W18923  11.136   2.209   3.144 -0.0257  0.2288  0.1979
 5510W        W18924   7.971  17.869  16.016  0.1718 -0.2122  0.1371
 5511W        W18925   7.344  16.649   5.038  0.1034 -0.0661  0.0379
 5512W        W18926  13.959   5.145   3.430  0.2097  0.1560  0.1214
 5513W        W18927   9.501  16.866  15.072  0.2275  0.0440 -0.1743
 5514W        W18928   1.856  12.598   3.819 -0.1927  0.1965 -0.1472
 5515W        W18929  14.153  13.325   2.931  0.2122 -0.1639  0.0647
 5516W        W18930  12.950   1.122  14.497  0.0127  0.0668  0.1039
 5517W        W18931  17.777   4.438   0.174 -0.0611  0.0359 -0.0259
 5518W        W18932   9.195   7.304  16.478  0.0059 -0.1714  0.1928
 5519W        W18933  12.540   8.997   3.636 -0.0438  0.0082 -0.1210
 5520W        W18934   5.908  15.259   5.097  0.1872 -0.2483  0.0702
 5521W        W18935   1.142   1.750   5.128  0.4454 -0.0029  0.1117
 5522W        W18936   8.459   9.484  11.919 -0.2047 -0.3696 -0.1479
 5523W        W18937   0.207  12.075   1.305 -0.1028 -0.1773 -0.0794
 5524W        W18938   3.931  12.051   4.670  0.0321  0.3899  0.1729
 5525W        W18939   5.933   5.057  13.173 -0.2516 -0.3200 -0.0778
 5526W        W18940   1.670  12.046   1.813  0.2803  0.2696  0.2446
 5527W        W18941   8.927  11.745   5.339  0.0797  0.0219  0.2069
 5528W        W18942   2.391   7.895   0.660 -0.0738  0.0869  0.1231
 5529W        W18943   8.614  13.501   0.526 -0.1097  0.1713  0.1999
 5530W        W18944   2.255  12.701   4.095  0.2932 -0.2920  0.1774
 5531W        W18945   9.359  10.183   3.569 -0.0947 -0.0628 -0.3852
 5532W        W18946   0.348   5.766   2.349 -0.1205  0.2032  0.2089
 5533W        W18947  15.766  16.307   0.616 -0.3838 -0.0079 -0.0793
 5534W        W18948   6.982   3.982  15.257  0.2625  0.2607 -0.2148
 5535W        W18949   2.139  14.707  11.985  0.0189 -0.0763 -0.1829
 5536W        W18950  11.685  15.508  13.305 -0.2540 -0.1679 -0.0067
 5537W        W18951  13.050  10.358   3.080  0.1279  0.1926  0.3397
 5538W        W18952  13.113   8.532  13.414  0.1900 -0.0604  0.1545
 5539W        W18953   0.093   2.043   5.885  0.1542 -0.1955 -0.2013
 5540W        W18954   8.013  11.242  14.525  0.1410 -0.0184 -0.3160
 5541W        W18955   1.502   6.203   3.831  0.1478  0.0859 -0.2271
 5542W        W18956  16.420  14.731   5.486  0.1514 -0.1487 -0.2526
 5543W        W18957   3.158  18.043   5.728 -0.2682 -0.0960  0.2410
 5544W        W18958  16.268  16.838  15.161  0.0190  0.0374  0.0410
 5545W        W18959   1.616   3.148   0.983  0.0288 -0.1076  0.0062
 5546W        W18960   4.377   0.379   1.695 -0.4447  0.0065 -0.0072
 5547W        W18961   1.632  13.033   3.945  0.3019 -0.0535 -0.0154
 5548W        W18962  14.832  17.472   0.467 -0.5009 -0.1787  0.1677
 5549W        W18963  13.113   9.179  11.462 -0.2500 -0.1562  0.0667
 5550W        W18964   6.660   0.591  13.661 -0.0114  0.0521 -0.0474
 5551W        W18965   4.091   9.389   6.001  0.1255  0.0115  0.2034
 5552W        W18966  15.518   0.924  10.313  0.1608  0.1986  0.2046
 5553W        W18967  12.916   0.391   1.661  0.1554  0.1895 -0.1312
 5554W        W18968  15.881   2.065  15.475  0.0948 -0.3658 -0.2322
 5555W        W18969   8.493   2.193  12.247 -0.2288  0.1848 -0.1869
 5556W        W18970  15.112   8.519  15.143  0.1477 -0.2141 -0.0013
 5557W        W18971  13.195  14.649  11.968  0.2687 -0.1922 -0.0970
 5558W        W18972  10.665  12.427  15.282 -0.2414 -0.0019  0.1313
 5559W        W18973   6.069   9.890  13.897 -0.0309  0.1990 -0.4099
 5560W        W18974  17.645   0.510   1.877 -0.0042  0.1395  0.0914
 5561W        W18975  13.234  13.109  10.607 -0.0538 -0.0495 -0.1094
 5562W        W18976   0.656   6.339  10.203  0.1497  0.0879  0.3269
 5563W        W18977   4.092   3.197  14.688 -0.0115 -0.0723 -0.0422
 5564W        W18978   4.576   3.092   0.839 -0.0473  0.0417  0.0691
 5565W        W18979   8.162  10.286   0.968 -0.4673 -0.3025 -0.3107
 5566W        W18980  15.348   9.968   0.857  0.0213  0.0529  0.0702
 5567W        W18981  11.685   2.745  12.184 -0.0429  0.2223 -0.1454
 5568W        W18982   0.484   5.455  10.782  0.2890  0.2499  0.0735
 5569W        W18983   2.959   2.852  11.765  0.0559 -0.0740 -0.2560
 5570W        W18984   4.020  18.067  11.810  0.2242  0.0667 -0.2637
 5571W        W18985  12.507   0.431   4.578  0.0269 -0.0477  0.1898
 5572W        W18986   6.419  17.965  15.798 -0.2427 -0.2614 -0.1789
 5573W        W18987   4.604   8.777  11.375 -0.3416 -0.0845 -0.0427
 5574W        W18988   0.161   2.378   0.878  0.0910  0.1455  0.3058
 5575W        W18989   5.350   2.955   5.254 -0.0405 -0.1694  0.0677
 5576W        W18990  16.817  15.124   1.487 -0.0209  0.0139 -0.0094
 5577W        W18991   5.024  16.706  13.125  0.0226  0.0831 -0.1172
 5578W        W18992  11.007  12.202  14.734  0.1502 -0.1744 -0.2309
 5579W        W18993  12.465  11.620  13.276  0.0882 -0.2279 -0.0879
 5580W        W18994   8.927   8.642  11.829  0.4552  0.2180  0.2933
 5581W        W18995   6.815   3.772  14.756 -0.1945 -0.0132 -0.0320
 5582W        W18996   1.186  13.830   3.576 -0.0090  0.0934  0.2035
 5583W        W18997  16.822  10.099   1.167 -0.2973 -0.1899  0.2586
 5584W        W18998   7.058   6.949   1.253 -0.1776  0.0857 -0.1643
 5585W        W18999  10.291   6.480  11.909 -0.0631 -0.0006 -0.0316
 5586W        W19000  17.216  15.707   0.427 -0.1344  0.1998 -0.4034
 5587W        W19001   5.707   0.115   4.258 -0.0038 -0.1205  0.0417
 5588W        W19002  10.135  14.076   1.496 -0.3838  0.1309  0.0224
 5589W        W19003   4.541  11.161   4.216  0.0418  0.0835 -0.0365
 5590W        W19004   0.028   6.196  13.395 -0.0286  0.1145 -0.2074
 5591W        W19005  13.352   4.735   1.914 -0.4670 -0.1079  0.2533
 5592W        W19006   5.688   1.244   4.198  0.0898 -0.0844 -0.0024
 5593W        W19007   3.627   7.588   4.653 -0.3592  0.1799 -0.1195
 5594W        W19008   2.147   8.879   2.935  0.1269 -0.0818 -0.2444
 5595W        W19009   5.239  12.993   5.995 -0.4988 -0.2996 -0.2018
 5596W        W19010   0.714   9.239  11.999 -0.0379 -0.0701  0.1743
 5597W        W19011  17.065   6.177   3.482 -0.0491 -0.0970 -0.1885
 5598W        W19012   1.765   7.650  14.088 -0.0644 -0.1267 -0.1204
 5599W        W19013  17.780   4.982  15.873  0.3031  0.0457  0.3461
 5600W        W19014   2.548   1.281   6.500  0.0760  0.2721 -0.1170
 5601W        W19015   3.014  14.630   3.823  0.3920 -0.2466 -0.0356
 5602W        W19016   9.136  16.101  15.047  0.0443 -0.3757  0.1890
 5603W        W19017  17.616   9.716  13.186  0.0882 -0.0164 -0.0341
 5604W        W19018   2.459   4.497   5.850 -0.0234 -0.3587 -0.1623
 5605W        W19019  13.902  13.446  15.582  0.0056  0.1215 -0.0379
 5606W        W19020  15.767  13.320  12.118 -0.1051 -0.0460 -0.0667
 5607W        W19021   6.914   9.483  14.366  0.1972  0.0408 -0.3140
 5608W        W19022   8.085   7.486   4.738  0.1885 -0.0156 -0.1368
 5609W        W19023  15.706  10.933  12.098  0.2062  0.0704  0.2958
 5610W        W19024  13.501  12.506   0.352  0.0472  0.1269  0.0660
 5611W        W19025  10.756  14.086   4.930 -0.4824  0.1598  0.1972
 5612W        W19026  17.535  12.876   5.183  0.0060 -0.1763  0.2507
 5613W        W19027   6.382  11.126   4.794 -0.0647 -0.1557  0.1526
 5614W        W19028   6.207   2.614   4.159 -0.0290  0.0823 -0.3342
 5615W        W19029   4.548   9.215   4.283  0.1220 -0.0272  0.3751
 5616W        W19030   1.527   2.969   2.392 -0.2295 -0.3090  0.2616
 5617W        W19031  14.014   4.545   0.361  0.2228  0.3627  0.0159
 5618W        W19032  11.106   3.951   2.298 -0.3107  0.1299  0.3240
 5619W        W19033  11.618   6.508   2.195 -0.2880 -0.0509  0.0454
 5620W        W19034  15.662  13.463   2.908  0.0016 -0.0389  0.0146
 5621W        W19035  12.471  13.654   0.340 -0.6386 -0.0461  0.0388
 5622W        W19036  11.584  14.615  16.217  0.2985 -0.1001  0.1666
 5623W        W19037   4.147   3.516   1.509 -0.1628  0.0977  0.2778
 5624W        W19038   6.801   4.532  11.167  0.1766  0.2883  0.0671
 5625W        W19039  15.223   8.244  10.147  0.2084  0.1453  0.0032
 5626W        W19040   7.888  16.352  15.467  0.0098 -0.0248  0.1618
 5627W        W19041  15.223   3.764   1.808  0.1402 -0.0087  0.1192
 5628W        W19042   1.750  12.172  14.625 -0.0165  0.0606 -0.2412
 5629W        W19043   7.778   5.574  14.821  0.1949  0.0877  0.0449
 5630W        W19044   4.243  12.459  12.657 -0.2562 -0.3022  0.1943
 5631W        W19045   2.994   8.843   2.411 -0.0792 -0.3159 -0.1971
 5632W        W19046  15.692  12.685   5.970 -0.1390  0.1481  0.1129
 5633W        W19047  14.737  11.473   4.525  0.4337  0.1763 -0.0291
 5634W        W19048  13.483  12.941   2.020 -0.1856  0.0446  0.4332
 5635W        W19049  10.448   9.767   2.555 -0.0604 -0.2761  0.0481
 5636W        W19050   9.252  17.602  11.529 -0.0208  0.0545 -0.0053
 5637W        W19051   9.866  14.179   0.021 -0.0566 -0.2028  0.0353
 5638W        W19052   1.099   4.687  14.488 -0.0625  0.1834 -0.1166
 5639W        W19053  17.972   9.934  15.308 -0.0456 -0.0523  0.4149
 5640W        W19054   8.288   1.201   3.733  0.1313  0.0347  0.0366
 5641W        W19055   5.589   2.114  14.527  0.0769  0.0184 -0.2010
 5642W        W19056   7.363  12.100   5.286  0.1321 -0.2906 -0.0058
 5643W        W19057   8.396   0.616   0.274 -0.0136 -0.0865  0.1185
 5644W        W19058  16.876   3.509   0.801 -0.2902  0.1903 -0.1826
 5645W        W19059  10.231   8.998  15.789  0.3209  0.0491  0.0462
 5646W        W19060   7.092   2.708   1.576  0.0901  0.0000  0.2424
 5647W        W19061   0.602  14.816   2.460 -0.0205  0.2248  0.4447
 5648W        W19062  10.196  11.617   0.621 -0.2343  0.4617 -0.0779
 5649W        W19063   3.866  10.083  11.468  0.1725  0.0710 -0.1220
 5650W        W19064  18.149   4.020   0.204 -0.2886  0.2441 -0.1230
 5651W        W19065   4.768  17.170   1.659 -0.1167 -0.1291  0.0589
 5652W        W19066   1.134  17.926   0.440 -0.0084  0.2843 -0.1770
 5653W        W19067   7.218  15.321  11.891  0.0950  0.0477  0.2174
 5654W        W19068   6.347   8.087   1.922 -0.2429 -0.0128  0.1800
 5655W        W19069  14.940   9.947  12.646 -0.2538 -0.0650  0.1357
 5656W        W19070   8.398  14.935  16.286 -0.2076  0.2226  0.0418
 5657W        W19071  16.984  15.715  12.069  0.2240 -0.1943  0.3009
 5658W        W19072  11.200  10.137   0.395 -0.0800 -0.1425  0.2150
 5659W        W19073   9.228   1.855   5.614  0.1311 -0.1121 -0.1898
 5660W        W19074   4.433   6.787  11.025 -0.1044 -0.1081  0.2889
 5661W        W19075  15.445  16.679  11.168  0.3074 -0.0944  0.0209
 5662W        W19076  12.626   2.041  15.535 -0.2446 -0.1018 -0.0612
 5663W        W19077  11.857   8.598   5.602 -0.0429 -0.0431 -0.0180
 5664W        W19078   6.250   2.035   5.584 -0.0032 -0.1353  0.1415
 5665W        W19079  17.279  10.292   2.493  0.1573  0.0962  0.1801
 5666W        W19080  17.426   5.576  12.993  0.0356  0.1729  0.2038
 5667W        W19081   6.013   1.210   6.651  0.0529  0.1444 -0.4292
 5668W        W19082   9.627   5.877   5.365 -0.0927 -0.2729  0.2389
 5669W        W19083   7.309  10.710   1.024 -0.1534  0.0289  0.1261
 5670W        W19084   3.204  12.297  11.829 -0.1000  0.1059 -0.2253
 5671W        W19085   5.344   1.903   4.916 -0.0845  0.1543  0.2132
 5672W        W19086  12.506   2.473  15.223 -0.0710 -0.1160  0.2980
 5673W        W19087  10.267   2.303   2.360  0.0443 -0.1871 -0.0580
 5674W        W19088   0.440  16.205  16.221 -0.0908 -0.0573  0.2886
 5675W        W19089   9.401  15.017   1.885 -0.0886 -0.0707  0.0600
 5676W        W19090  17.856   9.412   2.445 -0.1264  0.0610 -0.1002
 5677W        W19091  10.706   4.527  15.608 -0.1036 -0.0262 -0.1182
 5678W        W19092  17.312   3.070  13.194  0.2867  0.0345  0.1037
 5679W        W19093   3.977  11.217  14.919 -0.3718  0.1926  0.2963
 5680W        W19094   0.262   7.486   5.047  0.0693 -0.2009  0.0414
 5681W        W19095  13.419   1.402   5.163 -0.1399  0.0180 -0.0734
 5682W        W19096   4.622  15.158  16.360  0.0299 -0.2083  0.0871
 5683W        W19097  17.278   2.482  16.180 -0.2659  0.3837 -0.0544
 5684W        W19098  16.548   9.556   0.083 -0.0871 -0.0042 -0.0118
 5685W        W19099   1.862  11.814  11.996  0.0025  0.0435 -0.0930
 5686W        W19100   6.129   5.916   0.345 -0.0064  0.0715 -0.0972
 5687W        W19101   5.465   1.760   2.670 -0.2008  0.0126 -0.0235
 5688W        W19102   3.327   6.827  15.753 -0.1346  0.0310 -0.3066
 5689W        W19103  13.980  18.021  14.968  0.1455  0.0706  0.0316
 5690W        W19104   4.042   1.688  13.724  0.0857 -0.0189  0.4219
 5691W        W19105   3.712  17.142   4.593 -0.1279 -0.1102 -0.0829
 5692W        W19106  17.421  13.100  15.346  0.1757 -0.0357  0.1163
 5693W        W19107   5.813   2.958  16.081  0.0452  0.0299 -0.3212
 5694W        W19108  12.120   5.143  10.894  0.1300  0.3347  0.2675
 5695W        W19109  12.256  12.184   1.722 -0.3081  0.0741  0.1226
 5696W        W19110   2.484   9.161   3.699 -0.1644 -0.0873 -0.0987
 5697W        W19111   7.830   5.414  15.652  0.0425  0.1277  0.3404
 5698W        W19112  12.985  14.212   6.362  0.1206 -0.2928 -0.0765
 5699W        W19113  10.120   9.395  13.082 -0.0274 -0.0207  0.1224
 5700W        W19114  11.802   2.079  15.447  0.1766 -0.3758 -0.0723
 5701W        W19115  17.221   0.546  14.003  0.2106 -0.0431 -0.3072
 5702W        W19116   5.418   1.199  11.437 -0.0801 -0.2027 -0.2375
 5703W        W19117  14.515   4.550   0.167  0.2562 -0.1495 -0.3114
 5704W        W19118   9.636  10.451   0.231  0.1816 -0.0823  0.1648
 5705W        W19119  10.331   2.638  11.562 -0.1373 -0.4028  0.0195
 5706W        W19120  11.001  14.653   1.993 -0.1830  0.1624 -0.2190
 5707W        W19121   9.809  10.896  15.987  0.1233 -0.5491 -0.0008
 5708W        W19122   2.592  13.794   2.201  0.3652  0.0349  0.1288
 5709W        W19123   9.225  16.162  13.433 -0.1199  0.2396 -0.1089
 5710W        W19124   0.950   0.598   1.478  0.1538  0.2133 -0.1027
 5711W        W19125   0.335  11.659   4.099 -0.0533 -0.1174  0.0870
 5712W        W19126   5.886   0.112  13.748 -0.1077  0.5207 -0.2214
 5713W        W19127   4.866   8.927   0.135 -0.1836  0.2202 -0.0523
 5714W        W19128   3.474   6.207   2.560 -0.0251  0.1138 -0.0342
 5715W        W19129  14.689   9.865  16.278  0.0431  0.2806  0.1057
 5716W        W19130  12.293  17.644  15.223 -0.0910 -0.2933  0.3266
 5717W        W19131  18.273   7.449  11.997 -0.0353  0.0280 -0.0341
 5718W        W19132  15.230  17.175  12.593 -0.0929  0.2807 -0.0935
 5719W        W19133  10.013  17.343   1.507  0.0542 -0.3464 -0.0501
 5720W        W19134   4.649  10.954   0.831 -0.1608 -0.1887  0.2088
 5721W        W19135   0.917   6.010  15.937 -0.0270  0.1102 -0.0678
 5722W        W19136   7.899   2.479   3.355  0.0447  0.0220 -0.0142
 5723W        W19137   7.780  17.923   6.248  0.1224  0.1526 -0.0659
 5724W        W19138  17.391   3.910  13.952 -0.2571 -0.3640  0.3934
 5725W        W19139  13.655  12.984   0.288 -0.0009  0.2925 -0.1702
 5726W        W19140  15.593   7.114   2.857  0.1919 -0.2631 -0.0792
 5727W        W19141  13.663  14.463  16.383  0.0801  0.2720 -0.1195
 5728W        W19142  14.162  16.163   2.072 -0.1080 -0.0906  0.0205
 5729W        W19143  10.997   6.352   6.114  0.0252 -0.2177 -0.0153
 5730W        W19144  17.429   1.290  13.506  0.2761  0.1368  0.1302
 5731W        W19145   4.487   4.470  14.042  0.3339 -0.1976 -0.0285
 5732W        W19146   1.560   3.832  14.136  0.0484  0.1630  0.1806
 5733W        W19147  13.771  10.003  11.669  0.0873  0.0057 -0.0311
 5734W        W19148   0.004   0.672  12.610  0.0231  0.2067 -0.0297
 5735W        W19149  17.779   2.171   3.324  0.0380 -0.1097 -0.0533
 5736W        W19150   4.389   4.588   1.497  0.0722  0.2510  0.2322
 5737W        W19151   9.656   4.496  15.861 -0.2824 -0.2286  0.1855
 5738W        W19152   8.262  12.454   1.869 -0.3055 -0.3970 -0.2404
 5739W        W19153  11.488   2.393  12.455  0.2288  0.2626  0.0599
 5740W        W19154  15.956  11.907   3.272 -0.4338  0.1804 -0.1260
 5741W        W19155  16.523   0.961   6.257 -0.0721 -0.1582 -0.1302
 5742W        W19156   5.249   4.354   1.627 -0.1063  0.0891  0.1510
 5743W        W19157  12.167   2.342   5.993 -0.1861 -0.3413  0.0898
 5744W        W19158  16.091   8.598   5.069 -0.1471  0.0313 -0.2977
 5745W        W19159  14.535   9.149  10.002  0.3073 -0.2301  0.0020
 5746W        W19160  12.940   1.243   5.207  0.2731 -0.0507  0.0496
 5747W        W19161  10.540  10.754   3.681  0.2757  0.3444  0.0943
 5748W        W19162  17.787  14.265   4.839 -0.0825  0.0412 -0.0258
 5749W        W19163   1.303  13.002   0.976 -0.1321 -0.0457  0.2424
 5750W        W19164  12.343  16.480  14.467 -0.0832  0.0619  0.2796
 5751W        W19165  12.795   0.360  13.840  0.0073 -0.1406  0.3145
 5752W        W19166   0.668   5.439  15.187 -0.1148 -0.0681  0.1776
 5753W        W19167   7.897   9.583  15.998  0.0281 -0.0301  0.1629
 5754W        W19168  13.220  18.021  13.158 -0.3103 -0.0794 -0.0942
 5755W        W19169  13.788  16.832  14.107 -0.0761  0.0289 -0.2994
 5756W        W19170   0.992   9.332  16.217  0.4625 -0.1481  0.2139
 5757W        W19171  14.199   8.008   0.230  0.0723 -0.0551  0.1510
 5758W        W19172  15.495   0.325  11.114  0.0728 -0.1627 -0.2460
 5759W        W19173  12.774   7.263   1.197 -0.1099 -0.5535 -0.1821
 5760W        W19174  15.701   9.825   4.561 -0.4899 -0.1269 -0.0434
 5761W        W19175   4.084   6.724   4.902  0.0372  0.0311  0.1758
 5762W        W19176  10.357   3.307   3.260 -0.3311  0.1883  0.0607
 5763W        W19177   1.790  17.381  15.368  0.2133  0.0361  0.2250
 5764W        W19178   6.412  10.944  10.833 -0.1598  0.3207 -0.1475
 5765W        W19179  12.841   0.167  15.446  0.0405 -0.2848  0.1244
 5766W        W19180   5.261   1.249  16.421 -0.2153 -0.0045 -0.0001
 5767W        W19181  18.243   4.424   4.097  0.1559  0.1472 -0.2072
 5768W        W19182  11.507  17.103   3.361 -0.0280  0.0161  0.0672
 5769W        W19183   4.018  14.925  15.762  0.3421 -0.3169  0.2603
 5770W        W19184   5.158   9.186  15.233 -0.2340  0.0541  0.1546
 5771W        W19185   5.755   1.296   5.337 -0.1807  0.0289  0.1567
 5772W        W19186  14.744   9.867  11.207  0.0627 -0.1644  0.0668
 5773W        W19187  11.377   1.856   0.663  0.0959  0.3016 -0.1739
 5774W        W19188  12.506   2.563   4.368  0.2149 -0.0443  0.4822
 5775W        W19189  11.705  14.843  12.461 -0.0173 -0.3326 -0.1788
 5776W        W19190  14.988   9.131  16.409 -0.3941 -0.0054 -0.1589
 5777W        W19191   0.916   6.445   4.509 -0.2898 -0.1891 -0.1725
 5778W        W19192  14.138   5.138   2.924 -0.1850  0.1225  0.1333
 5779W        W19193   0.583   8.033   5.005 -0.0453 -0.1142  0.3255
 5780W        W19194  13.315   3.092   4.154 -0.0615  0.1273 -0.1030
 5781W        W19195  17.739  16.952   1.875  0.2966  0.0465 -0.0352
 5782W        W19196   1.361   8.628  14.608  0.0599  0.0296  0.0136
 5783W        W19197  11.498   2.512   4.127 -0.1156  0.0657 -0.0591
 5784W        W19198   4.424  15.281  13.908 -0.1967  0.2376 -0.3203
 5785W        W19199   1.764   2.052  14.628 -0.2108  0.0941 -0.1594
 5786W        W19200   6.803   0.510   0.485  0.0231 -0.0859  0.0515
 5787W        W19201   9.567  18.121  15.790 -0.1406 -0.0327  0.1099
 5788W        W19202  12.736   9.829   5.740  0.1629 -0.1974  0.0646
 5789W        W19203  11.143  10.185   1.885  0.3352  0.0431  0.1790
 5790W        W19204   1.946   1.261  10.813  0.2057  0.1549  0.1489
 5791W        W19205  11.202   7.263  15.146 -0.0149  0.1735 -0.1114
 5792W        W19206  17.719   3.207  14.471 -0.0945  0.3236  0.0512
 5793W        W19207   6.020   0.059   0.223 -0.0795  0.0394 -0.2018
 5794W        W19208  10.882   0.801  13.532  0.2114  0.0248  0.1071
 5795W        W19209   8.122   0.870  12.118  0.3821  0.0092  0.0113
 5796W        W19210   4.791  11.565  13.064  0.1221 -0.0580  0.0512
 5797W        W19211  14.724   8.984   1.723  0.0599 -0.2765  0.0453
 5798W        W19212  11.675   0.143   2.996 -0.2353  0.1468 -0.0551
 5799W        W19213  16.969  12.664   0.732 -0.1644 -0.2283 -0.1116
 5800W        W19214  13.563   6.999   1.511  0.0837 -0.1018  0.1453
 5801W        W19215   5.681  14.209  14.998  0.0203  0.0099  0.0568
 5802W        W19216  12.268   5.224  15.325  0.1152  0.2741 -0.0776
 5803W        W19217  10.119  16.621  10.802 -0.0067 -0.2911  0.1070
 5804W        W19218   2.961   5.370  14.088  0.2896  0.4287  0.1326
 5805W        W19219   7.819  15.950   4.608  0.1908  0.2191  0.0926
 5806W        W19220  14.501   6.873  14.202 -0.0060  0.2766 -0.0480
 5807W        W19221   7.159   1.399  15.079  0.1953 -0.0701  0.2112
 5808W        W19222  10.583   5.915  11.251  0.1045 -0.1462  0.3572
 5809W        W19223  12.525  12.917  11.287 -0.0596  0.0538  0.2211
 5810W        W19224   0.845  15.357  16.222  0.3244 -0.1617  0.4076
 5811W        W19225   6.081   5.110  14.883  0.0213  0.1803 -0.3155
 5812W        W19226   6.794   6.629  14.809  0.2062  0.0814  0.0880
 5813W        W19227   5.205  18.040  13.071  0.1456 -0.0757  0.1348
 5814W        W19228  11.704   5.529  14.389  0.2076  0.3262 -0.3315
 5815W        W19229   8.420   1.528   0.066  0.0327  0.1879 -0.2060
 5816W        W19230   9.871   1.402  11.237 -0.2990 -0.0152  0.1144
 5817W        W19231   1.979  11.256  14.805 -0.4082 -0.3362 -0.3237
 5818W        W19232   5.128  14.754   4.659  0.2726  0.0221  0.0500
 5819W        W19233  14.321   3.299  11.994 -0.2194 -0.0057 -0.1863
 5820W        W19234  10.395   5.712   2.248 -0.2879 -0.1971  0.0872
 5821W        W19235  10.201   2.152   1.400 -0.0171 -0.0168  0.2598
 5822W        W19236   8.414  13.980   0.956  0.2058  0.1124  0.1471
 5823W        W19237  18.276  13.624  14.515 -0.1614 -0.2918  0.1938
 5824W        W19238  14.413   4.142  11.642 -0.0839  0.3460 -0.1798
 5825W        W19239  14.420   5.673  14.823 -0.4194  0.0128  0.1548
 5826W        W19240   9.976   5.238   4.027 -0.0145 -0.0166 -0.2075
 5827W        W19241  17.820  12.583   1.061 -0.0776  0.3427 -0.2170
 5828W        W19242   3.969   4.078   0.470  0.2138 -0.0445  0.1872
 5829W        W19243  16.164  11.771   5.302 -0.0119  0.0476 -0.1229
 5830W        W19244   9.956  14.631   5.858 -0.0063 -0.2154  0.0543
 5831W        W19245   7.249   9.344  10.997 -0.3295  0.0875 -0.1041
 5832W        W19246  15.756  17.749  11.842  0.2639 -0.0354  0.2021
 5833W        W19247  10.106  14.164  12.518  0.0511  0.2801  0.1299
 5834W        W19248  10.443  18.172   6.389  0.0134  0.0941  0.2084
 5835W        W19249  11.942  13.080  13.470  0.3039 -0.3755  0.1533
 5836W        W19250  13.051   1.175   2.244 -0.0508  0.0332 -0.2704
 5837W        W19251   0.521  10.114   2.359 -0.1555 -0.0832 -0.1490
 5838W        W19252   7.892  12.969  15.906 -0.0283 -0.0467  0.0853
 5839W        W19253   1.337   6.220   4.801 -0.1079 -0.0980 -0.0517
 5840W        W19254   2.114  10.016   0.229 -0.2741  0.2026  0.1048
 5841W        W19255   8.706   1.867  14.809 -0.0996  0.3303 -0.1156
 5842W        W19256   7.738  12.485  11.723  0.0086  0.4369 -0.2449
 5843W        W19257  11.122   5.886  11.932  0.0681  0.1397  0.2338
 5844W        W19258   9.137   1.083  16.343  0.5819  0.0725  0.2300
 5845W        W19259   5.284  13.178  11.518 -0.1594 -0.2415  0.1567
 5846W        W19260  15.223   2.703   5.114  0.3326  0.0601 -0.0279
 5847W        W19261  15.816   0.620   3.514  0.0411 -0.0212  0.0725
 5848W        W19262  11.761   1.031  14.648 -0.0917 -0.0808 -0.0177
 5849W        W19263   5.495   7.731   0.799  0.0168  0.1571  0.1208
 5850W        W19264  17.918  10.962  15.838  0.1362  0.1156  0.2423
 5851W        W19265  16.417   9.103  10.268 -0.1490  0.0277  0.1466
 5852W        W19266  10.326   4.895   5.164  0.2088  0.1524 -0.1152
 5853W        W19267   7.630   5.608  16.347 -0.1462  0.1596  0.1527
 5854W        W19268   0.568  16.383  11.402  0.0602  0.0468  0.1228
 5855W        W19269   7.734  15.913  14.669  0.0409 -0.2897  0.0658
 5856W        W19270  15.067  10.403   2.730  0.2631 -0.2359  0.4684
 5857W        W19271   9.112  16.996   2.764  0.1251 -0.2050 -0.0072
 5858W        W19272   7.054  10.330   0.800 -0.0080 -0.4795 -0.0451
 5859W        W19273   8.374   6.041  14.264  0.0814 -0.1073  0.0832
 5860W        W19274  12.500  15.369  16.552 -0.4771 -0.0305  0.0236
 5861W        W19275  17.871  14.656  13.312 -0.0391  0.4714  0.0709
 5862W        W19276  16.679   8.845  13.304 -0.0583  0.1888  0.2210
 5863W        W19277  16.126   4.544   0.100 -0.1219  0.1036  0.0140
 5864W        W19278  13.729   5.403  11.702  0.1855  0.3063 -0.2769
 5865W        W19279  17.664   3.869   4.636 -0.2328 -0.2176  0.3798
 5866W        W19280  13.307   3.788   4.410  0.0893  0.2403  0.0019
 5867W        W19281   7.410  16.308   4.626 -0.0430  0.3538  0.1105
 5868W        W19282   6.480  16.070   3.027  0.0757  0.1911  0.0006
 5869W        W19283   8.312   7.835  13.013 -0.1784 -0.1685 -0.0493
 5870W        W19284  11.960   3.833   4.351 -0.0137  0.0128  0.3938
 5871W        W19285  17.655   1.009  11.412  0.2513  0.1265 -0.1532
 5872W        W19286   5.557  12.582   3.722 -0.0940 -0.4876 -0.0218
 5873W        W19287   7.561   5.413  13.788  0.0455  0.0516 -0.0062
 5874W        W19288   5.602  18.199   3.736  0.0420 -0.3480  0.1479
 5875W        W19289  15.984   1.140  13.625  0.2602  0.1393 -0.0286
 5876W        W19290   0.880   3.383   4.077  0.0429 -0.1338 -0.0915
 5877W        W19291   6.366   4.628   2.049  0.1151 -0.1489 -0.1487
 5878W        W19292  12.021  17.809  12.761  0.0091  0.0778  0.2374
 5879W        W19293   0.969   1.073  11.844 -0.5254 -0.0495  0.2309
 5880W        W19294  12.852  10.908  12.183 -0.2042 -0.1459 -0.0803
 5881W        W19295  12.629  14.576   2.691 -0.1565 -0.3423  0.2926
 5882W        W19296   8.411   3.947  13.274  0.1899  0.1729 -0.2987
 5883W        W19297   0.608   6.916  13.788  0.2790  0.1325 -0.1482
 5884W        W19298   2.506   4.911  13.311  0.2148  0.0586 -0.1295
 5885W        W19299   2.230  15.666   1.431  0.0033 -0.1786  0.2734
 5886W        W19300   1.710  14.203  12.815 -0.0041  0.0873  0.1905
 5887W        W19301  15.399   8.126  13.716 -0.0119  0.0265  0.0963
 5888W        W19302   6.910   1.292   0.002  0.2238 -0.0872 -0.0455
 5889W        W19303  14.002  14.577   2.297 -0.1767 -0.0396 -0.2110
 5890W        W19304   9.091   4.278  13.598  0.3389 -0.0962  0.0287
 5891W        W19305  12.051   3.316  15.844  0.0251  0.2763  0.0977
 5892W        W19306   5.859   2.628  12.333 -0.0337  0.0477 -0.2180
 5893W        W19307  10.072  10.550  11.384 -0.2140 -0.2771  0.0118
 5894W        W19308  17.856   9.695   1.454  0.0341  0.1534 -0.0614
 5895W        W19309   3.280  10.555   2.632  0.0010  0.1771  0.2534
 5896W        W19310   2.155   3.925  11.778 -0.2770 -0.1697  0.1614
 5897W        W19311  12.362  13.467  12.061  0.1328 -0.0541  0.3683
 5898W        W19312  14.454   0.203   3.760  0.3081 -0.0443  0.0518
 5899W        W19313   8.567   9.498   2.127  0.5059  0.0161  0.0918
 5900W        W19314  11.047   1.638   0.375 -0.0208  0.1518 -0.3518
 5901W        W19315   3.464   0.176  12.034 -0.0415  0.2203  0.1568
 5902W        W19316   0.136   2.127  15.742  0.1497 -0.0282  0.1157
 5903W        W19317  10.864   9.819   1.578  0.0782  0.1075  0.0321
 5904W        W19318   7.069  14.866  16.462 -0.1330 -0.0028 -0.0418
 5905W        W19319   8.353  13.342   4.287 -0.0215  0.0348 -0.2517
 5906W        W19320   2.211   7.114  10.234  0.1027 -0.3399 -0.2267
 5907W        W19321   0.440  15.492   3.496  0.0423 -0.0073 -0.3453
 5908W        W19322   1.435  18.171  16.094 -0.1913  0.1121  0.1119
 5909W        W19323   7.142  11.293   4.387 -0.0280 -0.2990  0.0734
 5910W        W19324   3.852  16.773  14.354 -0.1401 -0.0069  0.0874
 5911W        W19325   1.270   8.998   1.719 -0.0833 -0.1229 -0.2130
 5912W        W19326   1.370  16.539   2.231 -0.1395 -0.2175  0.0824
 5913W        W19327   0.904   1.737   2.285 -0.0580 -0.3033 -0.2290
 5914W        W19328  11.417  16.050   2.652 -0.2251  0.3704 -0.3172
 5915W        W19329  13.505  16.661   0.006 -0.1331  0.4007  0.1421
 5916W        W19330   8.185   1.054   5.223  0.1574  0.3463 -0.0365
 5917W        W19331   5.442  17.212  16.110  0.1065  0.0222 -0.1548
 5918W        W19332  10.857  17.927  10.810  0.0346 -0.1428  0.0007
 5919W        W19333   3.280   1.538  12.078  0.2330  0.1577 -0.0282
 5920W        W19334   9.126  15.368   0.220 -0.1971 -0.0515 -0.0451
 5921W        W19335  15.095   0.882   4.959  0.0379 -0.2098  0.1008
 5922W        W19336   3.064   3.479   4.767 -0.0278 -0.1512 -0.0129
 5923W        W19337   1.676  14.144   1.192  0.1407  0.4360  0.0568
 5924W        W19338   8.444  17.073  16.508 -0.2584 -0.3881  0.1711
 5925W        W19339   8.778   2.131   4.206  0.0524 -0.0637 -0.3823
 5926W        W19340   6.521  16.750  11.971 -0.3570  0.1024  0.2380
 5927W        W19341   1.630  15.393   5.116  0.1053  0.0002  0.0507
 5928W        W19342   3.843   2.878  14.270  0.0883 -0.2509  0.1873
 5929W        W19343   0.452  13.073   4.479 -0.0596  0.3546  0.2751
 5930W        W19344  16.108   8.055  10.433 -0.0688 -0.0257 -0.1213
 5931W        W19345   8.428   8.083  13.531  0.1277  0.0157 -0.0786
 5932W        W19346  17.740   9.695  14.105  0.1494  0.0558  0.1392
 5933W        W19347   6.783  15.314  13.159 -0.1021 -0.1320 -0.1122
 5934W        W19348  15.861   6.768  13.526  0.4641 -0.3298 -0.2418
 5935W        W19349   8.506   3.983   0.019  0.1629 -0.1490 -0.1583
 5936W        W19350  13.258  15.717   0.014  0.0197  0.0060 -0.2331
 5937W        W19351   4.446  16.308  11.593  0.2444 -0.1811  0.0330
 5938W        W19352  17.935  10.047  16.331 -0.3089  0.1551 -0.1333
 5939W        W19353   7.820   8.295  14.370  0.0315 -0.0058  0.1517
 5940W        W19354  11.674  15.476  15.562 -0.1014 -0.1679 -0.0787
 5941W        W19355   8.450  14.457  13.529 -0.0618 -0.0184 -0.1028
 5942W        W19356  17.301   7.994  10.862 -0.1708 -0.2894  0.0079
 5943W        W19357  16.052  10.982   2.096 -0.0126 -0.2038 -0.0068
 5944W        W19358  14.833  16.123  13.525  0.3095 -0.3213 -0.0066
 5945W        W19359   0.887   6.152  12.288 -0.3408  0.1965  0.1204
 5946W        W19360   8.146   0.155   0.148 -0.2320  0.0782  0.1520
 5947W        W19361   9.658   0.707   3.309  0.0117 -0.1368  0.0837
 5948W        W19362  14.352  18.056  13.986 -0.1357  0.3497  0.2188
 5949W        W19363   4.118  17.286   4.224  0.1844  0.3720  0.1185
 5950W        W19364   1.907  18.106  14.237  0.0929  0.0648 -0.2244
 5951W        W19365   7.173   8.354   0.630 -0.0748  0.0534  0.0379
 5952W        W19366  13.483   6.035   2.998 -0.1181 -0.0314 -0.0305
 5953W        W19367  13.373  11.574  11.301 -0.2322  0.0175 -0.2570
 5954W        W19368   9.400   9.934  10.702  0.0217  0.2021 -0.1103
 5955W        W19369   6.281  12.382  11.099 -0.0059  0.0236 -0.0234
 5956W        W19370   6.755   0.692   6.827  0.0167 -0.1706  0.0876
 5957W        W19371  16.983  10.889   6.629  0.2653 -0.1897 -0.4495
 5958W        W19372  10.740   6.115   4.561  0.0280  0.3959  0.1277
 5959W        W19373  11.793  13.584  13.919  0.1101 -0.0551  0.0023
 5960W        W19374  15.777  13.541  14.052  0.0620 -0.1121  0.1642
 5961W        W19375  16.566   1.609  10.965 -0.0043  0.0737 -0.0136
 5962W        W19376  11.422  10.631  11.362 -0.0858  0.2953 -0.0223
 5963W        W19377  11.795   2.904  13.059  0.0312 -0.1924 -0.0929
 5964W        W19378   0.663  15.835   2.577 -0.2110  0.0808  0.1249
 5965W        W19379  10.641  13.885  13.620 -0.1474 -0.0849  0.4449
 5966W        W19380   2.888   7.781  14.597  0.0589 -0.1337 -0.3132
 5967W        W19381   5.433   0.035  14.854  0.4241  0.1068  0.1638
 5968W        W19382   1.092  17.930   3.072 -0.1805 -0.2066 -0.3574
 5969W        W19383   6.445   8.848   5.772  0.0262  0.1464  0.0615
 5970W        W19384   5.295   1.032   4.601 -0.2007 -0.0159  0.0289
 5971W        W19385  12.772   5.598  13.625  0.1993 -0.1853  0.0246
 5972W        W19386  15.501  17.664  10.659  0.1168  0.0155  0.0939
 5973W        W19387   0.834   7.173   2.806  0.1636 -0.0433  0.0004
 5974W        W19388  13.095   6.887   1.397 -0.0568 -0.0104 -0.1901
 5975W        W19389   0.528  13.410   0.971  0.2605 -0.0671 -0.0105
 5976W        W19390   1.331   5.745  13.480 -0.0171  0.2319 -0.1199
 5977W        W19391  16.676   3.825   4.156 -0.0707  0.2756 -0.0738
 5978W        W19392  10.604  11.804   1.586 -0.3454  0.2643  0.1605
 5979W        W19393  13.042   8.553  11.513  0.1336 -0.0464 -0.0877
 5980W        W19394  14.466  12.715   3.360  0.1520 -0.0680 -0.1916
 5981W        W19395  15.478   2.889  15.835 -0.1575  0.0562  0.1229
 5982W        W19396  10.306   4.074  11.319 -0.2890 -0.0734  0.3022
 5983W        W19397  13.971   2.979   1.266 -0.2439 -0.0857  0.0564
 5984W        W19398   3.488  11.284   4.862  0.1394  0.2800  0.2639
 5985W        W19399  13.539  15.542   4.958  0.1923  0.3264 -0.1479
 5986W        W19400  11.475   8.147  14.656  0.2374  0.1294 -0.1622
 5987W        W19401   8.687   3.788  15.595  0.1308 -0.3440 -0.1316
 5988W        W19402   1.373   3.860  11.153 -0.2089  0.1087 -0.2820
 5989W        W19403   3.732   7.313  14.306  0.1473  0.0439  0.0398
 5990W        W19404  14.625  11.741  10.792 -0.1055  0.2468 -0.2970
 5991W        W19405   5.076   7.495  14.362 -0.2154  0.2126 -0.0202
 5992W        W19406   9.955  10.361  16.315  0.2798  0.1794 -0.5807
 5993W        W19407   6.126  14.356   1.352  0.4067  0.0651  0.3142
 5994W        W19408  16.521   2.996  15.974  0.2313 -0.2735 -0.1679
 5995W        W19409   3.824   8.815  11.740  0.4632  0.1110 -0.0269
 5996W        W19410  12.438  10.794  10.487 -0.0823 -0.3152 -0.1728
 5997W        W19411   5.461  11.382   2.568  0.0110  0.0952 -0.1331
 5998W        W19412  10.541   4.668  11.412 -0.2277 -0.3649  0.1618
 5999W        W19413  12.227  12.493  15.792 -0.0078  0.2935  0.0897
 6000W        W19414   7.712  14.753   5.365  0.2938 -0.3376 -0.0686
 6001W        W19415   3.045  14.612  11.228 -0.3388  0.0478 -0.1666
 6002W        W19416  11.261  10.619   4.528 -0.1161  0.3997  0.1535
 6003W        W19417   4.610   4.219   4.768 -0.0051  0.1226 -0.3971
 6004W        W19418   8.973  15.830  16.532 -0.2992 -0.0875 -0.0864
 6005W        W19419   2.780   2.889   3.688 -0.1894 -0.3552 -0.0639
 6006W        W19420   8.801   9.776  15.772  0.0131 -0.0939 -0.1208
 6007W        W19421  13.880   2.223   5.122  0.0298  0.2700 -0.2832
 6008W        W19422  15.898   6.098  16.398 -0.0123 -0.0541 -0.1316
 6009W        W19423  15.992  10.170  11.346  0.2021  0.3128 -0.0533
 6010W        W19424   5.541   6.723   3.833 -0.1204 -0.2519  0.1501
 6011W        W19425  16.469  12.273  12.400  0.1572 -0.3224  0.1252
 6012W        W19426   2.073  13.487  13.805 -0.2128  0.0685  0.0123
 6013W        W19427   0.141  17.420   6.407  0.0451 -0.0908  0.1428
 6014W        W19428  11.745  16.942   3.983  0.1419 -0.1482 -0.3647
 6015W        W19429   2.823  18.019  10.111 -0.0178  0.0249  0.0794
 6016W        W19430  10.268  15.919   4.995  0.2519 -0.0536 -0.0446
 6017W        W19431   4.036   6.285  13.495  0.2128  0.0089 -0.1441
 6018W        W19432  13.979   1.596   3.785  0.0158  0.0276 -0.0675
 6019W        W19433   8.941   9.538   2.541 -0.0425 -0.0998 -0.1388
 6020W        W19434  17.858  15.427  14.991 -0.0299 -0.0700 -0.0963
 6021W        W19435   7.544   6.156  16.449 -0.0790  0.2977  0.1061
 6022W        W19436   9.128   1.344  15.417 -0.0458  0.2040 -0.3454
 6023W        W19437  16.461   0.001  16.054  0.0329  0.2958 -0.0023
 6024W        W19438  14.169  12.384  11.089  0.0634 -0.0702  0.0258
 6025W        W19439   8.210  16.754  11.039  0.0370 -0.2525  0.2482
 6026W        W19440   2.583  10.818   1.544  0.2448 -0.0426 -0.0126
 6027W        W19441   3.661   4.868  13.004 -0.3633  0.0811  0.0688
 6028W        W19442   9.445  13.618  15.888  0.1712  0.0413 -0.4451
 6029W        W19443   8.198   8.577   9.791  0.1563 -0.1681  0.2879
 6030W        W19444  13.223  13.306   2.846  0.2501 -0.0302  0.1556
 6031W        W19445   8.929   9.934   5.074 -0.0930 -0.0505  0.1224
 6032W        W19446  14.451   8.601   0.685  0.0547  0.0071 -0.0404
 6033W        W19447  14.195  10.612   4.016 -0.4856 -0.0986  0.4140
 6034W        W19448   3.005  10.044   4.363 -0.0782 -0.0194  0.2711
 6035W        W19449   0.144   8.886  14.741 -0.2260  0.0547 -0.1704
 6036W        W19450  15.496  11.008  13.586 -0.0778  0.0187 -0.1291
 6037W        W19451   0.504   9.943   5.708  0.1490  0.0618  0.0420
 6038W        W19452  15.354  15.951   5.939 -0.1901  0.0045 -0.0864
 6039W        W19453   0.864  15.379   0.562  0.2831  0.1776  0.1092
 6040W        W19454  16.196   3.378  12.037  0.1220 -0.2528 -0.2282
 6041W        W19455   3.409   0.946   4.953 -0.2848 -0.1590 -0.4548
 6042W        W19456   7.525  11.679   0.672  0.1125 -0.0323 -0.0221
 6043W        W19457  12.067   2.477  13.103 -0.0384 -0.2203 -0.0287
 6044W        W19458   6.213   7.350  13.559  0.1861 -0.0156  0.1933
 6045W        W19459   1.260  13.372   0.541  0.0737  0.1323 -0.1766
 6046W        W19460   8.217   7.239   0.455  0.1717  0.1612  0.1081
 6047W        W19461  10.478   9.168   0.899  0.0881  0.2534  0.2266
 6048W        W19462  15.110   7.292   1.603 -0.0879 -0.0910  0.1513
 6049W        W19463  16.762   6.049  13.575 -0.0535 -0.0042  0.0142
 6050W        W19464   9.517  13.131  11.215 -0.1087  0.1722  0.2824
 6051W        W19465  13.338   2.259   0.893 -0.1996 -0.0397  0.1197
 6052W        W19466   3.300   9.325  15.834 -0.0004 -0.4970  0.0972
 6053W        W19467  11.772   6.181   1.865 -0.1855 -0.4495 -0.1654
 6054W        W19468   3.538   3.001  10.912  0.1378 -0.0904  0.1493
 6055W        W19469  15.584   4.743  16.385  0.0026 -0.0854  0.2077
 6056W        W19470   7.920   0.360   1.910  0.3993 -0.0408  0.0600
 6057W        W19471   1.084   7.109   0.644  0.0218 -0.1807  0.2568
 6058W        W19472  17.799  13.437  14.798 -0.1263  0.2958 -0.0782
 6059W        W19473   7.921   9.216  13.243 -0.1285 -0.0618 -0.1734
 6060W        W19474   3.588  16.998   1.930  0.2635 -0.2157  0.0002
 6061W        W19475  12.273   4.344  12.924  0.1830  0.1189 -0.0022
 6062W        W19476  14.189  12.905   2.581  0.0086  0.0068  0.1198
 6063W        W19477   7.373  11.927  14.582  0.0233  0.1022 -0.2528
 6064W        W19478   8.972  14.959  10.281 -0.1261  0.0780 -0.3556
 6065W        W19479  13.821   8.959  15.632 -0.0181 -0.0734 -0.1979
 6066W        W19480   2.027  12.368   1.148 -0.0929 -0.2505 -0.0070
 6067W        W19481  14.061  13.585   3.459  0.1235 -0.0841 -0.0628
 6068W        W19482  16.072   1.413   0.195 -0.2357  0.0538 -0.0376
 6069W        W19483   1.886  11.811   4.273  0.2400  0.4097 -0.0638
 6070W        W19484  17.598  13.674  15.910  0.1311  0.0200 -0.0041
 6071W        W19485   9.204   6.699   4.367  0.3343 -0.0438  0.0564
 6072W        W19486   7.574   8.045   5.784 -0.0004 -0.0853 -0.2311
 6073W        W19487  14.192   9.062   2.534 -0.0796 -0.0835 -0.0617
 6074W        W19488   3.149  15.993  12.158 -0.0720  0.1454  0.1731
 6075W        W19489  13.789   5.062   2.633 -0.4630 -0.0324 -0.0428
 6076W        W19490  16.013  15.906   0.442 -0.0928  0.0214 -0.2483
 6077W        W19491  13.114   3.320   1.737  0.1748 -0.0157 -0.1987
 6078W        W19492  13.299   5.374   3.707 -0.2335  0.4903  0.0997
 6079W        W19493   6.410   9.748  11.758  0.1084 -0.1115  0.1680
 6080W        W19494   2.012  12.947  11.752 -0.1250  0.3701  0.0514
 6081W        W19495   1.481   2.504  11.719  0.4181 -0.1074  0.0978
 6082W        W19496  11.010  17.238   3.138  0.2003  0.2457 -0.0558
 6083W        W19497  17.132  10.746   6.165  0.0111  0.1891 -0.1426
 6084W        W19498   4.803  11.873  11.015  0.1288  0.3525  0.2036
 6085W        W19499  12.547   8.523  15.539  0.2766 -0.2632  0.1594
 6086W        W19500  11.633  12.801   5.468  0.1157  0.0272  0.2078
 6087W        W19501   3.304   0.324  13.463  0.0619  0.1344 -0.0583
 6088W        W19502   8.593   9.018  11.860 -0.1801  0.0375  0.1806
 6089W        W19503  18.218  15.289   5.886  0.2884  0.4752  0.0761
 6090W        W19504   5.873  18.254  11.060  0.2555  0.0038  0.1839
 6091W        W19505   4.342  12.248   0.907  0.3256 -0.3485 -0.1411
 6092W        W19506  16.725   6.073   2.044  0.1042  0.0995 -0.1279
 6093W        W19507   4.827   8.018   3.135 -0.1551 -0.0091  0.2700
 6094W        W19508   5.213   9.715  12.115  0.1092  0.0583 -0.0382
 6095W        W19509   2.595   1.726  15.498  0.0447 -0.0254  0.0658
 6096W        W19510  10.716   2.469   1.502 -0.2617  0.1330 -0.3091
 6097W        W19511   2.362   7.987  12.046  0.1212  0.1828 -0.1622
 6098W        W19512  13.865   6.477  16.406  0.0433 -0.0052  0.0608
 6099W        W19513  14.891   8.986  12.811 -0.2247 -0.1484 -0.1312
 6100W        W19514   0.752   3.692  13.188 -0.2102  0.0227 -0.0940
 6101W        W19515   3.652   1.249  14.625  0.1222 -0.1165  0.0681
 6102W        W19516   2.221   2.977   3.336  0.0876 -0.2276 -0.3625
 6103W        W19517   6.698  13.324  11.244 -0.2521  0.0991 -0.0819
 6104W        W19518  12.742   8.059   9.615 -0.2282  0.1300  0.0857
 6105W        W19519   8.537   1.156  14.212 -0.1184 -0.0818  0.2050
 6106W        W19520   5.684  15.898   4.919 -0.0737  0.0481 -0.0404
 6107W        W19521   8.935   3.193  10.359  0.0954 -0.2352  0.2563
 6108W        W19522  10.014   0.392   0.849 -0.2072  0.2417  0.4133
 6109W        W19523   7.088   6.455   1.136  0.1726  0.1026  0.1005
 6110W        W19524  10.102   4.854   4.333  0.0763  0.4209  0.2006
 6111W        W19525   4.324  13.664   2.678  0.3456  0.0005 -0.0710
 6112W        W19526  15.528  15.724   0.354  0.0091  0.0987 -0.0991
 6113W        W19527  16.151   6.002   4.544  0.2872 -0.1453 -0.1294
 6114W        W19528  14.944   2.485   2.565 -0.3886  0.0207  0.2087
 6115W        W19529  11.801   6.657  13.435 -0.0017 -0.1539  0.3316
 6116W        W19530  14.003   2.668  16.111 -0.1045 -0.1587  0.1856
 6117W        W19531   3.326  14.676  14.299 -0.1076 -0.0505 -0.0637
 6118W        W19532  14.450   9.978   5.421  0.1255 -0.0586 -0.4947
 6119W        W19533   6.350   7.178   1.068  0.1481 -0.4265  0.2307
 6120W        W19534  17.295  12.212  11.396 -0.2079  0.1918 -0.1581
 6121W        W19535  13.262   8.776   0.391  0.0176 -0.1527  0.0428
 6122W        W19536  18.276  17.420   2.662  0.0343  0.3341  0.0860
 6123W        W19537   8.461  16.899  14.344  0.0835  0.1974 -0.2687
 6124W        W19538  11.771   4.019  11.479  0.1666  0.0960 -0.3104
 6125W        W19539   3.840   4.598  13.872 -0.4023 -0.1986 -0.0703
 6126W        W19540   0.609   3.608   3.630 -0.0768  0.0690 -0.1403
 6127W        W19541   5.458  10.447  12.756  0.1596 -0.0837 -0.4831
 6128W        W19542   1.844   7.922   0.397  0.0529  0.3005  0.0802
 6129W        W19543  11.089  15.834  11.030 -0.1205  0.3651  0.3503
 6130W        W19544   0.946  10.024  12.666 -0.1199  0.0282 -0.1041
 6131W        W19545  17.508  14.079  15.148  0.0733 -0.1354  0.0153
 6132W        W19546   3.486  10.947   0.715 -0.0127 -0.0404 -0.1797
 6133W        W19547   6.656  13.965   5.820  0.0058  0.0505  0.2774
 6134W        W19548   0.357   7.358  10.783 -0.1013  0.0759  0.0416
 6135W        W19549  12.361   8.020   3.152 -0.3792  0.1097  0.1218
 6136W        W19550   3.047  17.123  12.688  0.1758 -0.1171  0.0966
 6137W        W19551  18.161   4.551  15.807 -0.0928 -0.1263 -0.0933
 6138W        W19552  14.553   2.657  12.212 -0.4674  0.1672 -0.0003
 6139W        W19553   1.731   0.352   4.625 -0.0588 -0.0533 -0.0177
 6140W        W19554   2.779   8.120   0.319 -0.1110  0.0761  0.0342
 6141W        W19555  13.494   0.798  11.649  0.0739 -0.1479  0.0256
 6142W        W19556   0.880   2.421  14.632 -0.0226 -0.1109  0.2020
 6143W        W19557  11.861   3.316  14.392 -0.2004  0.0906  0.0487
 6144W        W19558   6.663  14.273   4.558  0.0126 -0.3172  0.2283
 6145W        W19559   4.602  14.769  13.689 -0.2315 -0.2559 -0.2388
 6146W        W19560  13.435  12.685  11.578 -0.0135 -0.3371  0.0451
 6147W        W19561   9.496   8.994   0.403 -0.1893  0.3399 -0.1160
 6148W        W19562   6.614   3.058  11.517  0.2154 -0.0263 -0.0159
 6149W        W19563  10.239   5.465   2.690 -0.1052  0.0684 -0.2680
 6150W        W19564   5.485  17.295  13.818 -0.0738 -0.1325 -0.0488
 6151W        W19565  16.146   6.614   5.818 -0.4378 -0.1574  0.0097
 6152W        W19566   2.528   4.248   0.309  0.0318 -0.0427  0.1020
 6153W        W19567   8.990   4.233   1.835 -0.0598  0.1344  0.3268
 6154W        W19568   1.691   4.356  13.575 -0.0610 -0.0867 -0.1413
 6155W        W19569  11.790   6.253  10.698 -0.0151 -0.2401  0.4353
 6156W        W19570   6.505   7.955  16.096 -0.1629 -0.3550 -0.2397
 6157W        W19571   0.002   6.566  15.497  0.1046 -0.0806 -0.1343
 6158W        W19572  15.177  14.782  14.832 -0.1467  0.0896 -0.0268
 6159W        W19573   6.983  12.370  12.525 -0.2823  0.3951 -0.0310
 6160W        W19574   4.679   2.937   5.872  0.0269  0.1063 -0.2347
 6161W        W19575  13.251  12.024  14.744  0.0736  0.1583  0.1963
 6162W        W19576   4.312  12.629  14.148 -0.1173  0.1586 -0.1727
 6163W        W19577  11.034  10.825   3.612  0.3359  0.2728 -0.1296
 6164W        W19578   0.933  11.337   0.371  0.0992  0.0486  0.1557
 6165W        W19579  16.415  12.190   0.296 -0.0859  0.3056 -0.3003
 6166W        W19580  16.780   0.736   0.018  0.1406  0.0438  0.0429
 6167W        W19581  11.005  13.127  15.149 -0.2375 -0.0946  0.0808
 6168W        W19582   0.949   6.931  15.847 -0.1428 -0.3338 -0.1709
 6169W        W19583  13.845   8.699   5.308  0.2126  0.0779  0.0166
 6170W        W19584  17.952   0.635   1.408  0.1295 -0.0495  0.0851
 6171W        W19585  15.906  10.621   0.238 -0.0841 -0.3242  0.1883
 6172W        W19586   4.249   5.620  15.525 -0.2080  0.1307 -0.0466
 6173W        W19587   4.967  14.047  10.175  0.0846 -0.2052 -0.0693
 6174W        W19588  18.237  16.366   0.964  0.0005 -0.1472 -0.0763
 6175W        W19589   6.683  16.244  12.933 -0.1009 -0.0149 -0.1554
 6176W        W19590   6.221   4.638  13.460 -0.0257  0.0806  0.2262
 6177W        W19591   1.295   8.085  16.398 -0.0272  0.1373  0.2687
 6178W        W19592  13.686  14.602  13.374 -0.0211 -0.1282  0.0450
 6179W        W19593   5.262  17.023  12.289 -0.0839  0.2679  0.0948
 6180W        W19594  14.025   7.641  11.458 -0.3631 -0.1966  0.3606
 6181W        W19595   4.483   8.799   4.863 -0.0534 -0.1155  0.2011
 6182W        W19596   2.026   6.219  15.342 -0.1046 -0.0195 -0.1988
 6183W        W19597   6.108  18.273  11.676 -0.0529 -0.4399  0.2131
 6184W        W19598  16.137   3.469  15.622  0.0741 -0.1764 -0.1732
 6185W        W19599  10.052   1.654   1.587  0.1252 -0.0154  0.2107
 6186W        W19600   6.517   6.482   4.151  0.0322 -0.3532 -0.1229
 6187W        W19601   6.224  13.727   5.623 -0.1202  0.1244  0.3745
 6188W        W19602   5.316  16.403   1.635 -0.0130 -0.1121  0.1372
 6189W        W19603  11.074   8.203   4.841 -0.1077  0.1077 -0.3674
 6190W        W19604   2.391  17.471  11.579 -0.1967  0.2703  0.2560
 6191W        W19605   8.599  15.939   3.540  0.0850  0.5105 -0.2957
 6192W        W19606  13.684   9.889  11.207 -0.1344 -0.0091 -0.0427
 6193W        W19607  11.603   8.514  12.737 -0.2167 -0.1260  0.0795
 6194W        W19608  11.213  14.957  11.458 -0.1275 -0.1343 -0.0302
 6195W        W19609   8.433   9.454   3.246 -0.1693 -0.2057  0.1941
 6196W        W19610   4.096  16.762   4.110 -0.0169 -0.3749 -0.1567
 6197W        W19611   5.520   3.773  14.257 -0.0311 -0.1682 -0.1261
 6198W        W19612   3.383   3.699  13.771 -0.1749  0.1911 -0.1005
 6199W        W19613   6.612   2.181   3.374 -0.1403 -0.2173  0.2595
 6200W        W19614   6.862   1.256   5.486 -0.0181 -0.0634  0.0090
 6201W        W19615   5.746   6.446  14.180  0.3415  0.0689  0.0918
 6202W        W19616   7.202  16.866  13.150  0.0703 -0.3190  0.0559
 6203W        W19617   0.796  10.028   1.168  0.0781 -0.2008  0.1450
 6204W        W19618   1.172   5.836   5.045 -0.0722 -0.1278  0.0273
 6205W        W19619   2.432  11.137   4.344  0.1926  0.1372 -0.0967
 6206W        W19620  10.921   7.541   2.434 -0.1498  0.6250 -0.1766
 6207W        W19621   6.960   9.376   5.318 -0.0204 -0.0969 -0.1275
 6208W        W19622  16.308   0.132  15.061 -0.0444 -0.2888 -0.0719
 6209W        W19623   3.899  11.288  11.882 -0.1440 -0.1975  0.0105
 6210W        W19624   3.722  11.275  14.517  0.0089  0.0970 -0.2097
 6211W        W19625  15.573  13.695  13.566 -0.0407 -0.1486 -0.0477
 6212W        W19626  11.735   8.614  11.866 -0.1284  0.0769 -0.0043
 6213W        W19627  11.860   0.735  15.455  0.1844 -0.1580  0.0466
 6214W        W19628   9.514   1.880   2.662  0.0654  0.2231  0.0967
 6215W        W19629  16.695   5.886   0.185 -0.0204 -0.0484 -0.0821
 6216W        W19630  15.199  15.021   4.186 -0.0207 -0.0997 -0.2743
 6217W        W19631   3.199  12.228   6.041  0.2956 -0.1056 -0.2480
 6218W        W19632  13.510   9.912   1.128 -0.1431 -0.2310 -0.1429
 6219W        W19633  10.420  17.012  16.521  0.1528 -0.1305 -0.0180
 6220W        W19634  15.218  13.568  14.943 -0.4246 -0.0013  0.0336
 6221W        W19635   9.336  10.737   5.000  0.1838 -0.1310  0.1457
 6222W        W19636   6.648  18.047  13.580 -0.4273 -0.1406  0.2882
 6223W        W19637   7.998   2.803   2.042 -0.2596  0.1004  0.2034
 6224W        W19638  12.764   7.551   0.321 -0.2677 -0.0285  0.0093
 6225W        W19639   0.414   7.521   2.327  0.0390  0.1967  0.3403
 6226W        W19640   3.487  17.445   6.393 -0.1197 -0.0272 -0.0538
 6227W        W19641   4.712   7.592  11.727 -0.0555 -0.3745 -0.1521
 6228W        W19642  14.976   7.038  13.565  0.0473  0.1357 -0.2306
 6229W        W19643   0.714  12.175  15.970  0.0804 -0.2414 -0.2665
 6230W        W19644   8.134  16.092   3.709  0.1285  0.1365  0.1464
 6231W        W19645  10.805   2.265  11.536  0.1568 -0.1362  0.1645
 6232W        W19646   5.483   7.696  14.178 -0.2518 -0.1248 -0.3214
 6233W        W19647  17.449  10.786  15.361  0.0174  0.1846  0.1366
 6234W        W19648   6.242  11.252   2.726  0.1128 -0.2946 -0.1606
 6235W        W19649   2.492   6.918  14.611 -0.0230 -0.2176  0.5162
 6236W        W19650   7.667   8.354   2.289  0.0099  0.1398  0.2688
 6237W        W19651  10.516   1.453   1.551 -0.1483  0.1521  0.0848
 6238W        W19652   3.467  11.924  12.888 -0.0705 -0.1181  0.0448
 6239W        W19653   8.485   6.094  12.329 -0.1327  0.2382  0.3184
 6240W        W19654   8.883  12.744   3.473  0.0997  0.0980  0.0419
 6241W        W19655   3.578  13.183  16.129 -0.1054 -0.0884  0.3655
 6242W        W19656   1.088  10.063  12.172 -0.3808  0.3316  0.1330
 6243W        W19657   8.208   3.650   5.548  0.4343  0.0138 -0.1984
 6244W        W19658   7.390   7.608   5.480 -0.1798 -0.0648 -0.3333
 6245W        W19659  16.526  10.974   2.904  0.1570  0.0563 -0.0916
 6246W        W19660   9.630  16.933  10.967  0.4183 -0.0163 -0.1825
 6247W        W19661   1.045  10.530  15.709  0.1097  0.0314  0.5946
 6248W        W19662  17.054   1.842  11.026  0.3312 -0.1368 -0.0100
 6249W        W19663  10.831   2.413   5.708  0.3469  0.1239  0.2148
 6250W        W19664  18.195   9.618  16.546  0.0833 -0.0074  0.0717
 6251W        W19665   0.117  13.780   5.188 -0.1626 -0.0138  0.3613
 6252W        W19666   1.340   1.983   2.368  0.0746  0.1881  0.3752
 6253W        W19667   7.902   1.685  14.122  0.0397 -0.0391  0.4328
 6254W        W19668  17.857   2.732  14.208  0.1888  0.1392 -0.0614
 6255W        W19669  12.219   7.712   1.627 -0.3876  0.2063  0.1488
 6256W        W19670   8.052  13.426  12.013 -0.0144 -0.0390 -0.4069
 6257W        W19671   0.533  14.369  16.056 -0.1653 -0.0824 -0.3369
 6258W        W19672  10.651   3.307  12.906  0.1211 -0.1001  0.0684
 6259W        W19673  16.933   3.462   4.690 -0.0345 -0.0329  0.0115
 6260W        W19674   7.962   8.423   3.782 -0.0554  0.0640 -0.0915
 6261W        W19675   4.128   9.225  11.758  0.2261  0.0701  0.0883
 6262W        W19676   3.897  12.463   5.689  0.0213 -0.1150  0.1812
 6263W        W19677  16.919   9.432  15.449 -0.2440  0.0274 -0.4235
 6264W        W19678   0.770  16.601   0.307  0.0255  0.0176 -0.0628
 6265W        W19679   6.496  12.851  15.001 -0.0899 -0.1723  0.0968
 6266W        W19680  10.718  15.379  10.110  0.1427  0.0266 -0.0718
 6267W        W19681  11.080   2.761   5.422 -0.2261 -0.3224  0.0726
 6268W        W19682   1.668   5.894   1.002  0.0622 -0.1762 -0.1380
 6269W        W19683  11.678  15.077  15.989  0.1787  0.1298  0.1651
 6270W        W19684   2.446  17.299   1.636  0.2011  0.0656  0.2024
 6271W        W19685  16.434   9.901  11.603  0.2139  0.2073  0.2423
 6272W        W19686  16.603   0.961  10.342  0.2130 -0.0902 -0.1698
 6273W        W19687   9.911  16.766  14.686 -0.0929 -0.0996 -0.1150
 6274W        W19688   8.804  14.208   1.154  0.1015 -0.2138  0.0959
 6275W        W19689   2.496   5.879   4.215  0.0484  0.1944 -0.1265
 6276W        W19690   7.763   8.776  13.419 -0.2892  0.0003  0.0039
 6277W        W19691   3.836  11.672   3.736 -0.3404  0.0499  0.2081
 6278W        W19692   4.087   5.172   3.253 -0.0165  0.0501 -0.0635
 6279W        W19693  13.833  12.150   4.153  0.1043 -0.3012 -0.0038
 6280W        W19694   8.123   3.298   3.647  0.0770 -0.0659  0.0461
 6281W        W19695  11.593   4.529  15.803 -0.0346  0.0736 -0.0528
 6282W        W19696   1.652  13.913   3.215 -0.0086  0.0696  0.4227
 6283W        W19697  10.298   6.887   3.969 -0.1965  0.0665  0.2118
 6284W        W19698   5.649   2.210  15.314 -0.1807  0.2011  0.2078
 6285W        W19699   6.932   9.764  13.940  0.1023  0.3849 -0.0128
 6286W        W19700   6.718   2.487  10.544  0.0265  0.1002  0.0638
 6287W        W19701  11.499  11.029   5.169 -0.0084  0.1588  0.2377
 6288W        W19702   5.755   2.635  14.729 -0.0609  0.1251  0.0161
 6289W        W19703   9.155   7.382   3.162 -0.3564  0.1057 -0.0906
 6290W        W19704   4.439  12.559  14.651  0.0001  0.0535 -0.4150
 6291W        W19705   3.538   9.925   4.894 -0.3417 -0.2364  0.3419
 6292W        W19706   6.649  17.958  14.836 -0.1961 -0.0317  0.2609
 6293W        W19707  12.521   4.245   0.395  0.1049  0.1646  0.1708
 6294W        W19708   1.275   8.703   0.582  0.1674  0.1967  0.0943
 6295W        W19709   6.860   0.729   2.755 -0.1390 -0.0189  0.1256
 6296W        W19710   9.752  14.569   5.402 -0.0858 -0.1178 -0.0369
 6297W        W19711   9.567  14.097   4.167  0.0421  0.2342  0.0734
 6298W        W19712   2.927   8.699   4.624 -0.1070  0.0338 -0.1911
 6299W        W19713   2.798   8.716   1.179  0.1440  0.1799  0.0254
 6300W        W19714  16.145   4.692  10.832 -0.1864 -0.0284 -0.1225
 6301W        W19715  14.708   3.334   3.736 -0.0696  0.1509  0.0639
 6302W        W19716   3.156   0.793  13.436  0.1051 -0.0080  0.1537
 6303W        W19717  13.121   6.050   4.256  0.0605 -0.2953 -0.3869
 6304W        W19718  13.147  14.409   0.991  0.1041  0.1226  0.2494
 6305W        W19719  16.946  13.462   4.086 -0.0014 -0.3079  0.2237
 6306W        W19720  14.119   5.996   0.070  0.2172 -0.0505 -0.0818
 6307W        W19721  12.053   1.229  10.778 -0.0237  0.2191 -0.2676
 6308W        W19722   9.609   6.437  16.305 -0.0802  0.2635  0.0867
 6309W        W19723  16.579   9.172  15.706  0.1126 -0.0790 -0.1073
 6310W        W19724  16.550  15.910  13.981 -0.0878 -0.1292  0.2044
 6311W        W19725  17.607  12.071   5.622  0.3028  0.1924  0.1974
 6312W        W19726   1.862  14.192  13.331  0.1998 -0.3767  0.0139
 6313W        W19727   5.340  15.487  15.502  0.0648 -0.2842  0.0521
 6314W        W19728   6.121  13.898  13.790 -0.3738 -0.0393  0.0450
 6315W        W19729   9.985   2.829   3.134 -0.1035 -0.0108  0.2710
 6316W        W19730   5.426  16.203   0.094 -0.3107  0.2415 -0.0209
 6317W        W19731   4.799  11.960   5.307 -0.0615 -0.1160  0.3462
 6318W        W19732   3.305   4.728  13.886  0.1972  0.1345 -0.1681
 6319W        W19733  18.113   2.193   0.528 -0.1446 -0.1629 -0.0465
 6320W        W19734  11.127   0.579  12.931  0.0312 -0.1511  0.0663
 6321W        W19735  11.739  16.123   1.919 -0.1025 -0.0559  0.0703
 6322W        W19736   4.002  11.219   6.152 -0.0743 -0.1046  0.2867
 6323W        W19737  18.090  13.206  13.688  0.1201 -0.0733 -0.1611
 6324W        W19738   4.184   5.729   5.435 -0.0959  0.2742 -0.0708
 6325W        W19739  10.372  12.022  10.922  0.0275 -0.0466 -0.2212
 6326W        W19740  13.386   7.796  14.672 -0.2416 -0.2156  0.0974
 6327W        W19741   4.390  11.927   4.011 -0.0174 -0.0920  0.2324
 6328W        W19742  12.116   0.079  14.356 -0.0658 -0.1691  0.0101
 6329W        W19743  16.067   6.666   0.841  0.1265 -0.0349 -0.0261
 6330W        W19744   4.524  18.226   1.821 -0.4354  0.0501  0.2589
 6331W        W19745   2.706   7.070   1.079  0.0619 -0.1631 -0.2076
 6332W        W19746  17.446   7.450   1.682 -0.2772  0.1042  0.0274
 6333W        W19747   5.427   1.402   3.718 -0.1102 -0.0216 -0.1440
 6334W        W19748   3.839  15.774   0.090 -0.0443 -0.0370  0.1473
 6335W        W19749  14.174   7.201  11.151  0.1868 -0.1836 -0.2758
 6336W        W19750   1.151  17.462  12.249 -0.0151  0.0636  0.0131
 6337W        W19751   6.778  12.913   3.083  0.1433  0.1733  0.1195
 6338W        W19752  14.998   8.031   4.907 -0.0117  0.2933  0.2251
 6339W        W19753  15.452   3.118   1.474  0.0192 -0.1796  0.0448
 6340W        W19754   2.912  17.810  15.205  0.4423 -0.0464  0.0003
 6341W        W19755   5.557  13.400   1.481 -0.1305 -0.1215  0.1409
 6342W        W19756   6.315   8.400  12.726 -0.2999  0.0690  0.2793
 6343W        W19757   8.517   1.862   0.443 -0.3244 -0.5934  0.0549
 6344W        W19758   1.161  11.762  14.292 -0.2902  0.0549 -0.0634
 6345W        W19759  13.284  11.500   0.766 -0.0045 -0.0019 -0.1108
 6346W        W19760   4.613  14.923  14.231 -0.0749 -0.0048  0.3357
 6347W        W19761   4.010  12.731  12.314  0.0635 -0.0895 -0.2434
 6348W        W19762   6.913  14.414   2.223  0.1520 -0.1642  0.3362
 6349W        W19763   1.248   0.586   3.677  0.2064 -0.3058 -0.1003
 6350W        W19764   9.485  18.174   4.045 -0.0663 -0.2766  0.3670
 6351W        W19765  10.593  16.528  15.553  0.2519  0.1088  0.2768
 6352W        W19766   3.150   8.980   6.329 -0.1775 -0.1341  0.4613
 6353W        W19767   7.864   1.208   2.372 -0.0102 -0.2473 -0.1371
 6354W        W19768   8.639   6.673  15.531  0.0430  0.2004 -0.1124
 6355W        W19769   4.692   5.324   6.057  0.0008  0.1471  0.0183
 6356W        W19770  10.274  10.645  15.124  0.0567 -0.1358  0.1391
 6357W        W19771  10.268   6.053  14.943  0.0526  0.3124  0.1451
 6358W        W19772   4.458  13.027  14.385 -0.0522 -0.3588  0.0580
 6359W        W19773   7.239   6.379  14.669 -0.0050 -0.0378  0.1204
 6360W        W19774   7.877  17.439  12.114  0.2535  0.1591  0.1921
 6361W        W19775   5.615   8.506  11.988 -0.1192 -0.1415  0.2259
 6362W        W19776  17.614   8.476  14.290 -0.2341 -0.0169 -0.1196
 6363W        W19777  15.573   2.268   9.656 -0.1659  0.3455 -0.2915
 6364W        W19778   2.893   8.105  12.130  0.0769 -0.3128  0.0291
 6365W        W19779   7.860   0.296  12.010  0.0726 -0.0081  0.0034
 6366W        W19780  14.915  10.888   3.033 -0.1808 -0.3073 -0.0611
 6367W        W19781  16.152  15.275  12.215 -0.1352 -0.1233 -0.0384
 6368W        W19782  11.598  17.071   5.805  0.1717 -0.2457 -0.2437
 6369W        W19783   5.805  15.449  15.244  0.2329 -0.0607  0.0275
 6370W        W19784  15.077  11.929  12.783  0.1438  0.0698  0.2671
 6371W        W19785  14.752  10.973   2.545  0.4213 -0.0263  0.0933
 6372W        W19786  13.898   3.969   1.619 -0.0308  0.2337 -0.2903
 6373W        W19787  15.824  14.744   5.936  0.0834 -0.3306 -0.0884
 6374W        W19788   8.078  14.345  14.427  0.3151 -0.0555  0.0532
 6375W        W19789   8.394  13.944   2.868 -0.0657 -0.0889  0.0117
 6376W        W19790  11.681  10.621  12.449  0.1959  0.4391 -0.3860
 6377W        W19791   4.979  12.689  14.818  0.2025  0.2401  0.2410
 6378W        W19792   9.534  13.396   2.480  0.0983  0.0534 -0.2440
 6379W        W19793  13.295  13.807   4.098 -0.0122 -0.0794 -0.0343
 6380W        W19794  10.925   0.454   5.925 -0.0279 -0.1007 -0.1626
 6381W        W19795   1.038   9.252  10.147 -0.1513  0.1103  0.2126
 6382W        W19796   0.231  12.015   4.479  0.1486  0.3204  0.0158
 6383W        W19797   3.670   2.000   0.001 -0.0543  0.2420 -0.1362
 6384W        W19798  16.351   1.689  13.154  0.0347  0.2538  0.1845
 6385W        W19799   6.180  10.914   1.819 -0.1183 -0.0814  0.3167
 6386W        W19800   4.033  11.043   0.589  0.0116  0.0254 -0.1185
 6387W        W19801   9.665   2.719   5.654  0.0120  0.1792  0.2686
 6388W        W19802   8.953   2.062   4.697  0.2496  0.3143  0.1392
 6389W        W19803  16.989   6.972   2.516  0.2439  0.3186 -0.2631
 6390W        W19804   5.357   2.781   2.496 -0.0441 -0.3004  0.0333
 6391W        W19805  10.466   9.770  15.105  0.2759  0.0725  0.0375
 6392W        W19806  12.667  17.026  13.736 -0.2690 -0.0312 -0.1045
 6393W        W19807   2.900  13.337  13.888 -0.2429 -0.0122  0.2907
 6394W        W19808  12.328  15.673   3.038  0.0098 -0.1656 -0.2354
 6395W        W19809  11.043  16.107   4.516 -0.1094  0.2131 -0.1784
 6396W        W19810   9.076  12.704   1.018  0.0009  0.2144  0.0339
 6397W        W19811  13.451  12.908   3.069  0.0258  0.0982  0.0023
 6398W        W19812  10.363  12.719  14.480 -0.0477  0.1591  0.1373
 6399W        W19813  17.333  10.700  14.134 -0.0707  0.3133 -0.0603
 6400W        W19814   0.874   1.821  11.421  0.2201  0.1252 -0.0313
 6401W        W19815   8.488  11.735  12.415 -0.0098  0.3818  0.1375
 6402W        W19816   5.308   4.502  15.206  0.1692 -0.0795  0.0016
 6403W        W19817  17.068  12.159  16.340  0.0533 -0.0114 -0.0050
 6404W        W19818  14.188  10.944   0.463  0.0275  0.1710 -0.1770
 6405W        W19819   1.408  10.077  11.801 -0.1288  0.0937  0.0716
 6406W        W19820   5.427   8.985  11.224 -0.1756 -0.1857 -0.0735
 6407W        W19821   2.284  10.431  15.439  0.2897 -0.1655  0.0812
 6408W        W19822   5.551  17.053  11.890  0.1157  0.0395 -0.1212
 6409W        W19823  13.788  14.044  13.945  0.3028 -0.0389  0.0372
 6410W        W19824  16.053   7.543  15.322 -0.1249  0.0683  0.0881
 6411W        W19825  10.869  17.813   2.976  0.1933  0.0282  0.2281
 6412W        W19826   0.491   8.413  16.551  0.1258  0.1772  0.1032
 6413W        W19827   7.574   9.859  15.749  0.1024 -0.0382 -0.0767
 6414W        W19828  11.335  15.806   4.844  0.0914 -0.2090  0.2107
 6415W        W19829   8.246  15.440   2.871  0.1598 -0.1241  0.0429
 6416W        W19830  14.862  16.041  11.644 -0.1177 -0.1191 -0.2497
 6417W        W19831   4.851   8.000  11.422 -0.0424 -0.1583 -0.0191
 6418W        W19832   1.268   3.382  14.820 -0.1217  0.2089 -0.2076
 6419W        W19833   5.021   2.690   0.864  0.0611 -0.0079 -0.0749
 6420W        W19834  10.788   7.035   2.939 -0.0706  0.0185 -0.0876
 6421W        W19835   7.632  10.893   3.287  0.1252  0.0761 -0.1918
 6422W        W19836  10.084   6.498  13.615 -0.0884 -0.3054  0.1516
 6423W        W19837  17.735  15.010  15.269  0.2266 -0.0093 -0.2714
 6424W        W19838   6.792   0.180  13.297  0.3078  0.0329 -0.0331
 6425W        W19839  14.057  16.667  15.570  0.0632  0.1980 -0.1274
 6426W        W19840   0.602  13.392   1.458 -0.0327  0.2729  0.1259
 6427W        W19841   5.329   7.487  12.441 -0.1932  0.0261  0.0826
 6428W        W19842   2.231   8.916  10.241 -0.2775  0.2843  0.0415
 6429W        W19843  12.567   7.260   4.358 -0.1074 -0.3245  0.1517
 6430W        W19844  11.846  16.085   0.256 -0.0745 -0.0725  0.3236
 6431W        W19845   0.069   6.299  14.465 -0.3026 -0.2447 -0.0691
 6432W        W19846  17.471   5.038  12.861  0.3430 -0.3343 -0.2964
 6433W        W19847   0.006  16.287  12.975 -0.1852 -0.2678 -0.2289
 6434W        W19848  17.264  10.922   1.412  0.1338 -0.4954 -0.1006
 6435W        W19849  17.432   3.389   4.598 -0.1932  0.0712 -0.2210
 6436W        W19850   0.204  12.233   4.954  0.0245  0.1859  0.0199
 6437W        W19851  15.152   8.292  14.111 -0.3453  0.2168  0.0727
 6438W        W19852   9.533  14.173  12.577  0.4512 -0.1572  0.3543
 6439W        W19853  17.952   4.894  12.899  0.1859 -0.4112  0.2022
 6440W        W19854   0.040  16.088  12.046  0.0093  0.2072  0.2005
 6441W        W19855  12.433  17.823   4.384  0.2017  0.0227  0.2059
 6442W        W19856  14.443   8.036   0.662 -0.0176 -0.1436 -0.1297
 6443W        W19857   2.458   6.383  14.674 -0.1173 -0.0550 -0.2222
 6444W        W19858  14.294   4.662   3.512 -0.1467  0.0310 -0.2710
 6445W        W19859   3.731  13.048   5.869 -0.0184  0.2047 -0.2557
 6446W        W19860   0.747  11.876   4.894 -0.0424  0.0869 -0.1654
 6447W        W19861  10.293  16.443  12.564 -0.2445  0.0061  0.0009
 6448W        W19862  10.725  18.156  16.435  0.1602  0.0084 -0.4067
 6449W        W19863  13.029   4.741   3.942  0.0020  0.1440  0.3261
 6450W        W19864  16.808   3.434  14.375  0.2995 -0.0362 -0.2720
 6451W        W19865   0.496   9.044   2.744 -0.3666 -0.0368  0.1941
 6452W        W19866  13.114  17.762   3.635 -0.1573 -0.1486 -0.1065
 6453W        W19867   3.484   1.661  16.235 -0.1334  0.1705  0.1648
 6454W        W19868  10.481   1.354  12.934 -0.1709 -0.0478  0.3981
 6455W        W19869   6.001  13.901   1.071  0.1922 -0.2868 -0.3382
 6456W        W19870   3.331  10.201   1.430  0.1060 -0.1249 -0.0897
 6457W        W19871  13.823  10.472   3.589 -0.1855  0.2704  0.1379
 6458W        W19872  10.699  17.956  11.720 -0.2087 -0.0256  0.3500
 6459W        W19873   6.898  16.953   5.254  0.3969 -0.1161 -0.3667
 6460W        W19874  16.383   1.361   4.467 -0.2539 -0.0027  0.0152
 6461W        W19875   6.291  17.188   3.596  0.1924  0.0178  0.0837
 6462W        W19876   2.212   8.419  15.051 -0.1268 -0.2838 -0.0140
 6463W        W19877   5.035  18.169  10.794 -0.0046 -0.0392 -0.1342
 6464W        W19878   4.215  13.532   5.068  0.0421  0.1426 -0.1364
 6465W        W19879  10.961   0.560  14.043  0.1871 -0.0553 -0.1262
 6466W        W19880  12.351  16.180   2.827  0.3061 -0.1649 -0.1794
 6467W        W19881   5.498  16.816   5.453  0.0984 -0.1293  0.3567
 6468W        W19882  16.958   1.268  10.844  0.0849  0.1010 -0.2430
 6469W        W19883  10.474   0.968   1.573 -0.1184 -0.0293 -0.2345
 6470W        W19884   8.623   7.067  12.432  0.0360  0.2980  0.0862
 6471W        W19885   9.945   0.216   4.247  0.0293  0.1159  0.1215
 6472W        W19886  11.412   0.532  16.517  0.0135 -0.0602  0.0181
 6473W        W19887  13.625  16.322  14.262 -0.2286  0.0505 -0.2365
 6474W        W19888   6.372   4.125  16.477 -0.3406  0.2366 -0.2060
 6475W        W19889  11.125   5.033   3.911  0.0306  0.1170 -0.2262
 6476W        W19890  10.741  11.278   1.430 -0.0399  0.1246  0.1128
 6477W        W19891   8.372   0.464  12.109  0.0491 -0.0300  0.2019
 6478W        W19892   7.960  10.103   3.377 -0.2213  0.3735  0.1652
 6479W        W19893   0.784  11.782  15.156  0.1780 -0.1014  0.0999
 6480W        W19894   1.258   1.924   1.662 -0.0513  0.0042 -0.3177
 6481W        W19895   8.707  12.251  16.363 -0.1001 -0.0652 -0.0049
 6482W        W19896   4.564   3.523   3.802 -0.2695 -0.0726  0.2381
 6483W        W19897   8.192   7.839  15.188  0.0741 -0.0791 -0.0784
 6484W        W19898  16.268  12.298  13.724 -0.0459  0.0038  0.2231
 6485W        W19899  16.863   1.511   2.409 -0.2199  0.0036 -0.2393
 6486W        W19900  11.016  15.018  15.420  0.1265 -0.0720 -0.0945
 6487W        W19901  13.702   4.516  12.094  0.0416  0.0923  0.0983
 6488W        W19902   4.156   2.555   0.429 -0.1045 -0.1283  0.3735
 6489W        W19903   8.115   5.438  14.478  0.1323 -0.2356  0.3269
 6490W        W19904   2.710   7.161  11.956 -0.5498  0.0067 -0.0266
 6491W        W19905   4.222   0.620   4.555  0.0121 -0.0513 -0.0680
 6492W        W19906  17.901  15.434  14.135 -0.1802  0.0470 -0.1655
 6493W        W19907   4.831   7.787  13.969 -0.0250  0.2683  0.0233
 6494W        W19908   7.508   6.197  12.937  0.0808 -0.3026  0.0687
 6495W        W19909   5.113  11.370  11.704 -0.2517 -0.2324 -0.1545
 6496W        W19910   0.222   0.608   2.079 -0.1446  0.1226 -0.3302
 6497W        W19911  15.932   6.523  14.994  0.1672  0.0664 -0.1147
 6498W        W19912   6.453   0.210   2.834  0.1095  0.2439 -0.1601
 6499W        W19913  16.121   1.171  13.101  0.1174 -0.0360  0.1057
 6500W        W19914  12.661  17.802  13.756 -0.2318  0.0110  0.0738
 6501W        W19915  16.217  10.775   1.153  0.3080 -0.1673 -0.2422
 6502W        W19916   5.932  16.836   2.401 -0.0952 -0.2198 -0.2649
 6503W        W19917  15.523   4.944  15.923 -0.1331  0.0333  0.0261
 6504W        W19918  16.389   2.064  15.414  0.0849 -0.1345 -0.0623
 6505W        W19919   5.634   7.398  10.823 -0.1161 -0.2243  0.1761
 6506W        W19920   2.535   5.607  14.927 -0.0703  0.1612 -0.0227
 6507W        W19921   4.609  16.248   2.017 -0.0353  0.1316 -0.1898
 6508W        W19922  16.313   4.724   2.745  0.1231 -0.1867 -0.4971
 6509W        W19923   8.017   2.242  15.806 -0.0008  0.1454  0.0283
 6510W        W19924  16.014  17.038   4.000 -0.2602 -0.0595 -0.1174
 6511W        W19925   1.107  10.394   1.735 -0.0227  0.0363 -0.2895
 6512W        W19926  12.234  13.451  14.104  0.0509 -0.2918  0.0808
 6513W        W19927  11.500   0.465   3.325  0.0997 -0.2902  0.1731
 6514W        W19928   5.391   6.156  12.256  0.0615 -0.3509  0.1058
 6515W        W19929   0.445  12.674  15.377  0.0673 -0.1633 -0.1262
 6516W        W19930   2.807   2.655  13.181 -0.1379  0.0779  0.1014
 6517W        W19931  11.695   1.604   2.874  0.0798 -0.2135 -0.0349
 6518W        W19932   5.198   9.049   1.407  0.2696 -0.1921 -0.1866
 6519W        W19933  11.296  16.726   6.422  0.0752 -0.2835  0.0141
 6520W        W19934  16.674   8.392   2.595 -0.0544 -0.3401  0.0198
 6521W        W19935   8.356   6.647   3.765  0.0247 -0.2926  0.0341
 6522W        W19936  13.311  16.750  12.017 -0.0891  0.2548 -0.0493
 6523W        W19937   6.948  11.490   3.162 -0.1861  0.1089  0.0138
 6524W        W19938   3.212  10.507   9.991  0.2884  0.1600  0.0960
 6525W        W19939  10.139  15.145   0.617 -0.1447  0.0407 -0.2761
 6526W        W19940  14.365  13.428   5.336 -0.2633 -0.1529  0.3395
 6527W        W19941   4.521  10.525  11.969 -0.1840  0.2388  0.0737
 6528W        W19942   1.734  13.135  12.904 -0.3409  0.0674  0.1787
 6529W        W19943  15.969   7.600  12.995 -0.1664 -0.2402 -0.0978
 6530W        W19944   2.439  17.602  12.112  0.0568  0.1269 -0.0200
 6531W        W19945  17.493   6.471   5.633 -0.2238 -0.2474 -0.1557
 6532W        W19946  12.006  13.967   0.311 -0.1313  0.3071  0.1939
 6533W        W19947   8.519   8.046  12.106  0.1275 -0.0766  0.0628
 6534W        W19948   9.055  10.059  11.076  0.3393 -0.1648 -0.0578
 6535W        W19949  13.449   5.820  15.474  0.0183  0.0504  0.0109
 6536W        W19950   6.717   2.248   5.565  0.1782 -0.0905 -0.1929
 6537W        W19951  14.329   7.382   3.989 -0.0742 -0.0173  0.0644
 6538W        W19952  14.664  12.377   4.676 -0.0347  0.2635  0.1601
 6539W        W19953   1.367   4.881  10.153 -0.0150  0.1700  0.1991
 6540W        W19954   1.899  12.553  11.381  0.1190  0.0375 -0.1216
 6541W        W19955  18.221   8.997   2.163 -0.1206  0.1241  0.1181
 6542W        W19956   1.297  17.579   5.469 -0.0370  0.3596  0.1616
 6543W        W19957   7.060  14.525  14.481 -0.0819  0.2550 -0.0059
 6544W        W19958   3.171   8.432   5.070 -0.0072 -0.4615 -0.2058
 6545W        W19959  16.632   1.656  15.431  0.3268 -0.0386  0.1123
 6546W        W19960   9.033   5.337   0.521 -0.0771  0.0307 -0.0368
 6547W        W19961   8.952   6.031  12.542 -0.0131 -0.5030  0.1384
 6548W        W19962   3.711  17.632   5.978  0.1437 -0.2682 -0.3175
 6549W        W19963  13.843   6.555   1.490  0.0141  0.3299 -0.1404
 6550W        W19964   5.142  13.966   4.219  0.0050 -0.0192  0.5170
 6551W        W19965  17.019  15.971  11.309  0.0847 -0.2405 -0.0649
 6552W        W19966   0.567   1.757   1.835 -0.1023  0.0532 -0.0189
 6553W        W19967   0.937   3.370  13.549  0.0898  0.0227 -0.0503
 6554W        W19968   8.888   7.003   1.643  0.0556 -0.0184 -0.3592
 6555W        W19969  15.006   5.256  14.508  0.0346  0.0031 -0.0906
 6556W        W19970   1.940   6.775   2.028 -0.1504 -0.0340  0.2485
 6557W        W19971  14.032   3.056   1.755 -0.4983 -0.4564 -0.2324
 6558W        W19972  15.524   6.600   2.527  0.5234  0.1262  0.1632
 6559W        W19973   8.599  17.411  12.154 -0.2060  0.0843 -0.1192
 6560W        W19974   9.850  12.039  12.228  0.0324  0.0614  0.1774
 6561W        W19975   7.392  10.689  15.263  0.3441  0.1966  0.0883
 6562W        W19976  16.826  11.890   4.290  0.5708  0.1711  0.1716
 6563W        W19977  14.252   8.596   2.324 -0.0969  0.1320 -0.2471
 6564W        W19978   2.859   7.038  12.988  0.1499  0.0909 -0.3240
 6565W        W19979   2.584   0.289  12.953  0.3681 -0.1645 -0.5118
 6566W        W19980   3.182   4.345  14.811 -0.0412 -0.1288  0.3542
 6567W        W19981   8.297   1.035   1.255 -0.1690  0.3137 -0.1100
 6568W        W19982   9.641   0.287  10.940 -0.4399  0.1248 -0.0552
 6569W        W19983  13.903   4.721  11.207 -0.1744  0.0395 -0.3497
 6570W        W19984   4.538  11.645   1.487 -0.2614 -0.0454  0.0027
 6571W        W19985  13.468   8.659  13.789  0.0633 -0.0405  0.3662
 6572W        W19986  10.776   0.447   3.883  0.0480 -0.1329 -0.3644
 6573W        W19987   6.530  18.134   4.390  0.2072 -0.1179  0.0897
 6574W        W19988  11.582  16.038  15.445  0.1284 -0.0797 -0.3298
 6575W        W19989   7.825  10.733   5.606  0.1567  0.0226 -0.0063
 6576W        W19990   6.578  12.340   4.778 -0.1056  0.2039 -0.0649
 6577W        W19991  16.089   4.949   1.122 -0.0109 -0.2690  0.1139
 6578W        W19992   0.604  13.387   5.020 -0.3633 -0.1341  0.3975
 6579W        W19993  14.481  17.555   3.596  0.0927 -0.0658  0.0452
 6580W        W19994   1.588   5.280   4.650 -0.0232  0.2986 -0.0588
 6581W        W19995   6.536   4.066   3.355  0.0666  0.1653  0.3126
 6582W        W19996  10.666   6.127   1.315  0.3957  0.1027 -0.1848
 6583W        W19997   7.968   2.401  11.105  0.0157 -0.0282  0.1068
 6584W        W19998   1.350   6.989  15.459  0.1706 -0.2199  0.0182
 6585W        W19999   5.304   8.022   2.171  0.1300  0.1099  0.1457
 6586W        W20000   2.758  10.395   0.269  0.0948 -0.1605 -0.1847
 6587W        W20001  10.193   4.300   4.086  0.3190  0.1537  0.3387
 6588W        W20002  10.540   1.995  14.020 -0.3281  0.2887  0.1001
 6589W        W20003  10.688   7.976  10.603 -0.0714  0.0702 -0.2613
 6590W        W20004  16.454   8.392   2.112  0.1089  0.0990  0.0874
 6591W        W20005   6.809   8.466  12.940  0.0473 -0.0432 -0.1735
 6592W        W20006  10.033  16.859  11.231 -0.1159 -0.0277  0.2383
 6593W        W20007   2.281   6.377   4.509  0.0943  0.2472 -0.2404
 6594W        W20008  10.024  17.756   2.447 -0.2222  0.1276 -0.0215
 6595W        W20009   2.223  16.274   2.538  0.0045 -0.2036 -0.0801
 6596W        W20010   0.567  17.459  14.357  0.1398  0.2043 -0.2128
 6597W        W20011   8.413  16.146   3.133 -0.0225 -0.0240  0.4181
 6598W        W20012  14.506   6.058   1.327 -0.5475 -0.2962 -0.0632
 6599W        W20013  10.113   0.676   4.168 -0.2223 -0.0959 -0.0747
 6600W        W20014   3.029  14.820   0.148  0.1226  0.2157 -0.0299
 6601W        W20015  15.043  15.768   3.691  0.0416  0.1723  0.0962
 6602W        W20016  12.757  16.383  10.684  0.0188 -0.0290 -0.1474
 6603W        W20017   0.444  17.048   5.124 -0.0416 -0.3593  0.0246
 6604W        W20018   4.666  16.065  14.918  0.0337  0.0177  0.1000
 6605W        W20019  15.607   0.146  13.609  0.4961 -0.3164  0.1440
 6606W        W20020   9.004   1.456  14.881 -0.3359  0.0197 -0.0061
 6607W        W20021   7.306   0.535   0.461 -0.0435  0.2277 -0.3926
 6608W        W20022  14.231   9.106  16.140 -0.2840 -0.0935  0.0878
 6609W        W20023   8.755  18.167  12.830  0.2627  0.0433 -0.0309
 6610W        W20024   0.708  17.026   1.882  0.2201  0.0320  0.0296
 6611W        W20025   3.405  10.222  13.105  0.0518  0.0394  0.0557
 6612W        W20026  14.309   4.999   0.367 -0.0123  0.1488 -0.2450
 6613W        W20027   1.367   0.426  13.823 -0.1138 -0.0417 -0.1812
 6614W        W20028   0.137  11.378   6.067 -0.0729  0.4030  0.0681
 6615W        W20029  10.243  12.955   2.371 -0.0243 -0.2727  0.2770
 6616W        W20030   0.599  12.256   5.274  0.2144 -0.0729 -0.1487
 6617W        W20031   5.038  16.911   1.268 -0.0754 -0.3393 -0.1049
 6618W        W20032   6.042  14.565  13.757  0.0485 -0.1380 -0.2123
 6619W        W20033  12.105  16.959  16.507  0.1082 -0.0865  0.0565
 6620W        W20034  14.901  18.083   1.708 -0.3779 -0.2903 -0.0042
 6621W        W20035   3.927  11.600   4.906 -0.1756  0.0043  0.0174
 6622W        W20036   2.784  10.313  12.013  0.1915 -0.2812  0.0470
 6623W        W20037   7.367   8.018  12.884  0.0133  0.0873  0.1759
 6624W        W20038   5.379   6.713  11.427 -0.1850 -0.2463  0.1214
 6625W        W20039   8.019  12.028  11.011  0.0817  0.1818  0.1428
 6626W        W20040   1.046  17.720  13.739 -0.2169  0.0384 -0.0439
 6627W        W20041   8.791   7.569  16.550  0.2676  0.0768  0.1064
 6628W        W20042   9.797   3.909   4.048  0.3320  0.2816 -0.3075
 6629W        W20043  14.477   4.475  13.114  0.0182 -0.0755  0.0346
 6630W        W20044   7.694   7.665   2.667 -0.0708  0.4771  0.2681
 6631W        W20045   1.423  15.223   2.710 -0.1641  0.0242 -0.1349
 6632W        W20046   8.848   8.019   0.582  0.3688 -0.1049  0.0828
 6633W        W20047   5.897  17.023   1.756 -0.2164 -0.1236  0.0855
 6634W        W20048   2.600   1.315  13.924  0.0589  0.1327 -0.3207
 6635W        W20049  18.145   4.319   1.032  0.1096 -0.0987  0.1578
 6636W        W20050   2.756   0.782  14.686  0.3049  0.2862 -0.1392
 6637W        W20051  17.197   3.014   4.841 -0.2739  0.1981  0.1907
 6638W        W20052  11.390  12.597   1.344 -0.2270 -0.0571 -0.1480
 6639W        W20053  14.631  12.626   0.607  0.0671 -0.0729  0.1060
 6640W        W20054  18.074   6.968   2.560 -0.0885 -0.0520 -0.3614
 6641W        W20055  13.479   3.124   2.713  0.1199  0.2262  0.0324
 6642W        W20056  16.489   3.078  14.170 -0.1049 -0.0052 -0.1488
 6643W        W20057  17.251  16.970  12.425 -0.5632  0.0528  0.1889
 6644W        W20058  11.898  14.830  10.899 -0.2354 -0.0233  0.3074
 6645W        W20059   5.127   3.754  13.435  0.0581 -0.0435 -0.0848
 6646W        W20060   0.227   6.636  12.385  0.1218  0.0470  0.3456
 6647W        W20061  12.908  10.347   2.550 -0.3194  0.0054 -0.0048
 6648W        W20062  17.780   5.096   4.731 -0.1942  0.0360  0.4367
 6649W        W20063   6.072   7.708  10.995  0.1267 -0.2105 -0.0698
 6650W        W20064   8.146  15.615   1.716  0.3186  0.2165 -0.0746
 6651W        W20065  16.539  13.145  16.544  0.2501  0.0206  0.0216
 6652W        W20066   6.051   2.339   2.570 -0.1759  0.0553  0.1458
 6653W        W20067   2.424  13.791  15.372  0.0060  0.2844 -0.4508
 6654W        W20068  11.723   3.901  12.969  0.2917 -0.1551  0.0379
 6655W        W20069   5.202  10.606  13.810  0.0666  0.0786 -0.2288
 6656W        W20070   5.708   2.533   0.277  0.0417 -0.1710 -0.2769
 6657W        W20071   0.227   2.919  11.044 -0.1463 -0.1402 -0.0104
 6658W        W20072  17.643  13.545   4.607  0.2779 -0.2838 -0.3874
 6659W        W20073  17.321  14.722   4.370  0.0209  0.2593  0.3410
 6660W        W20074   8.766   0.657  16.527 -0.2306 -0.2451 -0.0866
 6661W        W20075   1.257   0.060   1.028 -0.0288 -0.1078 -0.1757
 6662W        W20076   9.385   8.400   5.502  0.1533  0.1160  0.2042
 6663W        W20077  11.770  14.140  16.354  0.1890  0.2451 -0.2082
 6664W        W20078  12.378   5.867  15.008 -0.0274 -0.2940 -0.0804
 6665W        W20079   1.107  14.049  10.647  0.2962  0.0787 -0.1165
 6666W        W20080   2.411  16.766  14.518 -0.0496 -0.1916 -0.0343
 6667W        W20081  10.226   7.517   4.953  0.3342 -0.5305 -0.0633
 6668W        W20082  11.058   3.051   3.611 -0.2121 -0.3915  0.0439
 6669W        W20083  12.573  11.531  12.765  0.1578 -0.0377  0.1162
 6670W        W20084  17.366  13.460   3.238 -0.1462  0.0131  0.0721
 6671W        W20085   4.550  15.517  12.322 -0.2294  0.0976 -0.0860
 6672W        W20086  16.749  13.575   3.565  0.0769 -0.2694 -0.0274
 6673W        W20087  14.513  15.486   6.276  0.0179 -0.1560  0.1066
 6674W        W20088  11.297  14.085  15.433 -0.0482 -0.0331  0.0547
 6675W        W20089   5.655  14.671   5.836  0.0218 -0.0190 -0.1485
 6676W        W20090  12.211   9.792   2.688 -0.0461 -0.0031  0.0244
 6677W        W20091   6.225   3.493   5.204  0.2571  0.1825 -0.2568
 6678W        W20092   8.071   3.478  14.484 -0.0828  0.1676 -0.2435
 6679W        W20093   4.603  17.732   0.807 -0.2861  0.1690 -0.1171
 6680W        W20094  16.153   9.820  15.930  0.1098  0.0888 -0.0309
 6681W        W20095  12.342   7.320  13.278  0.0222  0.0291 -0.0487
 6682W        W20096  17.935   1.428   1.786  0.2590 -0.0129  0.3314
 6683W        W20097  10.490   2.051   3.460 -0.1580 -0.0059 -0.0126
 6684W        W20098   2.087  15.861  15.625  0.1328 -0.1237 -0.0537
 6685W        W20099  11.127   1.556  16.011  0.4527 -0.3582 -0.1975
 6686W        W20100  13.967   2.265   1.977 -0.0039 -0.1123  0.2629
 6687W        W20101   6.139   1.895  12.928 -0.0232 -0.1742 -0.0126
 6688W        W20102  17.495  15.309  11.581 -0.0974  0.1363 -0.1684
 6689W        W20103   2.625   5.018  10.267 -0.0910 -0.0073  0.1781
 6690W        W20104  16.448   5.795  10.938  0.0011  0.2336 -0.0573
 6691W        W20105  12.694  13.569   3.431 -0.0982 -0.2419 -0.0486
 6692W        W20106   4.284   7.596   1.508 -0.0003  0.0023  0.2030
 6693W        W20107   7.804   9.896  14.668 -0.0661 -0.0461  0.0659
 6694W        W20108  12.972   1.862   2.875 -0.0440 -0.1234  0.1521
 6695W        W20109   9.289  11.598   2.028 -0.0395  0.1016 -0.4811
 6696W        W20110   4.986   2.686   4.440 -0.0436 -0.0973  0.0275
 6697W        W20111   2.953   0.854  10.966  0.0931 -0.2428 -0.1236
 6698W        W20112   8.455   6.462   0.781  0.2718 -0.0433 -0.1248
 6699W        W20113   7.898  13.531   2.205  0.0966 -0.1133 -0.0955
 6700W        W20114  15.571  13.670  13.043  0.0723 -0.0283 -0.1852
 6701W        W20115   3.992  14.498  11.798 -0.0199  0.1689 -0.1563
 6702W        W20116  13.353   6.127  15.856 -0.0706  0.1769 -0.2281
 6703W        W20117  11.015  12.176  13.287 -0.0741  0.1985  0.0529
 6704W        W20118   8.745  12.353  11.925 -0.1255  0.0326  0.3783
 6705W        W20119  13.310  10.612  12.871 -0.0157 -0.1487 -0.0573
 6706W        W20120   1.134  13.814  15.868  0.0273 -0.2088 -0.2904
 6707W        W20121  18.090  16.350  12.495  0.0831  0.0353 -0.1457
 6708W        W20122  10.042   3.854  13.636 -0.3667 -0.1469 -0.2393
 6709W        W20123   7.604   5.435  12.378  0.0320  0.1254 -0.1039
 6710W        W20124   2.794   4.290   5.492 -0.1122 -0.2725  0.0988
 6711W        W20125   8.241   8.373   1.694  0.1771 -0.2192  0.0553
 6712W        W20126   5.670   4.885  15.202 -0.1745 -0.1956 -0.1499
 6713W        W20127  17.239   8.936  10.600 -0.0631  0.2678 -0.3437
 6714W        W20128  15.942   3.403  15.140  0.2527 -0.2320  0.1403
 6715W        W20129   5.337   6.524   2.375  0.2029 -0.2396 -0.2306
 6716W        W20130   8.477   2.913  13.726 -0.1285  0.1108  0.1827
 6717W        W20131   5.139   0.873   3.156 -0.0344 -0.1699 -0.2832
 6718W        W20132   6.355  16.815  14.923 -0.2459  0.5635 -0.0054
 6719W        W20133   4.535  12.257  13.749  0.0664  0.0509 -0.1756
 6720W        W20134  16.012   7.970   2.232 -0.2275  0.2161  0.1352
 6721W        W20135   1.218   6.726  16.330 -0.1089 -0.1667  0.2883
 6722W        W20136   5.890  10.399   4.810  0.1379 -0.0914 -0.1668
 6723W        W20137  10.186   4.109   4.786 -0.0278  0.1356 -0.3140
 6724W        W20138   2.810  14.085   4.619 -0.3159  0.0703  0.0666
 6725W        W20139   2.317   6.625  12.696 -0.2300  0.1892  0.0381
 6726W        W20140   3.665   1.583   6.227  0.0563 -0.0293 -0.1613
 6727W        W20141   1.943   1.190   1.893 -0.2793  0.3284 -0.1990
 6728W        W20142   2.905   8.894  11.578 -0.0669  0.0782  0.0221
 6729W        W20143  17.639   5.942   4.762 -0.0889 -0.0059 -0.1381
 6730W        W20144   5.288   6.642   0.094 -0.5047 -0.3482 -0.0203
 6731W        W20145  17.158   8.551   2.510  0.1938  0.0684  0.3448
 6732W        W20146  16.556   0.675  12.323  0.0893  0.2007 -0.1249
 6733W        W20147  17.619   1.735   0.832 -0.0731  0.1263  0.1657
 6734W        W20148   5.721   3.167   0.245 -0.3004  0.2782 -0.0521
 6735W        W20149   5.066   5.451  11.681 -0.1303 -0.3206  0.1184
 6736W        W20150   5.665   8.440  10.935  0.1514  0.0324 -0.4283
 6737W        W20151   1.711   3.424   5.499  0.0503  0.1995 -0.0770
 6738W        W20152   1.393   3.594   0.125  0.0188  0.3053 -0.2922
 6739W        W20153  12.905  14.652   3.117 -0.0220  0.1747  0.1639
 6740W        W20154   7.971  15.956  15.113  0.0797 -0.1126  0.0283
 6741W        W20155  16.765   6.843   5.131  0.1554  0.1113 -0.3710
 6742W        W20156  15.413  14.502   5.267  0.1413 -0.1248  0.2447
 6743W        W20157   5.455   1.415  14.009 -0.1091 -0.2077  0.0978
 6744W        W20158  10.631   7.790  13.650 -0.2205  0.3842  0.1488
 6745W        W20159   0.015   4.948  14.984  0.1800 -0.2490 -0.0924
 6746W        W20160  14.074   6.836   5.953  0.1363  0.2693  0.0388
 6747W        W20161   0.093   1.309   1.939  0.0197  0.0201  0.0311
 6748W        W20162  13.715  11.052  16.276 -0.3507 -0.0415 -0.2300
 6749W        W20163  16.514   9.012   0.804  0.1864 -0.0190  0.0647
 6750W        W20164   7.650   5.074   0.606  0.4390 -0.2670 -0.2320
 6751W        W20165   6.131  14.277  13.386 -0.3128  0.0714  0.4731
 6752W        W20166   6.301  17.664  11.474 -0.0803  0.0315 -0.1167
 6753W        W20167  17.277  14.761  11.661 -0.0139 -0.1949  0.0253
 6754W        W20168  10.506  10.325   4.153  0.0079  0.1755  0.0331
 6755W        W20169  15.086   5.556   3.221  0.0041 -0.0174 -0.0198
 6756W        W20170   2.044   6.152  12.759  0.2044  0.1210  0.3594
 6757W        W20171   6.052   3.687   3.935  0.0083  0.1586 -0.1938
 6758W        W20172   1.299  17.767  11.418 -0.1586 -0.0641 -0.0748
 6759W        W20173  13.410  11.849  10.744  0.0930 -0.0167  0.1400
 6760W        W20174   6.612  16.713  13.687  0.0321 -0.1904  0.3229
 6761W        W20175  10.790   5.616   5.135  0.1548 -0.3996  0.2014
 6762W        W20176  13.757  11.886  11.142 -0.3087  0.1143  0.1122
 6763W        W20177   3.335  18.267   2.963  0.0842 -0.1697  0.1834
 6764W        W20178   1.752  14.881   0.699 -0.0010  0.0397 -0.3150
 6765W        W20179  17.793  13.282  15.646 -0.1461 -0.0558  0.1224
 6766W        W20180  17.074  16.843   0.700 -0.1147 -0.3230 -0.0858
 6767W        W20181  17.579   0.451  11.457 -0.0068 -0.1069 -0.2004
 6768W        W20182   5.483   2.683   2.015 -0.1241 -0.0869  0.2171
 6769W        W20183  13.572  15.539   5.982  0.2689 -0.3806 -0.0663
 6770W        W20184  17.152   4.267   2.503  0.0653  0.1756  0.1088
 6771W        W20185   3.473   0.379   1.091 -0.1545  0.2675 -0.0772
 6772W        W20186  13.519  10.300  10.698 -0.0374 -0.1068  0.0766
 6773W        W20187  13.983   6.322  12.266 -0.0305  0.1176 -0.1860
 6774W        W20188  17.431   5.107   2.371  0.1967  0.2813 -0.4104
 6775W        W20189  10.607  15.207   0.752 -0.0318 -0.0313  0.0453
 6776W        W20190  10.549  15.534  11.677 -0.2799 -0.2168 -0.2848
 6777W        W20191   4.545  15.671  15.680  0.0382 -0.2096  0.3977
 6778W        W20192  11.617   1.030   1.880 -0.2432  0.0946 -0.2296
 6779W        W20193  16.824  17.312   4.032  0.2860 -0.0359 -0.0898
 6780W        W20194  17.685  11.394  10.976 -0.1748  0.1045  0.2689
 6781W        W20195   9.479   5.682  16.052 -0.0654 -0.0275  0.0106
 6782W        W20196   2.075  15.573   3.272 -0.0734  0.2192  0.0136
 6783W        W20197   8.677   7.212   0.307  0.3725  0.1396  0.2766
 6784W        W20198   4.083  14.743   0.573  0.1645  0.0648  0.1394
 6785W        W20199   2.672   5.738  10.409  0.3421 -0.2914  0.3615
 6786W        W20200   5.995  13.409   0.869  0.0394 -0.1945 -0.4409
 6787W        W20201  18.280   8.771  12.054  0.3936 -0.0289 -0.3127
 6788W        W20202   5.968  15.062  13.927 -0.1706 -0.0104  0.1571
 6789W        W20203   6.979  16.102  11.213  0.0550  0.2459 -0.1598
 6790W        W20204  12.636   4.491  10.105  0.4400 -0.2147 -0.2960
 6791W        W20205   8.296   0.493   5.325  0.0572 -0.1466  0.3712
 6792W        W20206   5.486   7.077   0.089 -0.0384 -0.2030  0.4726
 6793W        W20207   1.881  18.087   1.758 -0.1191  0.0494  0.0289
 6794W        W20208  15.245   7.073   0.584  0.0698 -0.0980 -0.3943
 6795W        W20209   1.773   7.977   0.867 -0.0406  0.0554  0.0232
 6796W        W20210   3.818  15.613   0.638  0.0479  0.1288  0.0982
 6797W        W20211  13.960  14.690   0.374  0.1921 -0.4544 -0.0401
 6798W        W20212  10.706   5.835  12.920 -0.0999  0.0972  0.0328
 6799W        W20213   8.070  10.637   3.491 -0.0019  0.2511 -0.0081
 6800W        W20214  15.908  17.037  12.276  0.0861 -0.0338 -0.0610
 6801W        W20215   9.170   4.930   2.311 -0.1597 -0.1465 -0.1903
 6802W        W20216  12.640  12.055   2.977 -0.2468  0.2129  0.0871
 6803W        W20217  12.116   7.255  11.854  0.0702 -0.1815 -0.2636
 6804W        W20218  13.995   0.546   5.467 -0.1906 -0.1736 -0.1354
 6805W        W20219   2.053   2.696  11.621 -0.0356  0.0310 -0.2831
 6806W        W20220   0.408   4.876   1.661 -0.0970  0.1554 -0.1241
 6807W        W20221   1.948  17.716  11.540 -0.3144  0.0615 -0.2938
 6808W        W20222  15.454   4.110   4.222 -0.2628 -0.2105  0.1014
 6809W        W20223   0.815   1.615  13.381  0.1864  0.2965  0.1680
 6810W        W20224   9.544  11.395  11.624 -0.2394 -0.0437  0.2786
 6811W        W20225  14.607   6.706   0.251  0.0261  0.0218 -0.3166
 6812W        W20226  13.112   7.956   0.398  0.4838  0.1166  0.0054
 6813W        W20227  17.692   9.069   2.096 -0.2089  0.1439 -0.0213
 6814W        W20228  12.925   5.965  10.145  0.0794 -0.4349 -0.0008
 6815W        W20229  10.111  13.644   1.814  0.3066 -0.0466 -0.1406
 6816W        W20230   4.153   7.728  10.637  0.2106  0.0481  0.0830
 6817W        W20231  16.370   2.008   0.684 -0.0441 -0.1155 -0.0921
 6818W        W20232  10.729   0.319  13.266 -0.1383 -0.1455  0.0243
 6819W        W20233   3.069  14.256   1.277  0.2345 -0.1621 -0.0018
 6820W        W20234   5.503  11.236  12.554  0.2171  0.1329  0.0055
 6821W        W20235   5.643   9.837   3.885  0.1232  0.0662  0.3213
 6822W        W20236   8.980   0.490   3.106  0.0497  0.0329 -0.0383
 6823W        W20237   0.164  12.899   4.990 -0.2211  0.2224 -0.2776
 6824W        W20238   7.608   2.847   2.411  0.0168 -0.1632 -0.0201
 6825W        W20239   3.845   8.100  14.221  0.1446 -0.0456 -0.0482
 6826W        W20240   5.603  16.769  13.877  0.0722  0.0824  0.1260
 6827W        W20241  14.014   1.986   5.570  0.0673  0.0637 -0.1443
 6828W        W20242  14.744  13.564  14.828 -0.2469  0.3558  0.0937
 6829W        W20243  10.270   0.592  13.140 -0.1091  0.0403 -0.4517
 6830W        W20244  15.416   4.364   2.411 -0.1242  0.1130  0.0222
 6831W        W20245  15.974   9.897   2.155  0.0616  0.0962  0.1667
 6832W        W20246  10.261   7.886   1.128 -0.1117  0.0472 -0.1010
 6833W        W20247  14.728  13.520   5.661 -0.0991  0.1356  0.0443
 6834W        W20248  13.323   3.745  12.962  0.1292  0.4840 -0.4056
 6835W        W20249   5.790   6.838  15.899 -0.0332  0.1129  0.1127
 6836W        W20250   0.559  12.820   6.138 -0.2334 -0.1021  0.1974
 6837W        W20251  10.640  15.466   6.068 -0.1172 -0.2073 -0.0953
 6838W        W20252   6.652  10.707   1.881 -0.1528 -0.2299  0.2021
 6839W        W20253   5.940  15.875  15.956 -0.1321  0.1692 -0.1214
 6840W        W20254   2.009   1.768  12.649 -0.0935 -0.1690  0.2170
 6841W        W20255  11.190   6.819   2.039 -0.1089 -0.1548  0.0455
 6842W        W20256  14.477  17.460   6.335 -0.2314  0.3291 -0.2098
 6843W        W20257   5.144  12.177  13.221 -0.2949  0.3415 -0.0445
 6844W        W20258   0.655   4.266   0.760 -0.0132  0.0910 -0.3527
 6845W        W20259  15.313  13.430   1.623  0.0537 -0.1758 -0.1940
 6846W        W20260   8.270  12.962   1.670  0.1787  0.1320 -0.1260
 6847W        W20261   9.909  17.911  14.740 -0.2876  0.5103 -0.0686
 6848W        W20262  15.821  13.433   0.358 -0.3486 -0.2479 -0.0214
 6849W        W20263   2.358  16.923  12.554 -0.0293  0.1499  0.2166
 6850W        W20264  13.827   8.460  15.920 -0.0328  0.1319 -0.0953
 6851W        W20265   4.094   4.415  11.968 -0.0145  0.1592  0.1076
 6852W        W20266  12.189  13.905   4.025 -0.0671 -0.0802 -0.4060
 6853W        W20267   5.137  13.602   0.977  0.0271  0.0531 -0.0417
 6854W        W20268   9.373   2.319  15.973 -0.0228 -0.0448 -0.0913
 6855W        W20269   1.042  10.675  15.163 -0.0171  0.2272 -0.1468
 6856W        W20270  15.262   2.263   3.836  0.1669 -0.1623  0.4469
 6857W        W20271   4.300   5.648  11.281  0.0731 -0.2353  0.1821
 6858W        W20272  10.257  14.017   4.691 -0.0565 -0.3306  0.1727
 6859W        W20273  11.519  15.136   2.784  0.1569  0.0227 -0.0769
 6860W        W20274   8.560   5.460   4.381  0.2425  0.0364  0.2500
 6861W        W20275   2.451   5.600  13.815  0.3641 -0.0364  0.2976
 6862W        W20276  11.122   0.242   6.834 -0.1285  0.0057  0.1916
 6863W        W20277  11.016   0.191   1.575  0.0287 -0.0926 -0.0058
 6864W        W20278   9.847  14.246  14.344  0.3608 -0.3871  0.0297
 6865W        W20279   6.890   1.651   2.498  0.4636  0.2187  0.1411
 6866W        W20280  17.182   4.403  12.693 -0.1725  0.1261 -0.1228
 6867W        W20281  13.978  10.925  11.553  0.1089  0.0052 -0.1234
 6868W        W20282   5.631  14.325   4.548 -0.0188 -0.0228  0.1332
 6869W        W20283   6.241  12.562  16.404 -0.1618  0.0361  0.0352
 6870W        W20284   4.284  14.952   0.106  0.2154  0.3161  0.0900
 6871W        W20285  17.991   6.353  15.035 -0.0276  0.4603  0.0025
 6872W        W20286  11.307   3.866   2.842  0.3436  0.0292 -0.1606
 6873W        W20287   2.175   7.846  10.476 -0.0210 -0.0700  0.2739
 6874W        W20288   5.887   1.738  12.025  0.3213  0.0669  0.0144
 6875W        W20289   9.708  11.475   3.830  0.0537  0.1888 -0.0383
 6876W        W20290   0.135   5.441  10.033 -0.2293 -0.0126 -0.1285
 6877W        W20291   5.887   7.361  14.856 -0.0228  0.0379 -0.3816
 6878W        W20292   0.413  11.537   0.825 -0.1003  0.2302  0.0823
 6879W        W20293   4.180   5.254  16.337 -0.1679  0.0445  0.1752
 6880W        W20294  10.463  10.956  14.047 -0.0765 -0.1764  0.0260
 6881W        W20295   9.545  11.140  12.158  0.0834  0.1226  0.2286
 6882W        W20296  17.691   4.722  13.279 -0.1819  0.1840  0.4497
 6883W        W20297  11.855   0.134  15.440  0.1398 -0.2263 -0.0125
 6884W        W20298   4.031  15.233  12.919  0.1642 -0.1091 -0.0378
 6885W        W20299  17.145   9.185   4.767  0.1693  0.0776 -0.2171
 6886W        W20300  16.340   1.500  11.769  0.0891 -0.5280 -0.0048
 6887W        W20301   6.077  16.958  11.898 -0.0923 -0.1108  0.1093
 6888W        W20302  16.436  17.830  14.085  0.1698 -0.2127 -0.1225
 6889W        W20303   1.036  16.367   1.910 -0.0968  0.0024  0.0011
 6890W        W20304  12.947  16.406  13.371 -0.2710 -0.1490  0.0538
 6891W        W20305   6.468   4.868  11.214  0.4023 -0.2484 -0.0748
 6892W        W20306  13.574  15.424  13.198  0.1255 -0.1707 -0.1391
 6893W        W20307   3.694  13.039   0.717 -0.0376  0.0421  0.1502
 6894W        W20308  11.903  13.481   0.141 -0.0055  0.0002  0.0941
 6895W        W20309   1.968  10.968   2.612  0.2220 -0.0296 -0.0421
 6896W        W20310   7.988  15.519  13.265  0.0585  0.2042  0.1871
 6897W        W20311  16.510  12.622  16.559  0.0897  0.0351  0.0454
 6898W        W20312  12.499  17.224   3.602 -0.1289 -0.1935 -0.0474
 6899W        W20313  11.706   6.616   0.603  0.1781 -0.1296 -0.0223
 6900W        W20314   5.530   6.465  12.840 -0.0698 -0.2490  0.2241
 6901W        W20315   9.896   8.300   3.838 -0.1602 -0.3345  0.3159
 6902W        W20316   8.027   7.831  13.445 -0.3095 -0.1609 -0.1730
 6903W        W20317  11.314   2.778  11.072 -0.2703 -0.1875  0.3802
 6904W        W20318   5.507  10.354  13.541 -0.1113  0.1664 -0.0741
 6905W        W20319   8.733  12.317  15.849  0.0373 -0.3113  0.0967
 6906W        W20320  16.822   5.218   3.508 -0.0267  0.0653 -0.1696
 6907W        W20321  15.730   0.262  12.379 -0.1176  0.2083  0.2820
 6908W        W20322   8.679  16.834  15.113  0.1027  0.3214 -0.0957
 6909W        W20323   9.460  11.478   5.963  0.2023  0.1738  0.1052
 6910W        W20324  11.606   3.779  16.310  0.0631  0.3528  0.1042
 6911W        W20325  13.928   0.154   1.284  0.1440  0.2219  0.1192
 6912W        W20326  16.039  10.440   2.116  0.2669 -0.0266 -0.0402
 6913W        W20327  12.887  13.556  14.928 -0.0627 -0.1829 -0.0262
 6914W        W20328   6.051   6.431   3.198  0.2441 -0.3746  0.0756
 6915W        W20329   8.907  12.766  12.280  0.2135 -0.0939  0.3414
 6916W        W20330  14.427   0.064  14.363  0.2490 -0.1004  0.1430
 6917W        W20331  11.636   5.001   5.098  0.1476 -0.4733 -0.1437
 6918W        W20332  17.172   5.772   2.770 -0.1922 -0.0884 -0.0504
 6919W        W20333  12.534   9.463   1.464 -0.1025  0.1591 -0.0434
 6920W        W20334  12.221  13.955   0.738  0.1327 -0.2795 -0.0279
 6921W        W20335   2.098  10.866   6.646 -0.1697  0.0001 -0.2030
 6922W        W20336  14.469  12.932   0.186 -0.1731  0.2723 -0.2184
 6923W        W20337   0.007  13.469   1.366 -0.0785  0.3011  0.0833
 6924W        W20338  10.229   3.724   5.123 -0.0022 -0.2718 -0.0742
 6925W        W20339   8.843   3.761  10.799 -0.0819 -0.0609 -0.1528
 6926W        W20340   2.578  15.073  16.536  0.0325 -0.1216  0.2380
 6927W        W20341   2.437   0.217   6.726  0.1254 -0.1727 -0.0421
 6928W        W20342  14.494   1.948   1.822  0.1291  0.1956 -0.0089
 6929W        W20343   3.898  15.291   2.126 -0.2438  0.0964 -0.0446
 6930W        W20344   8.629  12.529  11.473  0.0792  0.0643  0.3195
 6931W        W20345  17.903   2.974   4.801 -0.2029 -0.0921 -0.1511
 6932W        W20346  14.702  15.733  15.140  0.2325  0.1469  0.2041
 6933W        W20347  11.540   1.534   2.366  0.1497 -0.0010  0.2114
 6934W        W20348  14.467   7.866  12.688  0.1239  0.1997 -0.1139
 6935W        W20349   8.652  12.304   2.884  0.2218 -0.1166 -0.0247
 6936W        W20350  11.730  11.851  14.833  0.0646 -0.0975  0.3013
 6937W        W20351   2.883   7.966  15.501 -0.0138  0.0324 -0.0886
 6938W        W20352   0.799   4.727   4.864  0.2322 -0.1913 -0.3488
 6939W        W20353   6.687   2.558   1.864  0.0473  0.0808 -0.0362
 6940W        W20354  12.972  10.514  13.725 -0.0225  0.1624  0.2354
 6941W        W20355   0.953   7.274   3.974  0.3884  0.0200  0.0374
 6942W        W20356   8.030  16.407   3.297  0.0524 -0.0152 -0.0682
 6943W        W20357  10.504  12.158   1.967  0.0819  0.0006  0.2258
 6944W        W20358  16.933   6.251  14.028  0.1380  0.0995 -0.2714
 6945W        W20359  16.896  15.553   6.377 -0.0508  0.0764 -0.0583
 6946W        W20360  12.486  11.092   5.550  0.4325  0.0415  0.2583
 6947W        W20361  11.773   3.024  15.460 -0.2352  0.0639 -0.2603
 6948W        W20362  12.694   8.228   1.221 -0.2682  0.2224 -0.1714
 6949W        W20363   7.010  17.371  13.020  0.0742 -0.0168 -0.2831
 6950W        W20364   9.224  15.868   3.841  0.1370 -0.0897 -0.0655
 6951W        W20365   3.410   8.278  13.964  0.1013 -0.3444 -0.2638
 6952W        W20366   2.153  11.390  16.360  0.2175  0.0544  0.0045
 6953W        W20367   9.720  16.819   4.744  0.0564  0.0769  0.1121
 6954W        W20368   3.287  10.795   4.824  0.2050  0.0778 -0.2897
 6955W        W20369   4.723   0.710   1.934 -0.0535 -0.2050  0.2376
 6956W        W20370   3.073  15.562  14.649 -0.2136  0.1660  0.4102
 6957W        W20371   0.882  15.778  15.452  0.1215 -0.1855  0.0091
 6958W        W20372  14.806   7.241  14.915 -0.4384  0.1057  0.2361
 6959W        W20373  15.656  10.728  10.747  0.4274 -0.2127  0.0698
 6960W        W20374  11.697  14.230  13.056 -0.1305  0.1107 -0.1506
 6961W        W20375   0.207  13.351   0.367 -0.1840 -0.1356  0.3643
 6962W        W20376   8.426  11.926   5.738  0.1649  0.1155 -0.0421
 6963W        W20377  14.518   0.688   0.415  0.1465 -0.0314  0.5211
 6964W        W20378  13.003  17.671  12.450 -0.0721 -0.0732 -0.1697
 6965W        W20379   4.601  17.231   0.596  0.3835  0.1709 -0.0056
 6966W        W20380   7.225   0.390   2.530  0.2695  0.0165 -0.2394
 6967W        W20381   8.785   6.802   4.653  0.0338  0.3118  0.0215
 6968W        W20382  14.085   1.501  11.540  0.1330 -0.1310 -0.2355
 6969W        W20383   4.910   2.050   4.644  0.1382 -0.2795  0.0074
 6970W        W20384   4.007  14.771   2.367 -0.1526  0.0050 -0.1212
 6971W        W20385   9.075  15.402   4.206 -0.0720  0.0801 -0.0486
 6972W        W20386  15.118   8.934   2.159 -0.0530 -0.4211 -0.2157
 6973W        W20387  12.294   7.216   0.374 -0.3142 -0.0424  0.1766
 6974W        W20388   6.934   4.752  14.494 -0.0622  0.4112 -0.1358
 6975W        W20389  12.752   7.962  11.930 -0.0967 -0.1668 -0.0673
 6976W        W20390  10.794  15.133   2.100  0.0412 -0.0173 -0.0807
 6977W        W20391   2.470  15.289   3.442  0.2428  0.0564  0.3347
 6978W        W20392  17.344   5.676   1.231 -0.1519  0.0968  0.0757
 6979W        W20393   1.203  15.315   3.145  0.2382 -0.0777  0.1430
 6980W        W20394  17.516  16.889   1.442 -0.0808  0.2118  0.1750
 6981W        W20395  16.107   4.463  14.129 -0.0199  0.1353  0.0542
 6982W        W20396   7.280   2.959   2.752 -0.0280  0.0369 -0.0083
 6983W        W20397   9.044   1.485  13.908 -0.1207  0.0742 -0.0118
 6984W        W20398  17.017   0.348   3.077 -0.1772 -0.4144 -0.0085
 6985W        W20399   3.796  10.691   4.881 -0.0707  0.0223  0.0094
 6986W        W20400  10.283   4.771  11.835  0.0732 -0.3617  0.1292
 6987W        W20401  17.823  13.285   0.573 -0.2839  0.0532 -0.1838
 6988W        W20402  14.819  13.209  13.859  0.0149 -0.1368 -0.4420
 6989W        W20403   9.898  10.078   3.559 -0.1464  0.1746 -0.0265
 6990W        W20404  11.808   3.944  12.047 -0.0957  0.1538  0.0689
 6991W        W20405  10.434   6.581   4.361 -0.4790  0.0313  0.0898
 6992W        W20406   8.062  14.656   2.519  0.1573  0.1355  0.0798
 6993W        W20407  12.313  11.556  14.033  0.1735 -0.2998  0.0865
 6994W        W20408   7.333  14.961  12.358  0.2994  0.2837  0.1219
 6995W        W20409  14.568   8.524  14.983  0.1010  0.0095  0.1676
 6996W        W20410   8.084  15.889  11.275 -0.1653 -0.1199 -0.2089
 6997W        W20411  16.429   2.644   4.438  0.1374 -0.0584 -0.2086
 6998W        W20412  13.116  14.164  11.688 -0.1463  0.0734 -0.3846
 6999W        W20413  15.766   7.142  11.040  0.4343 -0.1439  0.2885
 7000W        W20414   6.598  17.985  16.398  0.0870 -0.1294  0.0980
 7001W        W20415   8.160  18.200   2.214  0.2756 -0.0588 -0.0962
 7002W        W20416  17.385   4.652  10.496 -0.2538 -0.2511  0.1658
 7003W        W20417   1.999   5.519   0.271 -0.1038 -0.2183 -0.1814
 7004W        W20418   9.593   5.082   5.710 -0.0462 -0.2323 -0.1320
 7005W        W20419  17.637   2.013  13.620 -0.0686 -0.1544 -0.1290
 7006W        W20420  13.196   4.997  14.681  0.1176  0.0085 -0.1518
 7007W        W20421   9.284   6.786   2.906 -0.1101 -0.1693  0.1776
 7008W        W20422  18.201   7.705   1.082 -0.1907 -0.3759 -0.1136
 7009W        W20423   7.371   4.887  13.435  0.0646  0.1251 -0.0107
 7010W        W20424   6.349  13.497  14.752 -0.4077 -0.0122  0.2169
 7011W        W20425  12.174   2.444   1.694  0.0349  0.1356  0.1984
 7012W        W20426   7.807   0.778   5.396 -0.2817  0.1632 -0.2674
 7013W        W20427  11.795  18.006  14.517 -0.0688  0.0517  0.0750
 7014W        W20428   3.417   8.405  13.399  0.0812  0.0281  0.0489
 7015W        W20429   8.004  11.987   6.003 -0.0563  0.1077  0.1046
 7016W        W20430  13.443   5.434  15.785 -0.2157  0.1472  0.1592
 7017W        W20431  16.289  17.712  16.042 -0.3662 -0.0672 -0.1351
 7018W        W20432   9.129  11.839   2.900  0.0500  0.1227 -0.3651
 7019W        W20433   7.323  10.939   0.075 -0.2699  0.2481  0.1291
 7020W        W20434   0.355  18.014   3.748 -0.2242  0.0821  0.0583
 7021W        W20435   1.184  10.732   5.739 -0.0348 -0.0340  0.1761
 7022W        W20436  12.601  17.275   1.293  0.2730 -0.0834  0.2462
 7023W        W20437   2.872   2.133   0.132 -0.2650  0.0576 -0.2453
 7024W        W20438  12.820  12.979  14.878  0.1925  0.1185  0.0320
 7025W        W20439   4.104   3.048   0.624  0.0848 -0.3266 -0.0038
 7026W        W20440   4.441  12.637   2.420 -0.1232 -0.1173 -0.0416
 7027W        W20441  13.558  10.531   3.160 -0.1492  0.3106  0.1645
 7028W        W20442  18.262   1.676  15.674  0.0553  0.1575  0.2376
 7029W        W20443   8.323   0.341  16.285 -0.1594  0.0023  0.1593
 7030W        W20444  11.836  14.632  11.890 -0.1577 -0.2362 -0.1358
 7031W        W20445   4.073   3.188  12.802 -0.2115 -0.1329 -0.0868
 7032W        W20446  14.243  14.906   1.414  0.0467  0.1810  0.0445
 7033W        W20447  13.590  14.922   4.306 -0.2094 -0.0175  0.0988
 7034W        W20448   9.147  11.682   1.523 -0.1506 -0.2073 -0.1974
 7035W        W20449   8.589   4.448   1.785  0.1467  0.0417  0.0793
 7036W        W20450   6.003  11.072  13.503 -0.0900  0.3009  0.1004
 7037W        W20451   1.975  15.527  14.016 -0.0894 -0.2570 -0.0556
 7038W        W20452  15.772   0.659  10.828  0.0374 -0.1255 -0.1093
 7039W        W20453  13.237  12.368  12.963 -0.3681 -0.1386  0.2427
 7040W        W20454  14.675   2.460   4.395  0.3323 -0.3598 -0.0391
 7041W        W20455  14.499  16.385   1.805 -0.2916  0.1437  0.1098
 7042W        W20456   5.434   2.951  10.979  0.0574  0.0198  0.0706
 7043W        W20457  14.959   0.272   3.680  0.2130  0.0440  0.2899
 7044W        W20458   3.447   8.403  15.753  0.1422  0.1341 -0.0471
 7045W        W20459  16.428  11.763   5.764 -0.1110  0.0242 -0.2276
 7046W        W20460  10.754  18.084   0.614 -0.0466 -0.0913  0.1786
 7047W        W20461   5.472   0.885   1.870 -0.0351 -0.0156 -0.0735
 7048W        W20462   5.758   9.050  13.200 -0.1397  0.0810 -0.2359
 7049W        W20463   1.012   1.696   0.177  0.1104  0.1505 -0.3002
 7050W        W20464  13.919   9.117   1.527 -0.1985  0.3767 -0.1177
 7051W        W20465   3.746  16.231  15.898  0.1047 -0.0896  0.1997
 7052W        W20466   2.023   4.731  15.265 -0.0464  0.0599  0.2316
 7053W        W20467   0.737   7.466   5.688  0.0273  0.1363 -0.0801
 7054W        W20468   6.707   2.620  13.540  0.0969  0.3030 -0.0616
 7055W        W20469   2.944   3.184   5.740  0.0657 -0.1275  0.0425
 7056W        W20470   3.682  13.975   0.746  0.0791 -0.2816  0.0154
 7057W        W20471   2.791  11.274  14.659 -0.0524 -0.0304 -0.0423
 7058W        W20472   2.790   1.706   0.363  0.2446 -0.3618 -0.0628
 7059W        W20473   1.111  11.142  16.028  0.1890  0.1586  0.1003
 7060W        W20474  15.483  11.803  11.310 -0.0132  0.0214 -0.0661
 7061W        W20475  11.929   4.601  14.567 -0.2631  0.6233  0.0986
 7062W        W20476   1.238  11.827   1.173  0.2015  0.0646 -0.2153
 7063W        W20477   8.292  14.251  13.989 -0.0421 -0.0991  0.1773
 7064W        W20478  17.318   4.715   1.300 -0.0539  0.0169  0.3827
 7065W        W20479   8.828  13.688  11.963  0.0094  0.0056  0.0588
 7066W        W20480   0.408  14.012   3.580 -0.0341 -0.3439 -0.3093
 7067W        W20481  13.550  12.773  12.777  0.2154  0.0142 -0.1499
 7068W        W20482   7.261   1.146  13.194 -0.2647  0.2260 -0.0147
 7069W        W20483  18.000   1.956  10.172  0.0450  0.2285  0.1754
 7070W        W20484   5.512  14.632  15.698 -0.1040  0.0320 -0.1207
 7071W        W20485  10.348   8.915   3.324  0.0557 -0.0073  0.0048
 7072W        W20486  11.273  10.125  14.692  0.2021 -0.0884 -0.2791
 7073W        W20487   9.985  11.035   3.829 -0.0744  0.0312  0.0579
 7074W        W20488  14.762  12.198   5.740 -0.3219 -0.0578 -0.4253
 7075W        W20489   1.815   1.997   2.268 -0.1437 -0.2238 -0.1506
 7076W        W20490   2.385   9.508   5.820  0.2213 -0.2765 -0.1332
 7077W        W20491  15.302  15.746  15.248 -0.2037 -0.0222  0.3930
 7078W        W20492  17.937   7.662  10.687 -0.0333  0.0316 -0.1347
 7079W        W20493   5.093  14.406  15.896  0.2319  0.2525  0.1264
 7080W        W20494  12.718   7.306  11.003 -0.1278 -0.1103 -0.1351
 7081W        W20495  14.293  14.119  10.832 -0.1073  0.0050 -0.2476
 7082W        W20496   6.360  13.108  13.388  0.3249  0.0544 -0.1211
 7083W        W20497  16.863   8.244  11.562  0.2546  0.4546  0.1628
 7084W        W20498   9.382   1.503   6.463 -0.3115 -0.2496  0.0384
 7085W        W20499   6.058  15.900  15.458 -0.0127  0.1410  0.1498
 7086W        W20500  16.074   2.078   5.076 -0.0102 -0.2584  0.1067
 7087W        W20501  15.561   4.433   1.089  0.0310 -0.0800  0.3406
 7088W        W20502  12.609  11.233   1.332 -0.0282 -0.0969  0.1124
 7089W        W20503   7.848  12.660  15.542  0.2806 -0.1729 -0.0951
 7090W        W20504   8.114   5.039  15.797 -0.1183  0.0342  0.0528
 7091W        W20505  18.191  12.559  15.997 -0.0615 -0.0739  0.0524
 7092W        W20506  16.119   0.133   3.553  0.0698 -0.1732  0.1414
 7093W        W20507  12.118   4.001   1.262 -0.1122  0.0912 -0.0206
 7094W        W20508  14.539   4.135   3.363 -0.0173  0.1136 -0.0781
 7095W        W20509   0.378  14.198   4.948 -0.2259 -0.1737  0.0951
 7096W        W20510   0.473   1.836  11.134 -0.0495  0.3366  0.2147
 7097W        W20511   9.045   5.357   4.246  0.1339 -0.0643  0.0062
 7098W        W20512  13.303  13.562  12.522  0.0851 -0.1827 -0.0878
 7099W        W20513   3.266   7.260   4.931  0.1677 -0.2145 -0.0776
 7100W        W20514   8.013  16.403   5.254  0.0595 -0.0040  0.1329
 7101W        W20515  14.998  12.207  10.203  0.0547 -0.0276  0.1530
 7102W        W20516   1.768  16.571  13.633 -0.3674 -0.1534  0.1582
 7103W        W20517  17.986  13.222   4.867 -0.1424  0.0241  0.1166
 7104W        W20518   3.330   1.932  15.780 -0.2468  0.0258 -0.1175
 7105W        W20519   9.784   5.818  15.108 -0.1396 -0.1267 -0.0363
 7106W        W20520  14.672  15.845   5.434  0.0152  0.2445  0.1091
 7107W        W20521  15.963  13.705   2.418 -0.1808  0.2213 -0.0370
 7108W        W20522  16.395   6.192  10.134  0.0387  0.1592 -0.0469
 7109W        W20523  12.969  11.485   3.274 -0.0403  0.2373 -0.0243
 7110W        W20524  14.790   0.089  14.029  0.2099  0.0104  0.3657
 7111W        W20525  10.853  16.280  15.860  0.2082  0.1617  0.1644
 7112W        W20526   9.974  12.584   0.699 -0.0176 -0.1745  0.0114
 7113W        W20527   2.375  15.732  13.468 -0.0544  0.0034  0.4006
 7114W        W20528   5.260   0.043   5.588  0.1484  0.1287 -0.2346
 7115W        W20529   7.929  16.385   0.311 -0.4094 -0.0204 -0.1246
 7116W        W20530   6.612  13.877  14.002  0.0338  0.0510  0.0217
 7117W        W20531  13.472   8.071  10.770 -0.2291 -0.0085  0.1898
 7118W        W20532  16.039   0.948   2.616  0.0243 -0.0376 -0.0086
 7119W        W20533   2.866  18.154  13.553 -0.3306  0.0003 -0.1674
 7120W        W20534   2.473   3.519  12.873  0.0308 -0.1301  0.1987
 7121W        W20535   7.683   2.883   0.357  0.3692 -0.0410 -0.2909
 7122W        W20536   6.568   9.711   5.196 -0.1395  0.0334 -0.3687
 7123W        W20537  13.219  17.234  12.433  0.0132  0.0504 -0.0708
 7124W        W20538   2.907   6.453   3.612  0.2103  0.3668  0.3342
 7125W        W20539   4.663   6.267   3.943  0.2399 -0.4209  0.0925
 7126W        W20540   9.584   9.592   0.442  0.2102 -0.2386  0.1442
 7127W        W20541   1.628  15.976  14.815 -0.2258  0.2132  0.0424
 7128W        W20542   5.517  12.100  14.012  0.0585  0.1107 -0.0362
 7129W        W20543  18.042   0.754  12.059  0.2961  0.1916  0.2702
 7130W        W20544   8.167   5.993   1.353 -0.1581  0.1670 -0.2507
 7131W        W20545   6.290  16.275  13.948 -0.0483  0.3625  0.0174
 7132W        W20546  15.287  14.726   6.072 -0.0641  0.0769 -0.2619
 7133W        W20547  17.175  14.094   5.753 -0.1578 -0.2032  0.0717
 7134W        W20548  11.700   6.465  12.485 -0.0803 -0.1766  0.4904
 7135W        W20549  15.540  15.286  11.463  0.1865  0.2685  0.1768
 7136W        W20550   3.315  15.021   3.815 -0.0197  0.1199  0.1509
 7137W        W20551   1.777  14.181  15.309 -0.0500  0.1929  0.0710
 7138W        W20552   0.847  13.080   1.886 -0.0243  0.0388  0.0092
 7139W        W20553  12.361  11.458   3.129 -0.1610  0.0798  0.2611
 7140W        W20554   2.014  15.250  15.495 -0.0504 -0.0917 -0.1879
 7141W        W20555   9.767  12.264  11.400 -0.1953  0.1843 -0.2617
 7142W        W20556  11.147   9.122   2.064  0.1554 -0.1019 -0.2110
 7143W        W20557   2.259   9.659   0.919  0.0677  0.2985  0.1240
 7144W        W20558  14.609  10.216  12.898  0.3751  0.0052 -0.1224
 7145W        W20559   9.419  11.759   5.138 -0.1675 -0.0721 -0.0106
 7146W        W20560  11.177   5.291   1.736 -0.0646  0.2862 -0.0407
 7147W        W20561  11.873   8.480  12.365 -0.0819 -0.2032 -0.1626
 7148W        W20562   5.236   0.420  10.475 -0.3937 -0.2347  0.1127
 7149W        W20563  16.219  17.662   2.663 -0.0407 -0.0867 -0.0573
 7150W        W20564  17.186  14.016  16.530 -0.2770 -0.0249 -0.0588
 7151W        W20565  15.193  16.341   4.886  0.1331  0.0245  0.2229
 7152W        W20566   2.741  10.498   2.843  0.1605  0.0290  0.1113
 7153W        W20567   7.490  14.864   1.040  0.1866 -0.3088  0.0113
 7154W        W20568  14.125   6.372  11.469 -0.3947  0.0217  0.1782
 7155W        W20569  13.522   2.584   4.984 -0.4247 -0.2392 -0.0780
 7156W        W20570   7.448   1.950   5.803 -0.1442  0.5873  0.2925
 7157W        W20571   4.335   4.910   3.654  0.0162  0.0773 -0.1143
 7158W        W20572   6.673   8.523  16.077  0.0923  0.0976 -0.3795
 7159W        W20573  14.103   9.180   0.786 -0.0256  0.0893 -0.2985
 7160W        W20574   2.069  14.391   5.746  0.1862  0.0418 -0.2544
 7161W        W20575  18.063  13.294  13.016 -0.0430 -0.0648  0.0368
 7162W        W20576  12.171   9.769  14.377  0.1515 -0.2728  0.0062
 7163W        W20577  14.167  13.679   4.912  0.0907 -0.2290 -0.1661
 7164W        W20578   1.656   9.921  15.934 -0.5094  0.0256 -0.1130
 7165W        W20579   4.804   2.416   2.978  0.3324  0.0894 -0.2529
 7166W        W20580  16.089   4.833  14.481  0.0553  0.2124  0.2267
 7167W        W20581   3.390   9.398  15.337  0.0889 -0.1864  0.0908
 7168W        W20582   2.660   1.136   5.590 -0.1046  0.1944  0.1231
 7169W        W20583   2.498   9.047   6.288  0.2320 -0.0719  0.0551
 7170W        W20584  16.800   5.541  14.705  0.1716  0.1964  0.3541
 7171W        W20585  10.613   7.308  15.965 -0.0710 -0.1165 -0.1609
 7172W        W20586  10.390   6.702   5.385 -0.2389  0.0196  0.0020
 7173W        W20587   8.564   1.971  16.457 -0.0462 -0.0401 -0.1945
 7174W        W20588   1.375  14.203  15.666 -0.1499 -0.3476 -0.2012
 7175W        W20589  13.493  14.888  14.444  0.3805 -0.1859 -0.0368
 7176W        W20590   4.278  12.002  10.976 -0.1391 -0.4306  0.1105
 7177W        W20591   2.106   5.511  14.670 -0.1446 -0.1963  0.3472
 7178W        W20592  13.119  11.695   6.063 -0.2104 -0.3105 -0.1495
 7179W        W20593   6.387  17.124  11.335 -0.1129 -0.1733 -0.3976
 7180W        W20594   8.383  16.508   0.274  0.3014  0.0677 -0.2795
 7181W        W20595   8.567   1.115   3.007  0.1389 -0.2715 -0.0340
 7182W        W20596   1.006  11.808  12.096  0.1539 -0.1716 -0.2309
 7183W        W20597  12.924   9.501  14.669 -0.1498 -0.0846 -0.3797
 7184W        W20598   4.905  17.297  11.479  0.1848 -0.1179 -0.0682
 7185W        W20599  15.376  17.294   4.628 -0.2275  0.1586 -0.1916
 7186W        W20600   0.347   1.196   2.875 -0.1810  0.0066 -0.0729
 7187W        W20601  15.818   3.749  11.904  0.1530  0.5126  0.0554
 7188W        W20602  10.352  12.640   4.956 -0.0594 -0.0339 -0.2885
 7189W        W20603   4.599   9.072   2.825 -0.0279  0.2890 -0.1653
 7190W        W20604   6.938  10.419   2.783 -0.0743 -0.0753 -0.1246
 7191W        W20605   2.989   7.003   9.620 -0.1293 -0.0639  0.0495
 7192W        W20606  10.201   2.809   4.837 -0.0074  0.0591  0.1413
 7193W        W20607   1.539  13.113  11.988  0.1346 -0.0876 -0.1874
 7194W        W20608   0.078  17.897   5.093  0.1764  0.0768  0.0703
 7195W        W20609   6.305  13.345  11.637 -0.0842  0.3022 -0.1174
 7196W        W20610   4.929  11.539   6.536 -0.0823 -0.2143 -0.1635
 7197W        W20611  12.614   0.508  13.321  0.2460 -0.0222 -0.1107
 7198W        W20612   5.046  11.450   2.249  0.1557 -0.2817 -0.1197
 7199W        W20613  18.158   3.784  14.296 -0.0680  0.2693 -0.0979
 7200W        W20614  12.066   5.710   1.017  0.0488  0.5396  0.2020
 7201W        W20615   9.637  15.743   0.876  0.1970  0.1187  0.1573
 7202W        W20616   1.357   4.280  14.302 -0.3295  0.0024  0.0112
 7203W        W20617   3.201   0.773   1.163  0.2662 -0.0424  0.0200
 7204W        W20618   5.096   2.895  11.299  0.2871  0.1801  0.1150
 7205W        W20619   0.262  15.043  12.704  0.1453 -0.0288 -0.0552
 7206W        W20620  13.030  12.948  11.125 -0.3465 -0.1372  0.0734
 7207W        W20621  11.658  14.689   1.925 -0.1614 -0.0951 -0.3640
 7208W        W20622   5.016   0.012   3.652  0.1288 -0.3486  0.0550
 7209W        W20623  10.280   8.053   2.466  0.0749 -0.0111 -0.2931
 7210W        W20624  14.188   3.155  16.435  0.3597 -0.0645 -0.0274
 7211W        W20625  10.326   6.509   1.758 -0.1177 -0.1367  0.2281
 7212W        W20626  11.748  12.570   4.341  0.1473  0.0634 -0.1806
 7213W        W20627   2.957   9.203   1.433  0.3204 -0.3515  0.2715
 7214W        W20628  13.701  10.057  16.271  0.1067  0.0438  0.0107
 7215W        W20629  17.992  14.306  13.777 -0.0836 -0.1463  0.3345
 7216W        W20630  17.577   3.615   4.137 -0.0583  0.0356 -0.1965
 7217W        W20631  17.226   1.122   0.690 -0.1679 -0.0601  0.3337
 7218W        W20632   1.908   2.198   4.632 -0.1199  0.0600  0.1178
 7219W        W20633   0.714  12.600   0.850 -0.1709  0.2633  0.0569
 7220W        W20634  12.178  13.886  15.939 -0.1675 -0.1187  0.1631
 7221W        W20635  13.552  10.325  14.932  0.1167  0.0124 -0.0018
 7222W        W20636  17.022   5.596   0.425 -0.2605 -0.0195 -0.0207
 7223W        W20637  10.107  12.785   1.869  0.0744 -0.1611 -0.2628
 7224W        W20638   0.913   4.871  10.354  0.0857 -0.0919  0.3017
 7225W        W20639  17.894  11.521   4.792  0.0960 -0.1257  0.0547
 7226W        W20640  13.730   4.258   3.239  0.0052 -0.1965 -0.0749
 7227W        W20641  16.388  16.117  13.592 -0.0225 -0.0420  0.1541
 7228W        W20642   6.030  11.850  14.759  0.0491 -0.0569  0.0024
 7229W        W20643   3.997  17.217   3.741  0.2313 -0.0688  0.0075
 7230W        W20644  11.072   4.791   0.981  0.0607  0.2042 -0.1393
 7231W        W20645  13.392   9.939  10.380 -0.4542 -0.1000  0.2452
 7232W        W20646  17.364   9.617   0.679  0.0013  0.1519 -0.1224
 7233W        W20647  10.830  12.740   3.100 -0.0663  0.1726  0.1418
 7234W        W20648   9.828  11.457  14.560  0.1056 -0.1264 -0.2224
 7235W        W20649   4.058  12.979   4.507 -0.0436  0.1859 -0.1120
 7236W        W20650   6.968  12.209  15.833 -0.2487  0.0129  0.1664
 7237W        W20651  17.120  10.964  13.810  0.2632 -0.6685  0.0023
 7238W        W20652   3.094  15.904  14.256 -0.3551 -0.0044  0.0148
 7239W        W20653   8.884   6.950   5.903  0.0795  0.0265  0.0583
 7240W        W20654  11.884   7.841   1.333  0.1267  0.4185 -0.3064
 7241W        W20655   1.967  12.250  13.310 -0.0881 -0.1479  0.2122
 7242W        W20656   8.718   1.716  12.218  0.2486 -0.1884 -0.0562
 7243W        W20657   0.136   5.986   2.736 -0.2754  0.1446  0.2299
 7244W        W20658  10.777  11.669   4.816 -0.0007  0.3272  0.0828
 7245W        W20659   1.326   4.795   0.721 -0.0912 -0.2353 -0.1986
 7246W        W20660  13.350  15.902  13.331  0.3287  0.0334  0.0357
 7247W        W20661  15.733  17.062   4.879 -0.1191  0.0701 -0.2130
 7248W        W20662   6.293   8.572   0.415  0.1161  0.0798 -0.0472
 7249W        W20663  10.913  13.288   4.922  0.2528  0.0252 -0.1424
 7250W        W20664  14.105  17.070  11.454  0.0150 -0.0189 -0.0188
 7251W        W20665  16.777   9.484  12.199  0.4387 -0.1047 -0.1483
 7252W        W20666   9.439  11.304  11.044  0.0311 -0.0471 -0.0833
 7253W        W20667  17.601   0.521  12.316  0.3864 -0.0357  0.2321
 7254W        W20668  13.328  15.361   2.400 -0.2117  0.0993 -0.0870
 7255W        W20669  16.718  14.466   0.137  0.0422  0.1754  0.0519
 7256W        W20670  17.631  14.860  12.501  0.0191  0.0443  0.0713
 7257W        W20671   1.709  15.426  15.938  0.1746 -0.0519  0.1589
 7258W        W20672   5.654   1.987  11.042 -0.3832 -0.2317  0.2145
 7259W        W20673  10.751   2.661  11.020  0.0426  0.1499 -0.2986
 7260W        W20674  15.706   8.773   0.618 -0.2490  0.2778 -0.0546
 7261W        W20675   5.932   8.387   1.766  0.4021 -0.0429 -0.1040
 7262W        W20676  17.658   1.060   2.656  0.0331 -0.4251  0.2137
 7263W        W20677  10.310  17.552  11.918 -0.0795  0.0469 -0.0464
 7264W        W20678   9.845  11.720   3.339  0.0460 -0.1605  0.4445
 7265W        W20679   5.154   7.418  10.771 -0.0114  0.4363  0.1272
 7266W        W20680   8.891   8.496  16.336  0.0898 -0.1070  0.1514
 7267W        W20681   5.907   9.763  15.341 -0.0255 -0.1414 -0.1921
 7268W        W20682   8.067   5.740   5.499 -0.4321 -0.0347  0.0466
 7269W        W20683   3.757   2.760  12.910  0.1111 -0.2402  0.2090
 7270W        W20684   0.763   4.068  13.952  0.1138  0.0469 -0.2808
 7271W        W20685   1.258   6.054  11.990  0.1191  0.0700  0.1871
 7272W        W20686  12.035   5.216   5.856 -0.0799  0.0134  0.3614
 7273W        W20687  15.207   5.683  14.337 -0.2357  0.2203 -0.0080
 7274W        W20688  17.003  16.474   2.990 -0.0920 -0.1970 -0.0570
 7275W        W20689   7.677   2.883   3.620 -0.1508 -0.1542  0.1939
 7276W        W20690   3.445  16.494  14.749  0.1720  0.0635  0.1639
 7277W        W20691  17.666   6.896   1.598  0.2372  0.1155  0.1278
 7278W        W20692  16.223   2.480  16.409 -0.3221 -0.2203  0.0530
 7279W        W20693   2.751  13.076   5.566  0.1371 -0.2869 -0.0228
 7280W        W20694  14.100   3.106  10.512  0.2777  0.3436 -0.0882
 7281W        W20695   2.206   8.685  15.491  0.1053 -0.1236  0.0574
 7282W        W20696   0.690   2.004   0.826  0.3600  0.2322 -0.2995
 7283W        W20697   6.738   3.587   3.174  0.3430 -0.3424  0.3229
 7284W        W20698  13.464   3.355   2.247  0.0713 -0.0718  0.1705
 7285W        W20699   1.553   7.567   4.690 -0.2416 -0.0281 -0.2138
 7286W        W20700  15.147   1.051   0.154  0.1762  0.0098  0.1100
 7287W        W20701  11.119   7.243   3.324 -0.1999  0.4667  0.1726
 7288W        W20702  13.643  11.184   1.001 -0.0755 -0.1875  0.0575
 7289W        W20703   8.670  18.067  15.043 -0.0662 -0.0747 -0.1406
 7290W        W20704  13.146  13.965   1.276 -0.0192  0.0381  0.0024
 7291W        W20705   8.708   9.681   5.485 -0.0170  0.0554  0.1689
 7292W        W20706  12.217  10.170  13.876 -0.3914 -0.3892 -0.1544
 7293W        W20707  11.207  17.423  13.420  0.4886 -0.0412  0.0918
 7294W        W20708   2.685   0.917  16.349  0.2545  0.0163  0.1127
 7295W        W20709  14.678   6.273  10.330 -0.2967 -0.0514 -0.0563
 7296W        W20710  15.302  18.249   0.388  0.0704  0.2817  0.1394
 7297W        W20711   0.321   6.831  15.299 -0.6204 -0.2178  0.0775
 7298W        W20712   6.277  10.711  12.481 -0.2389  0.0675  0.2393
 7299W        W20713   3.347  11.471   5.391  0.1106  0.0285  0.2166
 7300W        W20714  12.905   7.664  14.547  0.5429  0.1109 -0.0996
 7301W        W20715   7.798  15.774   3.918 -0.0384  0.4139 -0.2295
 7302W        W20716   9.994  14.152  14.915 -0.1907 -0.1032 -0.1661
 7303W        W20717  16.803  15.135   5.529  0.1858  0.1383 -0.0122
 7304W        W20718   6.874  12.737   3.620 -0.2478 -0.0401 -0.1938
 7305W        W20719   3.610  18.197  10.606  0.0185  0.0449  0.3125
 7306W        W20720   7.002   5.611   3.576  0.0097  0.2928  0.0002
 7307W        W20721   5.529  15.101   3.349 -0.2501  0.1973  0.2311
 7308W        W20722   6.549   8.216   2.454 -0.2632  0.1013 -0.2726
 7309W        W20723   9.139  16.332   3.549  0.3744 -0.0708 -0.1117
 7310W        W20724   0.868   0.234  15.241 -0.1089 -0.0352 -0.2377
 7311W        W20725   9.101  11.894  14.152  0.0504 -0.0730 -0.2533
 7312W        W20726  10.883   8.329   0.578  0.0571  0.2442  0.1241
 7313W        W20727  14.078  10.408   4.968  0.1684  0.2038 -0.1104
 7314W        W20728   3.327   6.399   3.315  0.0178  0.1139  0.2025
 7315W        W20729  13.507  11.950   0.506  0.3115 -0.0245  0.0435
 7316W        W20730  14.287  11.039   9.911  0.0522  0.3086  0.2532
 7317W        W20731   1.397   1.188   3.399 -0.0419 -0.0469  0.1453
 7318W        W20732   6.476  17.250  11.820 -0.0744 -0.1991 -0.0163
 7319W        W20733  16.650  16.717  11.111  0.1198 -0.0772  0.2511
 7320W        W20734  16.441   9.661   3.435 -0.2486 -0.0868  0.1946
 7321W        W20735  12.647  12.984   3.238 -0.1657 -0.4350 -0.1190
 7322W        W20736   3.403   0.385  14.276 -0.0769  0.2693 -0.2866
 7323W        W20737   8.446   0.808   2.574 -0.1617  0.1748  0.1508
 7324W        W20738   3.641  14.740  11.409 -0.0008  0.2175 -0.0668
 7325W        W20739  18.054  12.920   5.326  0.2235  0.0941  0.0883
 7326W        W20740  17.959  15.148   6.337  0.1111  0.0865  0.1254
 7327W        W20741   9.117   3.137   0.813  0.0232  0.0180 -0.1059
 7328W        W20742   6.272  16.640   4.575  0.1692 -0.0688  0.2780
 7329W        W20743   4.839   9.533  12.754  0.2173  0.2979 -0.0773
 7330W        W20744   0.418   2.087  11.530 -0.0583 -0.3350 -0.1851
 7331W        W20745  13.401   5.279   0.466  0.1502  0.0246  0.0310
 7332W        W20746  10.622   3.458  16.250  0.0473  0.1727  0.2377
 7333W        W20747   6.657   3.800  14.186 -0.3697  0.1074  0.0734
 7334W        W20748   9.594   4.385   3.241  0.2941  0.3514 -0.1424
 7335W        W20749  11.852  15.092   6.984  0.1850  0.0075  0.0804
 7336W        W20750  12.533   9.986  10.201 -0.3553  0.2438 -0.0030
 7337W        W20751   1.957  17.780   4.850 -0.3317 -0.0545  0.2334
 7338W        W20752   4.961   0.851  12.381  0.3681 -0.0273 -0.1234
 7339W        W20753   0.242   4.573   0.760  0.1352 -0.0871 -0.0571
 7340W        W20754  11.376  16.331  14.402  0.2048 -0.0793  0.0448
 7341W        W20755  11.686   8.404  13.832 -0.1418 -0.3213 -0.0328
 7342W        W20756  16.386   2.492  14.202  0.4829 -0.0512  0.1013
 7343W        W20757   3.995  17.585  11.608 -0.4222  0.2377  0.1301
 7344W        W20758   8.082  16.610   5.690 -0.0551 -0.1124 -0.1603
 7345W        W20759   2.930   9.607   3.609  0.0102  0.3239 -0.0559
 7346W        W20760  16.400   1.770   2.296 -0.0907 -0.1821  0.1198
 7347W        W20761   0.361  10.282  11.680  0.2346  0.0748 -0.0178
 7348W        W20762  18.027  10.679  13.444  0.1633 -0.0783 -0.1656
 7349W        W20763   5.644  12.709   6.306 -0.0053 -0.0151  0.1823
 7350W        W20764  14.889  13.030   5.473 -0.4080  0.0295 -0.1136
 7351W        W20765  14.774  13.703  11.837  0.4382  0.1871 -0.2541
 7352W        W20766   2.482  11.529   2.076  0.1012 -0.0265 -0.1058
 7353W        W20767   4.304  18.011  16.197  0.1219 -0.1839 -0.0653
 7354W        W20768   1.462   3.071  12.125 -0.0184 -0.0213  0.3668
 7355W        W20769   3.300   2.870  14.234 -0.0296  0.0162 -0.4377
 7356W        W20770  13.824   4.234  14.727 -0.1045  0.0536  0.0486
 7357W        W20771   9.019  14.712  15.476 -0.1802 -0.0250 -0.0583
 7358W        W20772   8.325   4.520  13.342 -0.3170 -0.1885 -0.0443
 7359W        W20773   2.855   0.416   1.918  0.2112  0.1385 -0.0463
 7360W        W20774   1.480  15.547   2.335  0.1267  0.3516 -0.3736
 7361W        W20775   0.692   0.043  13.935 -0.0142  0.1460 -0.0565
 7362W        W20776   8.430  13.444  11.678 -0.0925  0.2862  0.2745
 7363W        W20777   8.675   0.240  13.697 -0.1819  0.2461 -0.1779
 7364W        W20778   2.912   1.244  13.473 -0.0941  0.2413 -0.1847
 7365W        W20779   4.362   7.866   2.314  0.0149  0.0242 -0.0536
 7366W        W20780  12.608   5.712  14.617  0.2434 -0.1020  0.2305
 7367W        W20781  14.783   4.786  15.282 -0.0633  0.0622 -0.1548
 7368W        W20782  12.530   8.220  16.163  0.0486  0.1880  0.1892
 7369W        W20783   3.946   0.770  11.331 -0.1705  0.0226 -0.2597
 7370W        W20784  13.153   3.564   2.706 -0.3597  0.2604  0.1503
 7371W        W20785   4.845  10.017   4.559 -0.1762  0.0234  0.1964
 7372W        W20786  12.388   2.151  14.622 -0.1868 -0.2508  0.1160
 7373W        W20787  10.322   1.260   6.984  0.2421 -0.2577  0.1495
 7374W        W20788   6.233  14.311   0.741 -0.0229 -0.2017  0.0452
 7375W        W20789  13.178  10.179   4.817  0.0672  0.0862 -0.0202
 7376W        W20790  12.919  10.404  10.994 -0.2187  0.0005 -0.0640
 7377W        W20791   7.389  13.662   5.016 -0.1732  0.2839 -0.0504
 7378W        W20792  16.308   0.788   5.774 -0.1388  0.0692  0.0549
 7379W        W20793   9.130   6.036   2.138 -0.2940 -0.0260  0.1800
 7380W        W20794  14.011  15.600  12.168  0.2575 -0.1435 -0.0203
 7381W        W20795   2.143  13.968   2.365  0.1253 -0.3088  0.2094
 7382W        W20796  17.491   5.817  10.785 -0.1931 -0.0008 -0.0807
 7383W        W20797   2.270  13.852  11.668  0.1086 -0.1231 -0.3010
 7384W        W20798  10.419  13.815   4.251  0.0164 -0.0867  0.1373
 7385W        W20799   9.973  15.325  12.326  0.0086 -0.3072  0.0440
 7386W        W20800  18.192  11.331  15.649  0.2060 -0.1430  0.0764
 7387W        W20801   5.321  13.941  12.701  0.3374 -0.0480  0.0747
 7388W        W20802   4.191   3.112  10.938  0.1718  0.3193 -0.0660
 7389W        W20803  17.078  12.783  13.972  0.3957 -0.0723 -0.1396
 7390W        W20804   8.175   4.451  15.878  0.3609  0.0199  0.0470
 7391W        W20805  17.075   1.324   3.749 -0.0599  0.0915  0.0014
 7392W        W20806  12.028  16.555   2.102 -0.0128  0.3001 -0.0473
 7393W        W20807  15.110  14.555   4.701  0.0518  0.1756  0.2007
 7394W        W20808  17.360   0.722  10.238 -0.1086 -0.1377 -0.1808
 7395W        W20809  11.249  12.064  15.667 -0.0149 -0.4862  0.1466
 7396W        W20810  11.160  17.860   2.168 -0.0798  0.1038  0.0421
 7397W        W20811   7.025  11.675   4.692  0.1951  0.1230  0.2081
 7398W        W20812  11.571  16.076  14.902 -0.1701  0.0179 -0.3223
 7399W        W20813   7.384   5.532  10.422  0.1915 -0.3078 -0.1556
 7400W        W20814   2.072   7.738   2.595 -0.0952  0.2768  0.0311
 7401W        W20815   5.807   6.470   0.783  0.2647  0.0764  0.4566
 7402W        W20816   4.155  16.457   1.965 -0.1270 -0.1097  0.0990
 7403W        W20817  18.029   4.931  11.999  0.1235  0.0754 -0.2793
 7404W        W20818   4.323  16.020   3.893 -0.1842 -0.0291  0.1541
 7405W        W20819   6.135  14.049  11.594 -0.4133  0.3095 -0.1197
 7406W        W20820  13.767  14.043   2.186  0.2099  0.1290 -0.0630
 7407W        W20821  18.135   5.197   2.853  0.3825  0.0452  0.0416
 7408W        W20822   7.799   5.685   1.976 -0.0802 -0.0582  0.1151
 7409W        W20823  11.636   3.113  11.468 -0.2402 -0.1334  0.2245
 7410W        W20824   6.085   3.776  14.126 -0.0447 -0.1932  0.0148
 7411W        W20825   7.127   4.278   4.942 -0.0393 -0.3199 -0.0656
 7412W        W20826   0.627  13.303  11.579 -0.0375 -0.2549 -0.2225
 7413W        W20827   1.707   7.844   3.051  0.1154 -0.0056 -0.0849
 7414W        W20828  18.155  17.596   0.007 -0.1407 -0.0071  0.1508
 7415W        W20829  14.074  18.025  12.266  0.0445 -0.0151  0.0008
 7416W        W20830  16.798   3.308  11.790  0.5701 -0.2591  0.0654
 7417W        W20831  11.815  18.042   5.627  0.2682 -0.0686 -0.3233
 7418W        W20832  12.776  12.745  15.350  0.0331 -0.1278  0.1949
 7419W        W20833  11.396   5.254   2.743  0.4219  0.1494  0.1198
 7420W        W20834   2.877  13.931   0.891 -0.1539 -0.1371  0.0768
 7421W        W20835  17.793   8.304  11.974  0.1587 -0.0419  0.0924
 7422W        W20836   1.574   5.659  11.517  0.1567  0.2187  0.4111
 7423W        W20837   7.842  13.484  14.953  0.3842  0.1844  0.1543
 7424W        W20838   2.073   3.983   1.301 -0.0736 -0.3864 -0.1833
 7425W        W20839   2.517   5.576   4.726 -0.0689  0.0205  0.2419
 7426W        W20840  14.969   0.716   1.156  0.1770 -0.2140  0.1094
 7427W        W20841  13.279   6.178   0.157 -0.1200 -0.0953  0.0105
 7428W        W20842   2.233   5.079   3.824 -0.1475 -0.0256  0.0245
 7429W        W20843  16.589  14.217  11.826 -0.1400  0.1807 -0.0016
 7430W        W20844  16.324   1.531   3.431  0.1223  0.0934 -0.0350
 7431W        W20845  12.980   7.562   5.345 -0.0974 -0.0154  0.1389
 7432W        W20846   8.928   8.970   0.987  0.0041 -0.0668 -0.1321
 7433W        W20847  15.978  14.742   3.213 -0.0704  0.1009  0.1417
 7434W        W20848   9.590   6.574  12.789  0.1453  0.0388  0.2557
 7435W        W20849  11.657   0.005  14.155 -0.2100  0.2329  0.2251
 7436W        W20850   6.606   8.059  10.906  0.3084 -0.0522 -0.0735
 7437W        W20851   8.410  10.624  13.102 -0.4199 -0.0866  0.0569
 7438W        W20852  17.222   3.945   5.718 -0.2389 -0.1452  0.0699
 7439W        W20853   6.995  10.639   1.401 -0.1447 -0.1670  0.0334
 7440W        W20854  14.671   5.930  16.497 -0.1356  0.1643 -0.0954
 7441W        W20855   8.856   4.569   3.660  0.1804  0.0594  0.2378
 7442W        W20856  12.887   0.989  11.123  0.2942 -0.2082 -0.1074
 7443W        W20857   9.714  15.182  12.784 -0.0733 -0.0123 -0.0658
 7444W        W20858  17.131  17.319   0.516  0.1859  0.1113  0.2333
 7445W        W20859   2.603   5.632   1.722 -0.0511  0.1312 -0.0127
 7446W        W20860  11.280   9.033   5.181 -0.0484 -0.1524 -0.1059
 7447W        W20861   7.101   5.513   1.299  0.2770 -0.1784 -0.0962
 7448W        W20862  11.707  12.060   4.425  0.1077  0.2055  0.0209
 7449W        W20863  16.853  14.273  15.801 -0.0833  0.2301  0.0260
 7450W        W20864   4.502  17.266  13.107  0.1713  0.2291  0.1375
 7451W        W20865   7.130   8.361  15.774 -0.0785  0.1562 -0.1822
 7452W        W20866  10.621  11.205   3.866 -0.0737  0.2090  0.0310
 7453W        W20867   8.472   0.134   1.000 -0.2765  0.0274  0.3530
 7454W        W20868   3.100  10.592   1.649 -0.1470 -0.3722  0.1923
 7455W        W20869  15.132   9.413   5.039  0.1594 -0.0681 -0.0222
 7456W        W20870  15.828  12.317  13.593  0.0044  0.0444  0.3593
 7457W        W20871  11.852   5.039   4.598  0.0448 -0.2937 -0.2124
 7458W        W20872  15.913   4.987   4.069  0.2678 -0.0977 -0.1232
 7459W        W20873  10.944  10.507  13.959 -0.0273 -0.1908  0.1855
 7460W        W20874  17.177   3.767   3.869  0.0963 -0.1408 -0.0490
 7461W        W20875   5.368   3.196   0.977 -0.2028  0.0604  0.1731
 7462W        W20876  15.793  15.737   4.126  0.0343 -0.0550  0.0362
 7463W        W20877  15.153   5.569   0.720  0.2219  0.2209  0.1135
 7464W        W20878   4.213  12.638  13.630  0.1412 -0.1714  0.0477
 7465W        W20879  11.113   3.675  12.179  0.0410  0.0186  0.0615
 7466W        W20880  17.518  10.541  13.694 -0.3640 -0.2490 -0.0313
 7467W        W20881  17.486   2.710  12.139 -0.0683  0.2450 -0.0166
 7468W        W20882   3.557  11.686  12.212 -0.0805  0.1146 -0.2083
 7469W        W20883   9.269   3.121   5.906 -0.4214 -0.1894  0.0804
 7470W        W20884  16.807   8.787   2.196 -0.2312 -0.3175  0.0961
 7471W        W20885  18.018   4.397  12.013 -0.0498  0.3751 -0.0787
 7472W        W20886   1.878  11.217  12.945  0.1378 -0.0318  0.0889
 7473W        W20887  16.720   6.043   4.647  0.0469 -0.3535 -0.1603
 7474W        W20888   6.198  15.484  14.066 -0.0069  0.0406  0.2201
 7475W        W20889   4.817  16.455  12.162 -0.0265  0.1679  0.0094
 7476W        W20890   7.526   1.996   3.920  0.1555  0.0106 -0.0388
 7477W        W20891   3.427  10.963   0.212 -0.1413 -0.0913  0.0388
 7478W        W20892   8.761  14.113  16.186 -0.3654 -0.1481  0.4048
 7479W        W20893  12.483  12.374  15.076 -0.0400 -0.0313  0.0392
 7480W        W20894   9.535  10.582  14.081 -0.0261 -0.0150  0.0804
 7481W        W20895   1.525   4.033   2.467 -0.0841  0.0405 -0.3316
 7482W        W20896   5.488   3.084  15.640 -0.1714  0.2166  0.0096
 7483W        W20897   5.512   1.696  12.328  0.1552  0.0482 -0.0872
 7484W        W20898   3.245  12.120  12.362 -0.0642  0.0987  0.0986
 7485W        W20899   5.382   0.453  14.583  0.2453  0.5925 -0.1256
 7486W        W20900   3.702   8.139   4.771 -0.2926  0.3054 -0.0986
 7487W        W20901   1.196   1.815   1.149 -0.0583 -0.1928 -0.0600
 7488W        W20902  13.040  10.258  14.248  0.0140  0.0404 -0.0251
 7489W        W20903  10.389   8.531  14.475  0.3719 -0.1576 -0.0938
 7490W        W20904  11.519  14.609   1.292 -0.2009 -0.3717  0.1741
 7491W        W20905   4.304   4.255   0.033  0.0421 -0.1432 -0.0141
 7492W        W20906  17.065  11.359  14.737 -0.1742 -0.1620 -0.0554
 7493W        W20907   1.067  16.274   1.389  0.1351  0.2290  0.1852
 7494W        W20908   7.975   1.508   4.522  0.1167  0.2243 -0.2975
 7495W        W20909  14.158   9.341   3.705 -0.1410  0.0414 -0.0456
 7496W        W20910  15.393   7.338  16.047 -0.0087  0.0300 -0.0160
 7497W        W20911   7.304  14.879  15.401 -0.0115  0.0618 -0.0534
 7498W        W20912   0.049  10.280  12.743 -0.1086 -0.0951 -0.0893
 7499W        W20913  15.858   1.796   4.192  0.0443  0.1975  0.0536
 7500W        W20914  13.071   4.166  14.615  0.0611 -0.3000  0.2581
 7501W        W20915   5.463   1.209   1.512  0.2866 -0.3017  0.0682
 7502W        W20916  10.182   6.338  14.327  0.0571 -0.1425  0.0211
 7503W        W20917  16.878   7.744   3.976  0.0591 -0.0537 -0.1241
 7504W        W20918   4.769  16.541   1.549 -0.0127 -0.0354 -0.1726
 7505W        W20919  13.826  10.511   0.661  0.3436 -0.3783  0.2051
 7506W        W20920   9.416   8.947  13.069  0.1291 -0.1531  0.1409
 7507W        W20921  11.610   4.640  15.239  0.4402  0.1147  0.1034
 7508W        W20922  15.900   6.141  10.166  0.1842 -0.2510  0.1623
 7509W        W20923   2.280  10.783  12.278 -0.0864  0.2352  0.1420
 7510W        W20924  13.448   9.411   1.388  0.2550 -0.3707  0.0770
 7511W        W20925  14.539  15.869  12.163 -0.0087  0.0119  0.0720
 7512W        W20926  13.056   1.728  11.696  0.3283  0.1509 -0.1993
 7513W        W20927  14.928  14.883  12.556  0.0321 -0.3358 -0.3283
 7514W        W20928  13.421   2.348  10.440 -0.0123 -0.4500  0.1739
 7515W        W20929  14.441  18.007   0.429  0.1496 -0.0503  0.1800
 7516W        W20930  13.895   4.601  14.342 -0.3008 -0.3890 -0.0597
 7517W        W20931   6.071   6.813   3.869  0.2844 -0.3292  0.1204
 7518W        W20932  13.295  10.926  12.487 -0.4731 -0.2090  0.1269
 7519W        W20933   1.345   9.667  16.343 -0.0556 -0.1387  0.1131
 7520W        W20934   8.219   5.206  11.741 -0.0714 -0.0577 -0.1525
 7521W        W20935  13.470   6.632   1.149 -0.0863  0.0849  0.1515
 7522W        W20936  12.671   0.513   3.033 -0.0342  0.3316  0.0499
 7523W        W20937   6.877   0.496   5.612  0.3016  0.1360 -0.0377
 7524W        W20938   6.334  10.233   3.467 -0.1728  0.0453  0.0173
 7525W        W20939  16.475   8.727   4.129 -0.1427 -0.2924 -0.3035
 7526W        W20940  15.627  14.324   5.708 -0.0515 -0.0550 -0.2190
 7527W        W20941  11.462   3.554  11.358  0.1264 -0.2502 -0.0211
 7528W        W20942   2.737   1.327   2.725 -0.2295 -0.0133  0.0609
 7529W        W20943  13.865  11.901  14.129  0.1099 -0.3416 -0.1700
 7530W        W20944  17.399   7.996  15.049 -0.0292  0.0605  0.1603
 7531W        W20945   9.922   9.001  16.183 -0.1879  0.2171 -0.0031
 7532W        W20946  16.715   7.059  11.383  0.0651  0.3424  0.2940
 7533W        W20947  12.904   3.478  15.763  0.0511 -0.0349 -0.0040
 7534W        W20948   1.337  11.794   3.717 -0.0283  0.0424  0.2067
 7535W        W20949  11.631  17.873   5.163  0.1597  0.2203 -0.0169
 7536W        W20950  17.612   1.716   0.010 -0.2985 -0.1467 -0.2343
 7537W        W20951  16.433   3.318  14.627  0.0197 -0.1581  0.1756
 7538W        W20952   7.851   1.011   4.791 -0.1306  0.3781  0.2177
 7539W        W20953   6.185   9.393   1.366 -0.1870 -0.1380 -0.0499
 7540W        W20954  11.610   0.185  13.657 -0.1495 -0.0721 -0.2317
 7541W        W20955  16.621  11.738   0.421 -0.3095  0.3424 -0.0528
 7542W        W20956  12.345  16.122   4.838  0.1023 -0.0815 -0.1089
 7543W        W20957  17.310  12.582   4.841 -0.2092  0.0081 -0.2298
 7544W        W20958   5.474   9.079  14.813 -0.0949 -0.0023 -0.2738
 7545W        W20959  14.559   7.793   2.670 -0.0067  0.0774  0.0313
 7546W        W20960  10.526   7.663   2.879 -0.1718 -0.0651  0.0510
 7547W        W20961  16.228  14.495   3.686  0.1109  0.2149  0.1723
 7548W        W20962   3.920   0.572   4.124 -0.2390 -0.2675 -0.1280
 7549W        W20963  18.126   1.136   6.618 -0.1254 -0.1921  0.1468
 7550W        W20964   5.173   5.634  12.749  0.1207  0.0411  0.0600
 7551W        W20965  11.782  17.046   0.271  0.0638  0.0922 -0.1133
 7552W        W20966  16.861  12.847  12.944 -0.0451  0.2151 -0.1074
 7553W        W20967   0.848  14.519   4.159 -0.3508 -0.3115 -0.5266
 7554W        W20968  17.754  14.883  11.790 -0.2027  0.1182 -0.0131
 7555W        W20969   9.743  14.169  11.755 -0.0203 -0.0267  0.3813
 7556W        W20970  14.062   2.003  15.380 -0.0665  0.3410  0.0525
 7557W        W20971   8.615  10.732  11.107 -0.2798  0.1290  0.0914
 7558W        W20972   2.835  16.530   1.299 -0.1607  0.1681 -0.1428
 7559W        W20973   2.582   4.860   4.120  0.0273 -0.1465 -0.0129
 7560W        W20974   4.132   7.115  13.418 -0.2001  0.0500  0.2338
 7561W        W20975   0.358   2.396  10.903  0.1157  0.0197  0.1654
 7562W        W20976   6.559   0.918   0.886 -0.1209 -0.0425  0.3313
 7563W        W20977  17.823   2.988   2.300  0.0574 -0.2749  0.4541
 7564W        W20978   4.277  13.843   1.983  0.0403  0.4573  0.3237
 7565W        W20979  14.987   1.042  12.691  0.0817 -0.1173 -0.0440
 7566W        W20980   7.520   9.391  11.426  0.1958  0.2475 -0.0606
 7567W        W20981   4.647   7.347  12.778 -0.0709 -0.1409 -0.0907
 7568W        W20982  12.431   0.745  13.787 -0.3327  0.0549 -0.0961
 7569W        W20983   5.690  14.336   1.019 -0.0131 -0.1131  0.0376
 7570W        W20984   0.728   8.028   1.740  0.3310 -0.1976  0.2890
 7571W        W20985  12.458   1.571  14.037  0.1862 -0.2522  0.2058
 7572W        W20986   1.032   2.707   2.145  0.0109  0.1134  0.3838
 7573W        W20987  11.688   0.224  16.266  0.2209  0.0280 -0.1369
 7574W        W20988  14.734   7.929  13.253  0.2050 -0.3287  0.1561
 7575W        W20989  14.162   0.507   1.478 -0.1823 -0.1390 -0.2660
 7576W        W20990   3.516  12.415  14.396 -0.0612 -0.1065  0.1983
 7577W        W20991   4.306   6.706  13.539 -0.0334  0.1440  0.0453
 7578W        W20992  14.711  11.038   4.242  0.0569  0.2578 -0.1713
 7579W        W20993   2.170   0.014  15.834 -0.0881 -0.1333 -0.0526
 7580W        W20994  12.786   3.821   0.173 -0.0990  0.1585  0.0769
 7581W        W20995   0.142  17.488  11.432 -0.0816 -0.0304  0.1583
 7582W        W20996  16.628  12.301   2.363 -0.0355 -0.2010 -0.2260
 7583W        W20997  16.780  16.817  15.030  0.2225 -0.0566  0.1084
 7584W        W20998   3.471  15.557   4.048 -0.0542  0.0250 -0.0520
 7585W        W20999  11.110  12.119   6.047  0.4366  0.2260 -0.0044
 7586W        W21000   1.035   5.472   4.668  0.2399 -0.2634 -0.1717
 7587W        W21001  17.188   0.772  13.576  0.0365 -0.1063 -0.0707
 7588W        W21002   9.722  12.934  14.287 -0.1173  0.2174  0.1139
 7589W        W21003   7.347   5.695  11.601 -0.0640 -0.2352  0.0144
 7590W        W21004   8.031   2.365   1.660  0.0326  0.0217 -0.0027
 7591W        W21005   8.179   7.879  12.495  0.0326 -0.0868 -0.0574
 7592W        W21006   2.088  12.629   2.468 -0.2746 -0.0262 -0.3073
 7593W        W21007   0.026  10.442   5.665 -0.1510  0.0919 -0.0681
 7594W        W21008  16.607  17.489   0.216  0.0816 -0.0515  0.4037
 7595W        W21009   2.564  11.804   6.700  0.1208  0.2253 -0.1428
 7596W        W21010  10.111   1.363   3.458  0.0967 -0.1010  0.1506
 7597W        W21011   5.802   9.733   3.015  0.2388 -0.0075 -0.1910
 7598W        W21012  17.466   7.233   3.290 -0.0142 -0.0551 -0.1429
 7599W        W21013   4.792   6.077  15.818 -0.3002 -0.1047  0.0479
 7600W        W21014  15.864   1.734  12.871  0.1850  0.4315 -0.1766
 7601W        W21015  13.149  13.833  12.055 -0.2159 -0.4159  0.1027
 7602W        W21016  10.994   4.421  12.642  0.2336 -0.2440  0.2497
 7603W        W21017  16.676   2.447   3.977  0.1506 -0.1112  0.1566
 7604W        W21018   3.650   4.454  10.799 -0.1120  0.1943  0.2167
 7605W        W21019  11.061  10.625   1.519  0.2058 -0.0848  0.1230
 7606W        W21020   8.965   2.194  12.387  0.1152  0.1938 -0.2601
 7607W        W21021   1.398  16.026  11.503 -0.2686  0.2861 -0.0362
 7608W        W21022  16.308  17.830   0.397  0.0708 -0.1444 -0.3927
 7609W        W21023   0.515  14.271  14.257  0.2449 -0.0105  0.0360
 7610W        W21024   3.046  12.504   2.086  0.1733 -0.2052  0.1218
 7611W        W21025  14.640  10.555   3.277 -0.1338  0.3415 -0.0055
 7612W        W21026   3.991   9.745   1.965  0.0798  0.2520  0.0449
 7613W        W21027  15.416   9.598   2.441  0.2840  0.1341  0.0327
 7614W        W21028   7.574  10.479   3.632  0.1220 -0.0398  0.1679
 7615W        W21029   0.106   6.770  13.951 -0.0244  0.0950 -0.2004
 7616W        W21030  16.438  12.964   0.812  0.1016 -0.1549 -0.0131
 7617W        W21031   5.218  10.576   3.163  0.1039 -0.3118 -0.0937
 7618W        W21032   5.591   7.432  12.831 -0.2297  0.3264  0.1192
 7619W        W21033   7.114  10.563   3.382 -0.0669  0.1082  0.0203
 7620W        W21034  12.093   7.197  12.314 -0.2714  0.1930  0.2071
 7621W        W21035   6.378   6.373  11.296  0.0676 -0.0662 -0.0871
 7622W        W21036  14.560  14.480  13.600 -0.1000  0.4573  0.0286
 7623W        W21037   6.383  14.606  10.332  0.1660  0.1523 -0.0936
 7624W        W21038  15.139   3.465  12.356 -0.1762  0.0067 -0.1612
 7625W        W21039   4.468  17.620   4.321 -0.0583  0.0880  0.2270
 7626W        W21040   6.946  11.946   1.098  0.0529 -0.0374 -0.1711
 7627W        W21041  15.248  12.951  10.145  0.0772 -0.2205  0.2666
 7628W        W21042   8.956   4.908  15.978 -0.0788  0.2468  0.1464
 7629W        W21043   7.662  17.269  15.504  0.0339  0.0208 -0.1249
 7630W        W21044  10.704  16.943  16.011 -0.2536 -0.2255 -0.2767
 7631W        W21045   5.787  10.443  16.138  0.0132 -0.0168  0.1895
 7632W        W21046  11.369  12.805  11.454  0.0917 -0.1519 -0.2584
 7633W        W21047  11.350  14.880   3.730  0.1599  0.0930 -0.0515
 7634W        W21048   5.392   0.386   4.587 -0.2094 -0.1847 -0.0413
 7635W        W21049  13.991  16.456   5.164  0.2113 -0.2125 -0.0201
 7636W        W21050  13.324   6.630   9.866  0.2232 -0.2419  0.2055
 7637W        W21051  10.516   1.836   2.294 -0.3855  0.1976 -0.2539
 7638W        W21052   9.393  16.499   4.534 -0.0446  0.0629  0.3246
 7639W        W21053   6.218  13.688   3.243  0.1899  0.0273 -0.0607
 7640W        W21054  12.833   8.130   4.035 -0.2107  0.1457 -0.0998
 7641W        W21055   4.086  14.388   1.495  0.3167  0.2180 -0.0068
 7642W        W21056  18.167   1.061  10.524 -0.1306  0.1303 -0.1696
 7643W        W21057  13.762  11.525  13.598 -0.0613 -0.0188 -0.3687
 7644W        W21058  17.162   9.033   1.935  0.1148 -0.0405 -0.0277
 7645W        W21059   7.788  17.958   2.599 -0.1296  0.0972 -0.0724
 7646W        W21060  16.277   1.601  13.641 -0.1539  0.0240 -0.0126
 7647W        W21061  12.185   4.680  15.318  0.1102  0.1426 -0.0875
 7648W        W21062  13.896   0.513  11.856 -0.2897 -0.1645 -0.0878
 7649W        W21063   4.529  13.835  15.402  0.1539 -0.0297 -0.1924
 7650W        W21064   9.740  17.751   4.826  0.0041  0.1528  0.3477
 7651W        W21065   4.827   5.712  10.952 -0.0932  0.1913  0.0885
 7652W        W21066   8.963  15.851   1.551 -0.0284  0.0537  0.3040
 7653W        W21067   4.461  15.628  16.157  0.0190 -0.0266 -0.2815
 7654W        W21068   3.739   1.740  12.816 -0.1627  0.2705  0.1727
 7655W        W21069   9.826   4.666   5.422 -0.1208 -0.0134 -0.1693
 7656W        W21070  14.004   6.120   0.745 -0.1083  0.1822 -0.2689
 7657W        W21071  10.835  10.482   3.251 -0.1619 -0.3352 -0.0149
 7658W        W21072   8.579   6.814   1.260  0.3675  0.1386 -0.2738
 7659W        W21073   4.256   9.312   4.914 -0.0357  0.3594  0.0516
 7660W        W21074  12.764  12.894   5.774 -0.1251  0.5942  0.1410
 7661W        W21075  14.216   0.437  13.392 -0.4442 -0.3372 -0.2514
 7662W        W21076  12.978  18.129  15.839 -0.1706 -0.0658 -0.0612
 7663W        W21077   4.460  15.119  15.915 -0.0116 -0.1776  0.4944
 7664W        W21078   8.870  13.508  11.347 -0.1739  0.0570 -0.2014
 7665W        W21079  14.895   8.052  13.698 -0.1417  0.2232 -0.2789
 7666W        W21080   2.020  17.414  11.917 -0.2620  0.2521 -0.1987
 7667W        W21081   7.512   0.009   1.132 -0.0891  0.1187 -0.2020
 7668W        W21082  17.463  12.411   1.437  0.0102  0.2238  0.1498
 7669W        W21083   8.977   2.530  11.514 -0.0376  0.2674 -0.1708
 7670W        W21084  13.103  13.446  10.943  0.2429  0.0137 -0.0693
 7671W        W21085   1.259  14.963   0.668  0.2286 -0.0357  0.1598
 7672W        W21086  16.587   9.899  16.164 -0.1159  0.0204 -0.3740
 7673W        W21087   2.720  17.184   3.647 -0.3002 -0.0506  0.0023
 7674W        W21088   7.106   5.459   5.397 -0.2928  0.2111 -0.1492
 7675W        W21089   7.436   8.466  11.316  0.0407  0.0063  0.4443
 7676W        W21090   5.128   2.112   2.647 -0.1652 -0.1229  0.2372
 7677W        W21091  18.246   3.051  14.049  0.1137 -0.2896 -0.0568
 7678W        W21092  17.247   4.596   0.112  0.3382  0.1894  0.3236
 7679W        W21093   2.203   2.533  12.072  0.0862  0.1808  0.1320
 7680W        W21094  14.981   4.558   5.583  0.0699  0.2079  0.2739
 7681W        W21095   9.046  12.543  11.189  0.1544 -0.0993 -0.4128
 7682W        W21096   2.753  14.510   1.002  0.2388  0.1262  0.0254
 7683W        W21097  16.691  17.254  12.869 -0.2289 -0.2826  0.2013
 7684W        W21098  17.686  17.816  15.407  0.0232 -0.3410 -0.1188
 7685W        W21099   5.300  15.204   4.361 -0.2669 -0.1198 -0.0081
 7686W        W21100   7.411  13.638  16.156 -0.0393  0.3431 -0.1157
 7687W        W21101   7.405  13.610   3.779  0.0531  0.0197  0.0578
 7688W        W21102  15.666   1.464  11.055  0.0406  0.1668 -0.0017
 7689W        W21103   3.499   1.858   1.104  0.0281  0.2977 -0.0371
 7690W        W21104  16.906  15.052   0.853  0.0454  0.1661 -0.0803
 7691W        W21105   3.876   8.933   4.734 -0.2058 -0.2226  0.3087
 7692W        W21106   7.514   7.988   5.055  0.0974 -0.0736  0.1662
 7693W        W21107   3.545  15.419  14.981 -0.0616 -0.2996  0.0023
 7694W        W21108  16.879  17.898   5.085  0.1574  0.0666 -0.1420
 7695W        W21109   2.840   3.404   3.892 -0.2094  0.2031  0.1666
 7696W        W21110   9.441  17.385   4.080 -0.3015  0.1650 -0.0620
 7697W        W21111   9.305  14.602  12.314  0.0126  0.2974 -0.1596
 7698W        W21112   1.067  14.450   4.641  0.1232 -0.0873  0.1001
 7699W        W21113   3.762  15.150  15.358 -0.0670  0.0046  0.0733
 7700W        W21114   0.331   8.197  15.898 -0.1365  0.3386  0.0998
 7701W        W21115  17.218  10.829  14.687 -0.0799 -0.3200  0.2145
 7702W        W21116   2.863   6.227   0.922 -0.0231  0.3796  0.2295
 7703W        W21117  18.073   7.195  14.221  0.0632 -0.0795  0.0422
 7704W        W21118  11.821  12.920   1.211  0.3278  0.0806 -0.1243
 7705W        W21119  15.074  16.509   1.323  0.2457 -0.1313 -0.1778
 7706W        W21120  16.183   9.173   1.473 -0.3793  0.1151 -0.0611
 7707W        W21121  14.507   6.183   0.389  0.0948 -0.0343  0.1797
 7708W        W21122   3.985   6.811  10.571  0.1468  0.3459  0.0191
 7709W        W21123   3.895  17.353  10.731  0.3691 -0.0557  0.0529
 7710W        W21124  12.841   6.223  14.325  0.0376  0.4191  0.3470
 7711W        W21125   7.602  16.668   3.485  0.0289  0.2569 -0.0250
 7712W        W21126   4.891   7.063  15.935 -0.1785 -0.2363  0.0436
 7713W        W21127   0.652  11.306   5.993 -0.1510  0.3568 -0.0807
 7714W        W21128  16.926   0.072   4.896 -0.0127 -0.0296  0.0040
 7715W        W21129  18.100   5.003  14.167  0.0345 -0.0453  0.0427
 7716W        W21130   7.180   8.911  14.308  0.0260  0.1493 -0.2892
 7717W        W21131   9.857   6.439   1.782  0.1101 -0.1834 -0.1482
 7718W        W21132   6.726  12.857   4.504 -0.1074  0.1086 -0.0465
 7719W        W21133  12.945   0.178  14.314  0.0898 -0.2472  0.4998
 7720W        W21134   6.894   1.767  10.478 -0.0378  0.2408  0.0084
 7721W        W21135  16.421   2.688   0.714 -0.0566 -0.0529  0.3666
 7722W        W21136   9.414   0.294   3.104  0.0546  0.3109  0.3950
 7723W        W21137  10.631   7.412   3.276  0.0159  0.0376  0.2328
 7724W        W21138  16.066  13.762   1.902 -0.0897 -0.1513  0.1105
 7725W        W21139  11.287  16.892   1.853  0.3193 -0.0150 -0.1602
 7726W        W21140   5.517   5.076   2.188  0.4003  0.0259  0.5640
 7727W        W21141   1.131   0.023   2.433 -0.3080  0.3109  0.0568
 7728W        W21142   5.842   0.266   0.654 -0.2938 -0.2036 -0.2364
 7729W        W21143  14.274  16.076   0.132  0.0620 -0.1582 -0.2600
 7730W        W21144  13.341  15.215   3.546 -0.1964 -0.2044 -0.1595
 7731W        W21145  15.179  10.988  10.875  0.3726  0.2064  0.1724
 7732W        W21146   7.257   3.545   3.241  0.1204  0.0596 -0.2290
 7733W        W21147  17.028   2.014  16.212 -0.0405 -0.0576 -0.0330
 7734W        W21148   3.379  13.372   6.151  0.0285  0.0912  0.0288
 7735W        W21149   7.653  10.523   1.424 -0.1254  0.0417 -0.2376
 7736W        W21150   5.190   5.130   4.750 -0.4575  0.0638  0.0212
 7737W        W21151  17.228  10.058   3.272 -0.0379  0.3336 -0.3282
 7738W        W21152  17.498  16.850   4.436 -0.0717 -0.0433 -0.0919
 7739W        W21153   1.523   5.003  14.274  0.1928 -0.0749  0.2192
 7740W        W21154   9.547  16.793  11.429 -0.2325 -0.0863  0.1345
 7741W        W21155   1.368   6.450   0.157 -0.0480 -0.0451 -0.4459
 7742W        W21156   5.869   8.557  16.168  0.1468  0.1829  0.0191
 7743W        W21157   6.698   5.595  14.259  0.1008 -0.1468  0.2513
 7744W        W21158  13.151   0.833   5.745  0.0592 -0.1036 -0.5109
 7745W        W21159  15.932   0.869   6.296 -0.0181  0.1528 -0.1738
 7746W        W21160  16.182   6.113   2.235 -0.2158  0.2070  0.0369
 7747W        W21161  13.479   6.684  11.212 -0.0121  0.0464  0.2833
 7748W        W21162   1.508   5.987  10.597 -0.0607 -0.2696 -0.0642
 7749W        W21163   0.801  14.763  11.199  0.0183  0.2655  0.0598
 7750W        W21164  11.931   2.766  14.405 -0.0551  0.0200 -0.0009
 7751W        W21165  12.337  11.858   2.063 -0.1869  0.0109 -0.0454
 7752W        W21166   6.326   7.654   0.830 -0.0275 -0.0635 -0.0744
 7753W        W21167   9.492  12.598  14.611 -0.2161 -0.0633  0.2738
 7754W        W21168  13.122  12.454   2.048 -0.1314  0.4893  0.0392
 7755W        W21169  13.488   6.775   4.316 -0.1044  0.3331 -0.4047
 7756W        W21170  11.837  11.049  12.677  0.0625  0.0973  0.1862
 7757W        W21171  17.581  12.302  13.704  0.3361  0.0364  0.2397
 7758W        W21172   7.237   8.782   3.791  0.0274  0.1291 -0.3601
 7759W        W21173  18.176  14.389  10.625  0.0679  0.0102 -0.0432
 7760W        W21174  13.264  17.849   0.075  0.0803  0.1626  0.1282
 7761W        W21175   5.191  11.197  12.144 -0.1332 -0.0878 -0.1572
 7762W        W21176   5.771  16.815   0.969  0.0352 -0.1159  0.3566
 7763W        W21177  15.135  12.909   1.882 -0.1499 -0.0889 -0.1310
 7764W        W21178  17.465  11.528   3.246 -0.1289 -0.2643  0.2264
 7765W        W21179  11.146   6.429   0.739 -0.1038  0.1258 -0.0126
 7766W        W21180  17.913  10.514  15.479  0.1164  0.0862  0.0506
 7767W        W21181   6.365   8.337   0.877 -0.0009  0.0063 -0.2929
 7768W        W21182   5.116   7.705   0.443 -0.3236 -0.1687  0.1653
 7769W        W21183   0.355   4.245   2.409 -0.0647  0.4205 -0.5019
 7770W        W21184   7.718  13.693  14.554  0.2289  0.1953  0.0856
 7771W        W21185   5.913   3.241  11.494 -0.2494 -0.2267  0.4155
 7772W        W21186  16.544  14.572  13.724 -0.2879  0.0533  0.0762
 7773W        W21187   0.935   4.485   0.136  0.0478 -0.0192 -0.1534
 7774W        W21188   5.074  12.556  16.245 -0.3158 -0.1803 -0.0837
 7775W        W21189  11.680   8.826   3.845 -0.5307  0.0352 -0.1092
 7776W        W21190  12.382   9.894  12.652  0.1861 -0.4369 -0.0415
 7777W        W21191  16.821   6.797   0.566 -0.1128 -0.3249 -0.0347
 7778W        W21192  10.616   6.910  16.293 -0.0229 -0.0740 -0.0284
 7779W        W21193   1.351  14.693  11.860  0.1371  0.0308 -0.2161
 7780W        W21194   9.230  17.375  14.787 -0.1213 -0.6901 -0.2845
 7781W        W21195   4.412   1.593   3.099  0.2838  0.0960 -0.2736
 7782W        W21196  12.367   9.684  16.174 -0.0439 -0.0337  0.0325
 7783W        W21197  14.072   9.060  11.343  0.0230  0.0697 -0.0720
 7784W        W21198   8.759  15.803  10.835  0.2258 -0.0147 -0.1411
 7785W        W21199   6.723   4.323   0.637  0.1790  0.0426  0.2768
 7786W        W21200  16.326  14.108  15.805 -0.0362 -0.1863  0.2098
 7787W        W21201   1.683   8.631  10.533 -0.0889 -0.0123  0.2883
 7788W        W21202  10.075   8.506   4.995 -0.0687 -0.1104  0.3297
 7789W        W21203   2.218   1.137  16.122  0.0847  0.3333  0.0034
 7790W        W21204  15.931   9.997  13.614  0.2365 -0.2022  0.0267
 7791W        W21205  17.976   0.518  14.325  0.2348  0.1390  0.0885
 7792W        W21206  11.413   1.617  15.199 -0.2574 -0.0465  0.1059
 7793W        W21207  14.739   3.024  11.302 -0.1624 -0.3368  0.0999
 7794W        W21208   1.677   8.445   0.649 -0.1398  0.2226 -0.3265
 7795W        W21209   7.799  17.040  12.502 -0.0546  0.1761 -0.1022
 7796W        W21210   7.029  18.260  16.112 -0.3337 -0.2817  0.1473
 7797W        W21211  11.502   5.024  14.250  0.0545 -0.2164  0.0124
 7798W        W21212  16.006   1.298   2.179  0.1862 -0.0420 -0.1320
 7799W        W21213   7.847   7.017  12.726 -0.0041  0.1157  0.0372
 7800W        W21214  15.368  10.968   1.079  0.0469 -0.1850 -0.0189
 7801W        W21215   9.860   9.408  13.706  0.0451 -0.0322  0.1429
 7802W        W21216  17.096   8.551  13.500 -0.0263 -0.2912 -0.3388
 7803W        W21217   5.617  12.656  12.515  0.2253 -0.3545 -0.1461
 7804W        W21218   9.615   6.465   4.224  0.0372 -0.1964 -0.2086
 7805W        W21219   0.186   8.902   4.049 -0.3407  0.0556  0.0585
 7806W        W21220   8.393  14.844   4.234  0.3174  0.1498  0.3287
 7807W        W21221   5.435  12.705  11.298 -0.3373  0.3156 -0.0261
 7808W        W21222  13.977  12.841  10.926  0.2545 -0.2672 -0.1141
 7809W        W21223  14.402   8.144  14.642  0.1528 -0.0434  0.3325
 7810W        W21224   8.626  14.710  12.668  0.1190  0.1279  0.0649
 7811W        W21225  17.729   7.430  13.909 -0.1709  0.2815  0.1435
 7812W        W21226   0.067  13.804   2.235 -0.0571  0.1002  0.3797
 7813W        W21227   9.869  15.174  11.870  0.3404  0.0241 -0.0147
 7814W        W21228  17.893  13.004  12.433 -0.0591  0.0160 -0.2467
 7815W        W21229  14.819  17.242   1.746 -0.1996 -0.2514 -0.0108
 7816W        W21230   3.049  14.437   5.126 -0.1846  0.0607  0.3836
 7817W        W21231  15.842  12.726   3.434  0.0468  0.1641 -0.2641
 7818W        W21232   8.969  16.480  15.349  0.1491  0.2205  0.1330
 7819W        W21233   6.679  15.906  14.863  0.1880  0.2339 -0.1891
 7820W        W21234  14.848   6.573  12.333  0.2309  0.1986  0.0767
 7821W        W21235  15.282   3.565   1.301 -0.0675 -0.0146  0.1602
 7822W        W21236  14.970   9.607  14.186  0.1834 -0.1219  0.2280
 7823W        W21237  12.738  13.407  13.401  0.1778  0.0986 -0.0318
 7824W        W21238   0.561  16.696   3.026  0.3876  0.1377 -0.1478
 7825W        W21239  15.510   5.443   2.269 -0.0866  0.2126 -0.1402
 7826W        W21240   3.418  17.432   1.796  0.1884  0.1190  0.0034
 7827W        W21241  13.318   7.766  15.945 -0.0410  0.2363  0.1768
 7828W        W21242  13.221  10.096  11.638 -0.1191 -0.2049 -0.0444
 7829W        W21243   2.499  12.078  12.651 -0.1691 -0.0681 -0.2884
 7830W        W21244   8.368  15.383  12.105  0.0491  0.3259  0.2652
 7831W        W21245   7.726   3.353   2.742  0.0042  0.1359  0.0416
 7832W        W21246   6.005   5.406   0.391  0.1584 -0.0930 -0.0531
 7833W        W21247  18.018   5.910  10.907 -0.0399  0.3620 -0.0993
 7834W        W21248   5.913   4.529   2.286  0.0455  0.0988 -0.0961
 7835W        W21249   2.133  12.103   0.708 -0.1233  0.4562 -0.1602
 7836W        W21250  13.203   4.400  12.264 -0.3278 -0.0375  0.1532
 7837W        W21251  13.683  15.679   0.524  0.1398 -0.0417 -0.4048
 7838W        W21252  10.952  13.869   1.236 -0.1728 -0.1425 -0.2805
 7839W        W21253   9.382  15.820   0.335  0.3247  0.0557  0.0507
 7840W        W21254   6.618  15.754  12.377 -0.2329 -0.3325 -0.0455
 7841W        W21255   0.383  14.345   2.370 -0.3205 -0.2501  0.5709
 7842W        W21256  15.490   9.249   3.352  0.2345  0.0207 -0.1930
 7843W        W21257  15.566  13.127  16.310 -0.0364  0.0948 -0.0136
 7844W        W21258  10.776  14.575   0.472  0.0662 -0.0839 -0.1188
 7845W        W21259  14.484  11.329   5.021 -0.0110  0.1000 -0.0645
 7846W        W21260   4.132  15.994   2.956 -0.0298  0.2604 -0.1828
 7847W        W21261  11.462   1.071  11.551  0.0556 -0.0840 -0.1720
 7848W        W21262   8.835  14.650  16.285 -0.3633 -0.2341  0.0041
 7849W        W21263  12.784  18.273  14.988  0.3252  0.0345 -0.0646
 7850W        W21264  12.838   3.695   6.582 -0.0110 -0.2426  0.1682
 7851W        W21265  15.083  12.431  11.754 -0.1558  0.3503  0.0787
 7852W        W21266  10.854  14.312  12.001 -0.3150 -0.2603 -0.2270
 7853W        W21267  16.832   4.589   1.467  0.1165  0.1012 -0.5915
 7854W        W21268   4.663   5.151   1.624  0.0237  0.5211  0.0216
 7855W        W21269  13.455   6.207   1.698  0.1837 -0.0777 -0.0130
 7856W        W21270  17.701  16.445   0.354 -0.0969  0.2149  0.0139
 7857W        W21271  16.793   9.216  14.989 -0.0175  0.2913 -0.0272
 7858W        W21272   1.166   5.952   4.398 -0.0915  0.0769  0.0945
 7859W        W21273  13.600  10.661  15.344  0.1455  0.0927  0.0711
 7860W        W21274   3.682   6.089  13.910  0.0862 -0.0125  0.0224
 7861W        W21275  11.902   9.443  12.077  0.0308  0.2893 -0.0572
 7862W        W21276   2.111  17.137   2.719 -0.0772 -0.0268  0.1027
 7863W        W21277  13.548   4.446  13.519  0.1374  0.0148  0.1769
 7864W        W21278   1.688   7.416  13.054  0.0071  0.0712  0.1029
 7865W        W21279   2.882   2.547  16.402 -0.2843 -0.0362  0.1093
 7866W        W21280  10.504   2.740   5.991  0.2858 -0.1437 -0.1680
 7867W        W21281  12.503   2.485  12.818  0.0219  0.1274  0.1568
 7868W        W21282  14.329   6.371   2.735  0.2630  0.0847 -0.1256
 7869W        W21283   8.514  17.697  15.655 -0.0156  0.2001 -0.1086
 7870W        W21284   1.130   4.040  16.150 -0.1135 -0.2587 -0.1169
 7871W        W21285   4.989   1.848   1.778  0.2174  0.3217  0.0357
 7872W        W21286   7.766  13.738  16.550 -0.0872 -0.2370  0.0218
 7873W        W21287  16.319  11.880   4.178 -0.1109  0.1354  0.1133
 7874W        W21288   6.491  15.151  15.049  0.2637  0.2837 -0.0442
 7875W        W21289  17.156   1.543   1.187  0.1730  0.0305 -0.1068
 7876W        W21290   2.113  16.274   4.514 -0.0736  0.1823 -0.1861
 7877W        W21291  10.491  15.460   5.216  0.3121  0.1863  0.1148
 7878W        W21292   6.376  14.756   0.577 -0.0443 -0.0983  0.1728
 7879W        W21293   4.700  11.933  13.373 -0.1398 -0.0370  0.0819
 7880W        W21294  15.776   6.942   0.474  0.2601  0.3397 -0.4212
 7881W        W21295   8.690  14.111  11.758 -0.4189 -0.0561  0.1924
 7882W        W21296   4.093  10.676  15.063 -0.0694 -0.2476  0.1194
 7883W        W21297  15.891   3.589   3.372 -0.1306  0.0182  0.0825
 7884W        W21298   3.187  13.388   2.522 -0.2537  0.0126 -0.1443
 7885W        W21299  15.735   2.359  15.898  0.1606  0.0965 -0.1593
 7886W        W21300  10.943  17.491  10.551  0.0012 -0.1104  0.1667
 7887W        W21301   8.058   2.060   0.593  0.0136 -0.3928 -0.0460
 7888W        W21302  11.622   7.959  12.851  0.1496  0.0556  0.3546
 7889W        W21303  13.572   9.264   2.531  0.0470 -0.1422  0.0304
 7890W        W21304  12.983  14.183   7.080 -0.0675  0.4236  0.1336
 7891W        W21305   7.040   6.121  13.887  0.1758 -0.2073  0.1614
 7892W        W21306  12.566  11.161   3.526 -0.1577 -0.0723  0.0456
 7893W        W21307   3.263  16.754   0.411 -0.2737  0.0266  0.0920
 7894W        W21308  10.700   8.573   3.440  0.1843  0.1997 -0.2340
 7895W        W21309   0.269   9.909  10.210 -0.4806  0.0619  0.2100
 7896W        W21310  10.424   1.986   5.606 -0.1214  0.2921 -0.2332
 7897W        W21311  16.174  14.409   2.919 -0.0248 -0.1877 -0.2970
 7898W        W21312   3.835  10.184  15.985  0.2604  0.0044 -0.1949
 7899W        W21313  10.642  10.490   1.148 -0.2431  0.1382 -0.2268
 7900W        W21314   9.573  14.298  15.113 -0.0565  0.2347 -0.0654
 7901W        W21315  14.278   1.585   0.464  0.0306 -0.0233 -0.1754
 7902W        W21316   4.346  14.668  16.124  0.0984  0.0330  0.0718
 7903W        W21317   7.661   7.604   3.282 -0.1358 -0.0306 -0.0992
 7904W        W21318   0.574  13.097  13.732 -0.0768  0.2154  0.0374
 7905W        W21319   7.450   3.922  15.453  0.0697  0.1092 -0.1460
 7906W        W21320  11.233   7.512   4.833  0.0299  0.0315  0.0351
 7907W        W21321   2.463   8.029   4.935 -0.0077  0.1454  0.1187
 7908W        W21322  11.077  11.871   0.067  0.0325 -0.0888  0.2209
 7909W        W21323  12.559   9.499  14.255 -0.0488  0.1117 -0.2455
 7910W        W21324  10.927  11.231  12.395 -0.1477 -0.0420 -0.1760
 7911W        W21325  10.837   3.647   1.489  0.0286  0.4512  0.0888
 7912W        W21326   3.991   0.224  11.564  0.3287  0.1106 -0.0188
 7913W        W21327  10.893   8.906  14.377 -0.1884  0.2075 -0.1256
 7914W        W21328   7.144  13.482   5.560 -0.2547  0.2026  0.1716
 7915W        W21329  12.863  15.289   1.809  0.4692  0.2320 -0.0951
 7916W        W21330   3.398   9.065   4.844  0.1618  0.0802 -0.0691
 7917W        W21331   0.652  11.212   4.153 -0.3480  0.0052  0.3618
 7918W        W21332   0.707  13.980  13.884  0.0587  0.3444 -0.2687
 7919W        W21333   3.333   7.468   4.030  0.0772  0.1134 -0.0951
 7920W        W21334  13.665  11.030   3.205 -0.0170  0.0820 -0.2224
 7921W        W21335   0.846  13.958  11.041 -0.0125 -0.0204 -0.0549
 7922W        W21336   4.131   4.578  13.320 -0.0090  0.1114  0.1180
 7923W        W21337  17.995   9.447   2.933  0.2384  0.1219  0.0745
 7924W        W21338   2.219  17.941   1.066 -0.2886 -0.0915 -0.0833
 7925W        W21339   1.274  12.104   5.444  0.2258  0.1453 -0.0635
 7926W        W21340  16.668  17.116   0.518  0.2236 -0.2512 -0.2934
 7927W        W21341  14.414   7.887   5.117 -0.0565 -0.1615 -0.3581
 7928W        W21342   8.555  15.464   5.706  0.1641 -0.3466 -0.1312
 7929W        W21343  13.214  17.269  16.354  0.3185  0.0327 -0.2601
 7930W        W21344   2.074   0.573   2.516 -0.0013  0.3209 -0.0461
 7931W        W21345   3.408  10.879  11.572 -0.0489  0.0827 -0.2307
 7932W        W21346   0.964   0.144   3.152 -0.0768  0.1192 -0.1116
 7933W        W21347   4.211   9.232   2.551 -0.0511 -0.0136 -0.0532
 7934W        W21348   1.721   4.995   0.463 -0.0400 -0.1610 -0.0786
 7935W        W21349   1.359   9.226  11.784  0.2533 -0.0069  0.0266
 7936W        W21350   2.501   7.965  16.092  0.0393  0.3431  0.0013
 7937W        W21351   5.386   3.161   2.029  0.3662 -0.1501  0.1129
 7938W        W21352   3.425  10.519  16.148  0.3247  0.0025  0.0670
 7939W        W21353   4.476   4.554  14.593 -0.0198  0.1408 -0.2804
 7940W        W21354  10.457   4.494   1.442  0.0507 -0.1034 -0.1672
 7941W        W21355  17.925  16.938   5.288 -0.2625  0.2896 -0.5028
 7942W        W21356  13.088  13.814   3.052  0.0776  0.2074  0.0972
 7943W        W21357   9.387   8.610   0.818  0.0536  0.0507 -0.2886
 7944W        W21358   0.015  13.129  14.689  0.2008  0.2945  0.1931
 7945W        W21359   4.843  17.626  13.020  0.3665 -0.2868  0.0392
 7946W        W21360  16.822   5.542   4.787 -0.1696  0.2278  0.0141
 7947W        W21361   0.844  14.926  15.386  0.0399  0.0341 -0.0929
 7948W        W21362   4.631   2.651   1.293  0.0407  0.0373 -0.0803
 7949W        W21363   2.828   4.088   6.028 -0.2520  0.3529  0.2807
 7950W        W21364   5.836  16.614  16.510 -0.0131  0.1244 -0.5389
 7951W        W21365   6.626  17.318   0.781 -0.3237 -0.0641  0.1591
 7952W        W21366  12.153  10.310  12.415  0.2410  0.1178  0.0271
 7953W        W21367   5.654  12.759  15.036  0.4400 -0.0139  0.2509
 7954W        W21368  16.986  16.190  11.746  0.0305  0.0941 -0.0382
 7955W        W21369  18.026   3.999   9.570 -0.2668 -0.2003 -0.2204
 7956W        W21370   9.039   3.413  11.359  0.2298  0.1121 -0.2108
 7957W        W21371   0.138   5.028   0.550 -0.0379 -0.0479  0.2876
 7958W        W21372  18.159  14.280   6.065 -0.3464  0.1359  0.3336
 7959W        W21373   6.752   2.851   3.912  0.1285 -0.1608 -0.0319
 7960W        W21374   1.811   8.956  11.690  0.0374 -0.3231  0.4089
 7961W        W21375   2.174   5.605   2.785 -0.0194  0.1128  0.1276
 7962W        W21376  10.666   0.187   0.204  0.1046 -0.1569 -0.1903
 7963W        W21377   2.813  17.462   0.781 -0.2415  0.0028  0.1931
 7964W        W21378   6.317   5.847  15.659  0.2034 -0.1110 -0.1873
 7965W        W21379   7.387   4.700  14.455  0.1527  0.0891 -0.1399
 7966W        W21380   7.859  11.963   4.141  0.0224  0.0027  0.0572
 7967W        W21381  12.015  15.420  11.386  0.0431 -0.0442 -0.3029
 7968W        W21382  10.468  14.288   1.179 -0.0299 -0.1742 -0.1050
 7969W        W21383  14.741   9.165   5.649 -0.1278 -0.2867 -0.0712
 7970W        W21384  12.086  15.962  15.664 -0.1280  0.0619  0.1459
 7971W        W21385   7.732  14.097  13.859 -0.0908 -0.2595  0.2865
 7972W        W21386   5.382   6.632  13.415 -0.1818  0.0471  0.2286
 7973W        W21387  14.307  11.264  10.834  0.2764  0.2771  0.1058
 7974W        W21388   7.875   9.153  12.726  0.0184 -0.0091  0.2317
 7975W        W21389   2.787   7.357   4.034 -0.0763 -0.0888  0.0816
 7976W        W21390  14.145  14.334  13.166 -0.0078  0.0917 -0.0885
 7977W        W21391   6.742   8.334   0.271  0.2227 -0.1792  0.0126
 7978W        W21392  13.648   3.316  11.474  0.0977  0.3824 -0.1533
 7979W        W21393   2.589   4.702   9.905 -0.0218  0.0618 -0.0639
 7980W        W21394  11.547   6.635   4.536 -0.2337 -0.2208 -0.0986
 7981W        W21395  10.263  18.068   4.147 -0.0211  0.2234  0.1374
 7982W        W21396   6.547   6.114   1.941 -0.1332  0.4071 -0.0269
 7983W        W21397  15.779  11.270   2.503  0.3753 -0.0743  0.2060
 7984W        W21398   5.974  14.755   1.821 -0.0149 -0.2814 -0.0957
 7985W        W21399  11.031   9.096   4.499 -0.1442 -0.0800 -0.1546
 7986W        W21400   6.670   5.575   6.679  0.0736 -0.2522 -0.3867
 7987W        W21401   4.818  16.185   3.729  0.0987 -0.2307  0.0268
 7988W        W21402   0.280  12.662  14.757  0.0819  0.0315 -0.1584
 7989W        W21403  17.908   0.313  11.089 -0.1330  0.0198  0.2243
 7990W        W21404   3.376   9.316  14.038  0.1147 -0.1194  0.0383
 7991W        W21405   9.817   8.925   4.754  0.2459  0.0749 -0.1165
 7992W        W21406  14.710   3.126   4.358  0.2367  0.0558 -0.1247
 7993W        W21407  12.628   6.879  13.663 -0.1195 -0.1064 -0.2582
 7994W        W21408  15.494  14.354  15.853 -0.2783  0.2604 -0.2613
 7995W        W21409  10.333  10.786  10.891 -0.2261 -0.0409  0.0843
 7996W        W21410   8.206   9.060  12.267  0.4727  0.3740  0.0885
 7997W        W21411   2.027   5.826  11.805  0.1979  0.1034  0.4327
 7998W        W21412  17.176   2.724   0.046  0.1204 -0.1092 -0.2818
 7999W        W21413  14.619   3.449  13.301 -0.3229 -0.0594  0.3832
 8000W        W21414  16.846   2.775  14.305  0.1373  0.1287  0.2226
 8001W        W21415   8.622  15.448   3.469 -0.1320 -0.1832  0.0132
 8002W        W21416   2.911   2.461   2.120 -0.3001  0.3005  0.2179
 8003W        W21417   2.830  16.224   2.426 -0.1361  0.0947 -0.0638
 8004W        W21418  16.604   9.351   5.399  0.0803 -0.3434 -0.0429
 8005W        W21419   9.651   9.465   3.502  0.1882 -0.4355  0.4430
 8006W        W21420  12.376   2.757   3.831  0.0692  0.4755 -0.2891
 8007W        W21421   6.497   6.558   2.266  0.2045  0.2389  0.1292
 8008W        W21422   5.005   7.432   0.994  0.0672  0.2052  0.0224
 8009W        W21423  15.577   4.623  13.265 -0.0232 -0.2575 -0.0944
 8010W        W21424  14.591   1.707  13.792  0.3278 -0.2843 -0.0141
 8011W        W21425   4.821   7.189  14.080  0.0448 -0.0686 -0.3888
 8012W        W21426   1.076  10.290   0.327 -0.0878 -0.0537  0.0048
 8013W        W21427  15.067  14.435  12.065 -0.1915 -0.0165 -0.0460
 8014W        W21428  11.736  16.176  11.886  0.0818  0.1677 -0.1829
 8015W        W21429   4.476   0.996  13.124 -0.0527 -0.0858 -0.0263
 8016W        W21430   5.900   3.146   1.903 -0.2224  0.1592 -0.1704
 8017W        W21431   0.693   3.012   0.395 -0.1845 -0.0479 -0.0569
 8018W        W21432  16.620  16.968  16.176  0.2512  0.2461 -0.2153
 8019W        W21433   7.512   1.861   3.329 -0.1109 -0.1134 -0.2837
 8020W        W21434   0.293   6.780  10.389 -0.0863 -0.0125 -0.1434
 8021W        W21435   1.564  11.191  11.399 -0.3649 -0.1977  0.2208
 8022W        W21436  13.130   3.818   1.715 -0.0935 -0.1883 -0.0977
 8023W        W21437   2.422   0.912  12.602  0.2480  0.0699 -0.1030
 8024W        W21438   1.940  17.245  11.389 -0.1695 -0.0735  0.1363
 8025W        W21439   3.772  13.887   4.743  0.0844 -0.0115 -0.1956
 8026W        W21440  14.428   1.340  14.300 -0.4615  0.1566 -0.0198
 8027W        W21441   6.137   9.313   0.675 -0.0251  0.0439 -0.0487
 8028W        W21442   6.576  11.578   4.503 -0.4292  0.2785 -0.0915
 8029W        W21443   5.372   5.351  11.260 -0.1621 -0.0427  0.0641
 8030W        W21444   7.009   7.136  14.071  0.0348  0.2705 -0.0313
 8031W        W21445   9.892   6.342  15.785  0.1819 -0.0321 -0.2460
 8032W        W21446   4.340   1.633   6.643 -0.3688  0.2458  0.0912
 8033W        W21447   5.241  10.317   0.172  0.2182  0.1204 -0.1448
 8034W        W21448   1.294   4.930  10.672  0.1963  0.0722 -0.0756
 8035W        W21449   2.770   1.630  14.372  0.0781  0.2082 -0.2041
 8036W        W21450  11.106   0.783  11.794  0.1252  0.0657 -0.0230
 8037W        W21451  13.457  12.086  16.165 -0.1403  0.0188 -0.3404
 8038W        W21452  11.892   8.122   5.365  0.1853 -0.0412  0.0539
 8039W        W21453  12.856  16.878  12.344  0.0250 -0.1524 -0.0881
 8040W        W21454   9.413  14.061  16.100  0.0779  0.1722 -0.1574
 8041W        W21455  13.137  11.870   4.695 -0.4214  0.2191  0.1296
 8042W        W21456  15.008  12.166  10.716 -0.0119 -0.1033 -0.0816
 8043W        W21457  16.972   7.671  10.644 -0.2172  0.0611  0.1320
 8044W        W21458   7.522   1.040   2.057 -0.6206 -0.0046  0.0888
 8045W        W21459   0.147   5.181  15.558 -0.0011  0.3703  0.2434
 8046W        W21460  13.536   4.469   4.183 -0.1769  0.1223 -0.1527
 8047W        W21461  17.383  10.071   0.960 -0.1024  0.0454 -0.0473
 8048W        W21462   2.673  10.452  13.411 -0.2256 -0.0337 -0.0516
 8049W        W21463  15.369   5.959  13.934 -0.0083 -0.0362 -0.1640
 8050W        W21464   7.943   2.901   1.082  0.0107  0.1896  0.0240
 8051W        W21465   8.725   9.181   5.380 -0.1493  0.1007  0.0774
 8052W        W21466  14.096   2.507   5.698  0.1706 -0.4617  0.0691
 8053W        W21467   2.158   1.422   4.071  0.1175 -0.1552  0.0415
 8054W        W21468  16.215   3.259   5.637 -0.2348 -0.3799 -0.0930
 8055W        W21469  10.021   5.949  12.043 -0.2494 -0.1624  0.1702
 8056W        W21470   6.238   2.054   0.869 -0.0331  0.2651 -0.0632
 8057W        W21471  12.415   6.418  11.426  0.1717  0.1125  0.3547
 8058W        W21472   1.676   3.511  14.525 -0.0111 -0.1547 -0.2458
 8059W        W21473  11.880  16.782  11.099  0.1208  0.3003 -0.1811
 8060W        W21474  12.572   9.035  14.093 -0.0249 -0.2566  0.0781
 8061W        W21475   1.089   5.720  14.077  0.0118 -0.1183 -0.1137
 8062W        W21476   2.034  17.945  15.227  0.0745  0.1779  0.1313
 8063W        W21477  15.204  11.259  16.241  0.3146 -0.1151  0.0447
 8064W        W21478  11.839  13.047   0.389 -0.1721 -0.3214  0.0069
 8065W        W21479  10.287  14.027   2.390  0.0284  0.0792  0.2069
 8066W        W21480  12.230  10.840  15.376 -0.1286  0.0381 -0.0727
 8067W        W21481  12.250   6.091   2.005 -0.0405  0.5156 -0.3660
 8068W        W21482  12.367  10.129   3.861 -0.0419  0.0567  0.1704
 8069W        W21483   7.489   2.120  12.507  0.3151  0.1995 -0.1947
 8070W        W21484  11.349  16.992   0.652  0.1842  0.1458  0.4097
 8071W        W21485   9.531  12.092   0.299 -0.2091 -0.0444 -0.3972
 8072W        W21486  15.053   8.545  11.089  0.2599  0.1634  0.0357
 8073W        W21487   0.350  13.998  14.696 -0.0063  0.1901 -0.0361
 8074W        W21488  18.056  18.028   1.953  0.0386  0.0714  0.1112
 8075W        W21489  10.584  17.483   0.078  0.1081 -0.0319  0.3445
 8076W        W21490  13.414  17.294   6.363  0.2750 -0.1144  0.3265
 8077W        W21491  18.202  11.016  12.230  0.0214  0.2228  0.1657
 8078W        W21492  16.585   9.930  15.607 -0.1047 -0.2310  0.1013
 8079W        W21493   3.469   0.941  14.210  0.0287 -0.0101 -0.0548
 8080W        W21494  11.833  14.695  12.967 -0.1456 -0.1390  0.0916
 8081W        W21495  14.023   0.954   5.766 -0.3005 -0.0032 -0.0168
 8082W        W21496   6.467  10.197   2.808  0.0663 -0.0471 -0.3604
 8083W        W21497  10.923  15.844   5.185 -0.2623  0.1161 -0.1735
 8084W        W21498   1.693  11.708  15.513  0.0020  0.1696  0.0915
 8085W        W21499  13.452  10.379   2.640  0.2091 -0.1755 -0.0186
 8086W        W21500   5.114  10.860   1.716 -0.1834  0.2787  0.0912
 8087W        W21501   0.304  11.396  13.537  0.1278 -0.0554 -0.2153
 8088W        W21502  12.437   1.621   2.333  0.3127  0.1296  0.0855
 8089W        W21503   7.450   7.969  13.345 -0.0645  0.0588 -0.1867
 8090W        W21504  18.017   7.078   3.300 -0.3802 -0.0081 -0.0314
 8091W        W21505   9.834  14.923   0.248  0.3088 -0.2515 -0.3102
 8092W        W21506  12.469   4.179   3.493 -0.1791  0.0756  0.0506
 8093W        W21507   3.453   1.475   3.187  0.1312 -0.1440 -0.1143
 8094W        W21508  15.174   2.184   1.144  0.0652  0.2685 -0.2466
 8095W        W21509   8.835  17.754   0.968 -0.0517 -0.1493 -0.2377
 8096W        W21510  11.559   3.937   0.447 -0.2869  0.2676  0.2222
 8097W        W21511  13.775  12.681   1.243  0.1533  0.0998 -0.0299
 8098W        W21512  14.520   2.102   1.312  0.1396  0.0119  0.0784
 8099W        W21513   3.064   3.793   3.283  0.1778 -0.3690  0.3482
 8100W        W21514   5.329  14.216  12.170 -0.0404  0.2400 -0.0092
 8101W        W21515  14.390  16.399  15.326  0.0080 -0.2723 -0.0429
 8102W        W21516  15.952   2.410  12.677  0.2289  0.2628 -0.2488
 8103W        W21517  17.797  11.015   0.598  0.1798  0.4588  0.0040
 8104W        W21518   9.643   8.426  12.971  0.1731  0.0625 -0.2452
 8105W        W21519  14.520   1.694  11.894 -0.0330 -0.0871 -0.0504
 8106W        W21520   1.988  17.616   1.930 -0.1570  0.0979  0.1542
 8107W        W21521  16.271   2.292  15.852 -0.1866  0.0849  0.3074
 8108W        W21522  13.091   0.765   5.262  0.2144 -0.1167  0.0179
 8109W        W21523   6.630   8.113  14.159  0.2150  0.0691 -0.4282
 8110W        W21524   6.894   2.148   2.434  0.2573 -0.1867  0.3249
 8111W        W21525   9.158   3.650  12.753 -0.0364 -0.1334 -0.0282
 8112W        W21526   8.352  15.947   4.228  0.1318  0.0190  0.1125
 8113W        W21527  10.551   4.064   1.744  0.0228 -0.2191 -0.0435
 8114W        W21528   3.785   3.961   2.935 -0.1212 -0.0540 -0.1464
 8115W        W21529   9.472  13.009   6.318  0.1622  0.0418  0.2330
 8116W        W21530   1.752  13.607  16.399  0.2899  0.1681  0.3212
 8117W        W21531   1.320  16.499  13.958 -0.1582  0.1678 -0.2423
 8118W        W21532   2.167  14.785   3.152  0.0971 -0.1122  0.0222
 8119W        W21533   9.976   6.551   1.242 -0.2551  0.0154  0.0594
 8120W        W21534  12.976  14.088  12.834 -0.2524  0.1303  0.0213
 8121W        W21535  13.428  12.054   1.852 -0.0966  0.0450 -0.0107
 8122W        W21536   2.375   6.708   2.695  0.0789 -0.1483  0.0189
 8123W        W21537  14.166  12.042   6.766 -0.1238  0.0764 -0.0005
 8124W        W21538   3.891  16.265  16.371 -0.1805  0.0245  0.0649
 8125W        W21539  18.266   1.550  15.095  0.1657  0.0452  0.0058
 8126W        W21540   7.945  10.002   4.842  0.1501  0.0032 -0.1180
 8127W        W21541   9.818   2.565   3.614 -0.1210 -0.3214  0.0254
 8128W        W21542  11.908   6.884  12.624  0.0961  0.0674 -0.1686
 8129W        W21543   1.320   7.839   0.301 -0.0151 -0.0622  0.2847
 8130W        W21544   7.670   4.926  12.190 -0.0125 -0.0139 -0.3031
 8131W        W21545  14.345   3.257  11.071 -0.2246  0.3552 -0.0047
 8132W        W21546   4.818   9.147   4.743 -0.1367  0.2560 -0.0274
 8133W        W21547  12.596   2.214   5.178 -0.0695  0.0032 -0.0896
 8134W        W21548   1.406  12.296  13.531 -0.0991  0.1164 -0.0526
 8135W        W21549  16.448   0.125   4.000  0.0797  0.0785 -0.3376
 8136W        W21550   1.527   3.654  16.140  0.2461  0.1655  0.1027
 8137W        W21551  10.032   6.525  13.095 -0.1972  0.3214  0.0278
 8138W        W21552   6.247   3.521   0.712 -0.0533 -0.1361  0.0465
 8139W        W21553   0.424  11.511   4.653 -0.0406  0.1309 -0.0362
 8140W        W21554  10.269   8.482   5.940  0.0392  0.0066 -0.0222
 8141W        W21555  12.048  15.139   5.596 -0.2156  0.0673 -0.2646
 8142W        W21556   0.317   4.179   4.342 -0.1578 -0.0751  0.1206
 8143W        W21557   4.551   8.379   1.822  0.1167  0.1650  0.0476
 8144W        W21558  17.087  10.179  13.863 -0.1885 -0.3129 -0.0758
 8145W        W21559   6.335   5.150  13.836  0.3560 -0.1459 -0.1962
 8146W        W21560   0.129   3.673   1.974 -0.0024 -0.2392 -0.1268
 8147W        W21561   8.108   9.202  14.283  0.3845  0.1235 -0.2020
 8148W        W21562   6.078   8.819   0.059 -0.2870  0.0355  0.1314
 8149W        W21563   9.555   9.487  14.128  0.0123  0.1947  0.1618
 8150W        W21564   3.894  10.061  10.439  0.1076 -0.1111  0.1656
 8151W        W21565  10.582  16.028  15.532 -0.3811 -0.1203 -0.0769
 8152W        W21566  10.204  12.287   1.638 -0.1309  0.3172  0.0078
 8153W        W21567  11.171  10.838   0.332  0.0967 -0.2327  0.0874
 8154W        W21568  14.780   9.756  10.109 -0.0108  0.0983 -0.0717
 8155W        W21569  15.668   6.390   3.406  0.1751 -0.0478  0.1751
 8156W        W21570  10.322   8.073   1.820  0.2151  0.1241  0.1057
 8157W        W21571   2.739  10.556   1.981  0.0437 -0.0295  0.1270
 8158W        W21572  11.955   4.210   4.679 -0.2170  0.1526 -0.3217
 8159W        W21573   4.847   7.614  16.193 -0.1824  0.1437  0.0620
 8160W        W21574  12.803  15.892  13.345  0.2293 -0.1343 -0.0752
 8161W        W21575   7.824   8.359   4.910  0.5566 -0.2151  0.0674
 8162W        W21576  14.467   0.829   1.288 -0.2532 -0.2453 -0.0452
 8163W        W21577  13.139  11.776   1.528 -0.0162 -0.1127  0.1693
 8164W        W21578  11.656   0.691  11.847  0.1522  0.1224 -0.3350
 8165W        W21579  12.533  14.757  15.841  0.3128  0.0028  0.2628
 8166W        W21580   9.829   9.940   0.719 -0.2154 -0.0289  0.2551
 8167W        W21581   1.531  13.822   5.199 -0.0157  0.1996 -0.0738
 8168W        W21582   8.941  16.153   3.137  0.1183 -0.3242 -0.2335
 8169W        W21583   6.396   1.385   0.786 -0.2248 -0.0628  0.1440
 8170W        W21584   3.818  12.371   1.343 -0.2249  0.0261 -0.2814
 8171W        W21585   0.991   7.822   4.128 -0.3208 -0.2776  0.4499
 8172W        W21586   8.535   9.487  14.398 -0.0930  0.0519 -0.2560
 8173W        W21587  12.147   0.871   0.167  0.0884  0.1589  0.1412
 8174W        W21588  16.883  11.300  15.706 -0.2062 -0.0687  0.2838
 8175W        W21589  12.128  13.200  11.598 -0.1285  0.1199  0.3910
 8176W        W21590  15.823   8.897   3.185  0.1138  0.1496  0.1099
 8177W        W21591   1.447   1.245  14.293 -0.0717  0.1609 -0.0343
 8178W        W21592  16.868   0.020   2.054  0.2606 -0.0514 -0.0893
 8179W        W21593   2.783   7.012   2.798 -0.0247 -0.2412 -0.3074
 8180W        W21594   3.516   3.741  11.731 -0.2357 -0.1680  0.1847
 8181W        W21595   7.642  17.743   3.004  0.3756  0.0476  0.0186
 8182W        W21596   7.380  14.172   5.066  0.1374  0.3113 -0.0722
 8183W        W21597  13.772   7.441  10.917 -0.1037  0.2664  0.1127
 8184W        W21598  17.774   7.760   1.987 -0.3015 -0.3802 -0.1554
 8185W        W21599  13.274  15.067  13.334  0.1690  0.1382  0.0483
 8186W        W21600   8.459  14.955   0.834  0.1581 -0.0926  0.0352
 8187W        W21601   5.741  14.816   1.327 -0.0908  0.3832 -0.2381
 8188W        W21602  10.993   9.722   4.853  0.0397  0.2433 -0.1495
 8189W        W21603  13.801  10.067   2.845  0.0464 -0.0219  0.0831
 8190W        W21604  13.928  14.819  12.561 -0.1435 -0.1076 -0.2420
 8191W        W21605   8.810   9.934   1.899 -0.0384  0.0997 -0.1296
 8192W        W21606   2.510   8.693   3.682  0.2045 -0.1113  0.5821
 8193W        W21607   3.180  11.038  14.503  0.4171  0.1729 -0.0347
 8194W        W21608   6.178  11.310  12.788 -0.0709 -0.0879 -0.0301
 8195W        W21609  10.124  16.696  13.603 -0.1197  0.0306 -0.0664
 8196W        W21610  18.001   2.753  12.894 -0.2872  0.0969 -0.1256
 8197W        W21611   7.504  10.945   3.803  0.0407 -0.1930  0.0851
 8198W        W21612   1.281   5.913  14.506 -0.2234  0.4254 -0.1476
 8199W        W21613   2.082   5.234   2.517 -0.1339 -0.0105  0.2302
 8200W        W21614   9.070   9.217   5.789 -0.2998 -0.0608  0.5571
 8201W        W21615   6.071   2.252  14.318  0.0232 -0.2365 -0.0871
 8202W        W21616   0.717   9.100  12.519  0.1313  0.0332  0.2943
 8203W        W21617  16.667  15.856  11.632 -0.0750 -0.3199  0.0836
 8204W        W21618   9.484   0.845  12.443 -0.0282  0.1722  0.0341
 8205W        W21619  13.312  14.483  14.164  0.0292 -0.1586 -0.0803
 8206W        W21620  10.073  12.826  15.709  0.0311 -0.1185  0.0968
 8207W        W21621  11.863   9.712  10.742 -0.1848  0.3720  0.0675
 8208W        W21622   9.351   9.510  15.041 -0.2237 -0.0470 -0.0918
 8209W        W21623  10.675   8.073  12.777 -0.0560  0.0504 -0.1751
 8210W        W21624   4.247  17.935   4.814  0.1561  0.0529 -0.2402
 8211W        W21625  13.373  12.573   4.754 -0.4189  0.3341 -0.1381
 8212W        W21626   9.548  10.974   5.763 -0.0222  0.0930 -0.2398
 8213W        W21627   7.199   0.414  13.460 -0.0995  0.2934  0.2836
 8214W        W21628   8.249   5.113  11.214 -0.0851 -0.1317  0.0863
 8215W        W21629   8.693  17.468   0.019  0.0636 -0.3077  0.2080
 8216W        W21630   8.716  17.148   1.854  0.0509  0.1738  0.1646
 8217W        W21631   3.913   6.025   1.853  0.0471  0.0475 -0.3492
 8218W        W21632   4.909   9.524   6.213 -0.2031 -0.1490 -0.1743
 8219W        W21633  14.700  15.087  16.504  0.0477 -0.1064  0.1481
 8220W        W21634  14.969  17.247   5.277 -0.2244  0.2679 -0.2122
 8221W        W21635  14.688   7.830  10.637  0.0559  0.0299  0.1072
 8222W        W21636  16.589   5.561   2.356  0.0536 -0.3178  0.0682
 8223W        W21637   8.209  15.486   2.337  0.0725 -0.4899  0.1102
 8224W        W21638   9.031   6.121  15.237 -0.0306  0.1621 -0.2200
 8225W        W21639  14.182   0.974  13.074 -0.1497 -0.0342 -0.0546
 8226W        W21640  14.932   3.077  15.734  0.1753 -0.0077  0.1989
 8227W        W21641   0.637   4.305  16.302  0.0488 -0.1052  0.0127
 8228W        W21642   5.533   4.294   4.999 -0.0490  0.0407 -0.0975
 8229W        W21643   1.047  17.985   1.976  0.2312 -0.0643 -0.1332
 8230W        W21644  14.872   8.607   9.814 -0.0230 -0.1302  0.3760
 8231W        W21645   4.496  15.028   3.738  0.1004 -0.1512 -0.1144
 8232W        W21646   4.397   1.587   2.163  0.0164 -0.1310 -0.0693
 8233W        W21647   2.268   0.903   3.861  0.0016  0.0184  0.0051
 8234W        W21648   4.159   5.894  15.079  0.1459 -0.0055 -0.2049
 8235W        W21649   0.369   1.044   2.319  0.1695 -0.0639 -0.1193
 8236W        W21650  12.756  18.101   3.606 -0.1606  0.0123  0.1460
 8237W        W21651  15.746   7.219  15.597  0.2110 -0.2361  0.2856
 8238W        W21652   2.419   1.401   3.206  0.0596  0.0051  0.1008
 8239W        W21653   8.415  14.966  10.385 -0.0281  0.1410  0.0578
 8240W        W21654   7.747   0.697  12.380  0.0792 -0.0533  0.1107
 8241W        W21655   9.564   1.874   5.221  0.2283  0.0881  0.0452
 8242W        W21656  12.236   3.647   3.594  0.0366 -0.1364  0.3861
 8243W        W21657  17.585  11.222  14.916  0.2410 -0.0417 -0.2480
 8244W        W21658   6.830  15.263  10.969  0.0947 -0.1876 -0.0321
 8245W        W21659  10.643  17.624   5.892  0.0703 -0.2640 -0.0047
 8246W        W21660  16.395   6.822   3.722  0.1410 -0.1123  0.2539
 8247W        W21661  12.065   0.352   4.292  0.1840  0.1059 -0.2264
 8248W        W21662  17.214  18.204  14.517 -0.1238  0.0736  0.2957
 8249W        W21663   8.231   3.928   5.973 -0.5497 -0.2812  0.2905
 8250W        W21664  10.782   1.444   0.012 -0.0947 -0.1859 -0.1407
 8251W        W21665  14.724   2.297   3.828 -0.1240  0.0860  0.1040
 8252W        W21666  11.785   8.111  11.998 -0.1342 -0.2166  0.3317
 8253W        W21667  16.587   5.447  12.369 -0.1203 -0.1460  0.3193
 8254W        W21668   0.430   6.443   0.420  0.1138 -0.0891  0.1119
 8255W        W21669   8.503   9.898  12.435 -0.0809 -0.2707  0.1565
 8256W        W21670   0.329  10.684  12.458  0.0427  0.0190 -0.1366
 8257W        W21671   3.999   1.585  16.414 -0.0070 -0.0649 -0.1397
 8258W        W21672   5.965   4.103  11.024 -0.0917 -0.2779  0.0214
 8259W        W21673   2.934  11.793   4.077 -0.1592 -0.1196 -0.0432
 8260W        W21674  13.835   1.683   5.160 -0.3841  0.2049  0.0333
 8261W        W21675   8.327   1.924  13.018 -0.0717  0.2500  0.0883
 8262W        W21676  15.748   8.319   0.947  0.1807 -0.0642  0.0647
 8263W        W21677  11.975   0.210   5.264 -0.3068 -0.1016 -0.0836
 8264W        W21678  18.040  17.854  11.463 -0.0660 -0.0384 -0.1415
 8265W        W21679  12.475  16.336   4.404 -0.1783 -0.1864 -0.1457
 8266W        W21680   8.769   3.956   5.383 -0.1501  0.2767 -0.0880
 8267W        W21681  16.598   6.014   1.070 -0.2344  0.3494  0.1986
 8268W        W21682  13.457   2.719   1.398 -0.1386 -0.2419  0.2862
 8269W        W21683  14.297   3.097  15.116 -0.0293  0.1960 -0.0405
 8270W        W21684   7.191   4.993   1.288  0.0416 -0.2988 -0.2168
 8271W        W21685  12.873  13.289   2.413 -0.1976 -0.0813  0.0342
 8272W        W21686   8.746   7.159  13.102  0.3336 -0.2581 -0.1943
 8273W        W21687   9.954  11.114  14.926  0.0028 -0.0483  0.2259
 8274W        W21688  10.476   6.238   5.499 -0.1556 -0.1253  0.2613
 8275W        W21689   7.550  12.781   2.388 -0.0589 -0.2692  0.0710
 8276W        W21690  16.491   4.328  11.832 -0.2554 -0.0045 -0.0185
 8277W        W21691   9.970   8.202   6.362  0.1006  0.1901  0.3073
 8278W        W21692  10.688   1.735   5.137  0.1368 -0.0200 -0.0679
 8279W        W21693   1.648   5.996   6.237 -0.0736 -0.3439  0.1334
 8280W        W21694   9.486  17.622  12.610  0.1123  0.3037 -0.0681
 8281W        W21695  16.042  14.720  16.060 -0.0109  0.1155 -0.0560
 8282W        W21696   5.171  16.813  14.698 -0.1302  0.0881 -0.2071
 8283W        W21697   2.238   5.151  15.044 -0.0647 -0.3188  0.1900
 8284W        W21698   0.128  12.317  15.131  0.3303  0.0756 -0.0765
 8285W        W21699   1.284   9.971   2.634  0.1224 -0.0727  0.3580
 8286W        W21700  11.299   0.981   4.018  0.0002 -0.0823 -0.0126
 8287W        W21701   5.702  13.641  13.673  0.0103 -0.0059 -0.0904
 8288W        W21702   8.331  12.037  11.978 -0.1384  0.1658  0.1449
 8289W        W21703  16.499   5.353  11.832  0.3572 -0.2586 -0.1066
 8290W        W21704  12.839   2.944   4.278 -0.0131 -0.2311 -0.1362
 8291W        W21705  15.586   7.191   5.987  0.1304  0.1153 -0.0325
 8292W        W21706  11.938   1.649  15.144  0.3687 -0.2426 -0.0452
 8293W        W21707   2.811   2.454   1.167 -0.0140 -0.0507  0.2811
 8294W        W21708  15.653   6.262  10.688  0.1268  0.1066  0.1121
 8295W        W21709  12.557   3.445  14.841 -0.0538 -0.1382  0.0187
 8296W        W21710   8.312   2.673  14.973 -0.1265  0.1838  0.0084
 8297W        W21711  10.505  14.255   3.283  0.0802  0.1958  0.0545
 8298W        W21712  15.117  10.149   3.210  0.2555  0.1370  0.1303
 8299W        W21713  16.819  12.081   0.757  0.2180 -0.0117 -0.1221
 8300W        W21714  13.506  17.231  14.377  0.0787  0.1074 -0.1063
 8301W        W21715   4.876   5.044  12.253  0.2694  0.0284  0.0768
 8302W        W21716  10.828  17.698   1.814  0.1409  0.2357  0.0343
 8303W        W21717  13.959   0.138   9.891  0.0785  0.0645  0.0450
 8304W        W21718  10.157  15.335  13.799 -0.0452  0.0246  0.1081
 8305W        W21719  16.229  11.985   2.551 -0.1965 -0.0357 -0.2467
 8306W        W21720  13.927   6.327  14.949  0.1425  0.3161 -0.4849
 8307W        W21721  13.597   4.135   2.327  0.0818 -0.3072  0.1647
 8308W        W21722  14.318   8.963  11.960  0.0753  0.0407  0.0097
 8309W        W21723   4.120  17.534   5.240 -0.0269  0.0936  0.5485
 8310W        W21724   9.758  15.602  11.224 -0.2324  0.0258  0.0586
 8311W        W21725   0.965   2.407   4.979  0.1301  0.2697 -0.1194
 8312W        W21726   6.982  11.683   1.501 -0.0613 -0.0441 -0.1906
 8313W        W21727  13.423   8.454   5.404  0.1226  0.1172 -0.2419
 8314W        W21728   7.982   1.871   0.052 -0.3616 -0.2002 -0.1881
 8315W        W21729  12.442   0.044   0.413 -0.1423  0.0645  0.0877
 8316W        W21730   2.547  14.009   5.096  0.0485 -0.0861 -0.1750
 8317W        W21731   8.763   3.791  13.892  0.1046  0.2166  0.0292
 8318W        W21732   7.683   9.914   2.691 -0.0490  0.0496 -0.2227
 8319W        W21733  17.245  15.015   4.771 -0.0283  0.0763  0.0085
 8320W        W21734  18.011   3.432   2.697  0.1083 -0.0139  0.0560
 8321W        W21735  12.495  13.137   6.087  0.3456  0.1248  0.1026
 8322W        W21736  11.558  16.107  16.371 -0.1535 -0.0027  0.1226
 8323W        W21737   6.482   7.695  15.333  0.0397 -0.0287  0.0790
 8324W        W21738  18.175   8.978   0.531 -0.1406 -0.0550  0.1754
 8325W        W21739  15.013   7.683   3.808  0.0673 -0.2585 -0.4244
 8326W        W21740   8.837   5.664   0.060 -0.0438 -0.0654 -0.0075
 8327W        W21741  15.300  13.598   5.092  0.1136 -0.3106 -0.2055
 8328W        W21742   5.566  11.145   4.591  0.1630  0.0576 -0.2369
 8329W        W21743  13.727   3.694   2.523 -0.1259 -0.1560 -0.0392
 8330W        W21744   9.951  18.238   3.803  0.0827  0.0595 -0.0230
 8331W        W21745   0.944  12.151   0.885  0.0640  0.2933  0.1366
 8332W        W21746  16.086   1.585   1.511 -0.0722  0.1134  0.1434
 8333W        W21747  13.458   3.434   6.554 -0.0506 -0.0689 -0.5791
 8334W        W21748   9.618  15.966  14.579  0.2584  0.0916 -0.0628
 8335W        W21749   2.686   5.390  12.084 -0.2635 -0.1412 -0.1223
 8336W        W21750   7.756  10.966   1.810 -0.3467 -0.1157  0.1010
 8337W        W21751   8.966   9.986  10.514 -0.1008 -0.3170 -0.0886
 8338W        W21752  12.389  13.620   6.024  0.0472  0.0514  0.0749
 8339W        W21753  11.831  12.793  16.515 -0.3517  0.0379 -0.1608
 8340W        W21754   1.224  16.922   4.969 -0.2758 -0.2306  0.1549
 8341W        W21755   8.542  14.630   1.673  0.0660 -0.1284  0.1963
 8342W        W21756   4.735  15.527   0.640 -0.2770  0.0991  0.0898
 8343W        W21757   0.913  14.773   5.061  0.0308 -0.1118 -0.2246
 8344W        W21758   3.934   1.773  11.319 -0.3194  0.0768  0.1271
 8345W        W21759   6.494   3.816  15.108 -0.3159  0.0510 -0.1953
 8346W        W21760  15.395  13.993  12.105 -0.1844  0.0153  0.2317
 8347W        W21761   4.318  10.646   4.828  0.0419 -0.0700 -0.0618
 8348W        W21762   4.551   6.584   3.462  0.2181  0.0728  0.2212
 8349W        W21763  10.344  16.134  13.377 -0.4627  0.2847 -0.0424
 8350W        W21764   1.773  13.165   4.642  0.1959 -0.0824 -0.2707
 8351W        W21765   7.501  14.322  14.253  0.1878 -0.0603 -0.2674
 8352W        W21766   0.483  10.129   1.781 -0.4102 -0.0704  0.0049
 8353W        W21767  15.727   7.022   1.553 -0.1278 -0.2117 -0.2621
 8354W        W21768  10.412   6.760   0.160 -0.0299  0.1633  0.0311
 8355W        W21769  15.927   6.418   4.775 -0.0582 -0.1362  0.1305
 8356W        W21770  13.283   7.718  14.164  0.0977  0.0569 -0.1270
 8357W        W21771   7.307   4.326   3.637 -0.0131 -0.0185  0.2972
 8358W        W21772   9.395  15.617  14.893 -0.3579 -0.1266  0.0845
 8359W        W21773  10.813  10.518  12.782 -0.1209 -0.1586  0.2444
 8360W        W21774   5.942   8.452   1.148  0.1052  0.1474  0.0707
 8361W        W21775   1.085   1.708   0.681  0.0949  0.0680  0.1619
 8362W        W21776  15.623  15.123  16.042  0.0190  0.0571 -0.0619
 8363W        W21777   7.084   7.925   0.227 -0.1740 -0.0648 -0.2207
 8364W        W21778   8.250  10.747  12.395 -0.3229  0.0809 -0.2750
 8365W        W21779   3.246   6.147  14.300  0.0327  0.1915 -0.0685
 8366W        W21780   8.886   3.019   4.815  0.0236 -0.3810 -0.1027
 8367W        W21781  13.142   6.699   3.675 -0.2377 -0.0007 -0.0213
 8368W        W21782  16.136   7.615   1.357  0.0732  0.0065  0.0854
 8369W        W21783   4.286   2.638   0.928 -0.0777  0.0248 -0.1736
 8370W        W21784  10.462   2.627  16.546 -0.0500 -0.0125  0.0310
 8371W        W21785  10.986   2.501  14.967 -0.1853 -0.0509  0.2745
 8372W        W21786  14.983   2.995  12.185  0.0056 -0.0216 -0.0798
 8373W        W21787   3.697   1.340   5.786  0.0967 -0.3636  0.1654
 8374W        W21788   7.352   2.642   5.667  0.2703 -0.1589 -0.0440
 8375W        W21789  17.609   1.168   1.001  0.2936  0.2420 -0.2227
 8376W        W21790  13.397   7.051   3.911 -0.0228 -0.1360  0.0715
 8377W        W21791   6.770   0.034   0.618  0.0952 -0.3380 -0.1576
 8378W        W21792   7.033   0.912   0.792 -0.3999 -0.1232 -0.1489
 8379W        W21793  11.644   3.830  15.011 -0.0407  0.0309 -0.0393
 8380W        W21794   4.650   5.265  11.365 -0.0553  0.0575 -0.1944
 8381W        W21795   1.263  10.720   0.093 -0.0365  0.1033 -0.1550
 8382W        W21796   1.010   2.058  16.299 -0.3750 -0.2174  0.1330
 8383W        W21797   5.466  14.111   2.514  0.0372 -0.2424  0.0759
 8384W        W21798   4.860  18.065   5.398 -0.0834 -0.5681  0.0497
 8385W        W21799  16.492   3.896   5.174  0.1838  0.0584 -0.0253
 8386W        W21800   1.878   8.068  15.068  0.2022  0.2093 -0.0836
 8387W        W21801   1.381   6.323  13.211 -0.1626  0.0799 -0.1742
 8388W        W21802   3.440  12.997   3.298  0.0516 -0.1283 -0.2615
 8389W        W21803  16.349  14.162  16.482 -0.3973 -0.0987  0.3601
 8390W        W21804  11.945   2.627   0.743 -0.1732 -0.3041 -0.2377
 8391W        W21805   7.691   1.027   1.559  0.0169  0.0715 -0.1169
 8392W        W21806  10.851  11.596   4.125  0.1746 -0.1292  0.2654
 8393W        W21807   4.223   3.824  15.455 -0.0344  0.0998  0.0232
 8394W        W21808   9.613   3.668  14.145  0.0627 -0.2387  0.0312
 8395W        W21809   7.345   2.984  11.331  0.0916  0.0785  0.0909
 8396W        W21810   8.816   6.839   3.736  0.2615 -0.2136  0.1357
 8397W        W21811  12.824   4.564  15.189  0.2765  0.0747 -0.2575
 8398W        W21812   5.836   8.038   0.139 -0.0187 -0.2520  0.2209
 8399W        W21813   4.189  16.778   5.687  0.0354 -0.1326  0.3474
 8400W        W21814  12.053  15.856   4.555  0.1277 -0.1282  0.0945
 8401W        W21815   9.138   1.752  12.568 -0.1080  0.0773  0.2353
 8402W        W21816   8.494   4.906   3.669 -0.0795 -0.1869  0.2504
 8403W        W21817   4.043  11.848  11.878  0.1304  0.2784 -0.1122
 8404W        W21818  10.636   6.034  12.084  0.0734 -0.0651  0.0488
 8405W        W21819  16.513  10.905  15.621  0.2483 -0.2269 -0.0101
 8406W        W21820   8.864   6.375   1.864  0.0499  0.2962  0.3081
 8407W        W21821   9.659   0.210   5.371 -0.1783  0.0597 -0.2348
 8408W        W21822   3.503   3.545   3.086 -0.0518  0.1435 -0.3251
 8409W        W21823   9.775  18.042  13.303  0.1488 -0.1870 -0.0474
 8410W        W21824   2.450   1.021  13.433 -0.0814 -0.0350 -0.2853
 8411W        W21825   8.387  10.363  16.338 -0.0433 -0.3542  0.0114
 8412W        W21826   4.518  11.291  10.446  0.2650  0.0575  0.0754
 8413W        W21827  15.076   8.649  12.002 -0.1038  0.2937 -0.0109
 8414W        W21828  16.717   9.836   4.644 -0.3399  0.0338  0.1535
 8415W        W21829  14.239  12.567  11.761 -0.1453 -0.3725 -0.2413
 8416W        W21830   4.897  13.385  11.239  0.0408  0.1750  0.2330
 8417W        W21831  12.546  17.890   4.980  0.2891  0.0937 -0.0069
 8418W        W21832   7.956   5.958  14.475 -0.0399 -0.1425  0.1508
 8419W        W21833   7.409   2.709   3.242  0.0417 -0.2143  0.1833
 8420W        W21834  11.041  12.317   1.912  0.2506 -0.3102  0.0844
 8421W        W21835   1.292   2.502  16.497  0.2362  0.0460  0.0082
 8422W        W21836  16.528   7.396   3.147 -0.2754 -0.2099  0.2100
 8423W        W21837   5.669  15.601   0.758  0.0214  0.0485  0.3025
 8424W        W21838  18.109  12.022  11.852 -0.0345 -0.1451 -0.3017
 8425W        W21839   1.641   4.410   0.570  0.1364 -0.3224 -0.3032
 8426W        W21840   9.555  16.519   5.071  0.0532  0.1746  0.2684
 8427W        W21841   9.572   2.978  13.181  0.3535 -0.1881 -0.2837
 8428W        W21842  13.040  14.598   2.360 -0.0365  0.0354  0.2901
 8429W        W21843   5.825  14.877   3.754 -0.1082  0.0227  0.2394
 8430W        W21844   3.143   0.256  11.191  0.2221 -0.0944 -0.2021
 8431W        W21845  17.249   8.476   4.289  0.1118  0.1844  0.2240
 8432W        W21846   0.092   0.103   0.601  0.1995  0.3003  0.0420
 8433W        W21847  15.862  12.923   0.154 -0.0444  0.3059  0.0772
 8434W        W21848  16.496  16.319   2.919 -0.0401  0.2516 -0.1906
 8435W        W21849   3.568  13.987  14.785 -0.1999  0.0502  0.2955
 8436W        W21850   0.712   3.249   2.600  0.0970 -0.0577 -0.1456
 8437W        W21851  13.094  17.032   4.233  0.1181 -0.1263  0.1190
 8438W        W21852   7.213   3.108  12.902 -0.1440 -0.0037 -0.0297
 8439W        W21853  13.000   4.720  12.599  0.1285  0.0964  0.0330
 8440W        W21854  15.035  15.805  12.693 -0.1240  0.0168  0.1568
 8441W        W21855  12.249  13.067   3.597  0.2102 -0.0245 -0.0387
 8442W        W21856   1.229  17.310   4.620 -0.2094  0.1261  0.1741
 8443W        W21857   4.667   2.329  15.069 -0.1272  0.2012 -0.3028
 8444W        W21858  12.466   1.199   0.605  0.0890 -0.1867  0.0723
 8445W        W21859   2.653   3.129  16.552  0.2717 -0.1621  0.3238
 8446W        W21860   8.595   4.542  11.872  0.3300  0.0742 -0.4014
 8447W        W21861  17.131  13.956  12.693  0.0496 -0.2452 -0.4197
 8448W        W21862  15.997  13.645  15.112 -0.0663 -0.1771  0.1850
 8449W        W21863  17.273  10.972  11.710  0.0073 -0.0453 -0.1025
 8450W        W21864   8.754   0.674  14.301 -0.1180  0.2769 -0.0739
 8451W        W21865   7.582  16.442  16.459  0.1764  0.1351  0.3042
 8452W        W21866   9.141   9.014  13.985  0.0612  0.3217 -0.0447
 8453W        W21867   4.151   7.276  15.334  0.0927 -0.1740 -0.1843
 8454W        W21868  10.052  11.704  12.540 -0.2493  0.1380 -0.1485
 8455W        W21869   1.680   0.255  15.797  0.2346 -0.1974  0.3240
 8456W        W21870   4.007   9.330  10.199 -0.2963 -0.0134  0.3523
 8457W        W21871  13.581  12.527  13.326 -0.1330 -0.0970 -0.0162
 8458W        W21872  18.050   7.798   5.489 -0.0274  0.2255 -0.1126
 8459W        W21873  17.182  14.789  13.825 -0.0518 -0.0275 -0.0163
 8460W        W21874   4.004  11.211   3.417  0.0933 -0.1273  0.0145
 8461W        W21875  16.185   5.624   2.839  0.0885  0.0340  0.2179
 8462W        W21876   5.570   9.558   3.468 -0.0610  0.3755  0.1391
 8463W        W21877   5.503   6.531  15.470 -0.2626 -0.1115 -0.0430
 8464W        W21878   1.201   4.733  16.279  0.0055 -0.3173  0.0972
 8465W        W21879   5.829   2.099   0.037 -0.2733  0.1727  0.0178
 8466W        W21880  16.730   3.973  15.289  0.1871  0.0740 -0.0580
 8467W        W21881  16.717  12.701  14.645  0.2130  0.0574  0.1420
 8468W        W21882   7.886  15.971  10.726  0.0156  0.1818  0.1568
 8469W        W21883   3.753   4.322   0.902 -0.0789 -0.1130 -0.2987
 8470W        W21884   9.812   0.614   4.576  0.1309 -0.1382  0.2141
 8471W        W21885   7.030   6.349  10.522 -0.0247  0.2660  0.0145
 8472W        W21886   2.853   6.415   2.066  0.2650 -0.1277 -0.2606
 8473W        W21887  14.213  10.825   2.454 -0.1642  0.0176  0.0062
 8474W        W21888  13.416  13.924   6.451  0.1203 -0.3052 -0.0014
 8475W        W21889   8.520   2.852   2.231 -0.1246 -0.0993 -0.2305
 8476W        W21890   5.129  15.265  14.446 -0.1044  0.0905  0.2318
 8477W        W21891   3.053   9.236  10.592  0.0230  0.3011  0.4545
 8478W        W21892  16.349  16.756   5.919  0.1389  0.3917  0.0603
 8479W        W21893  14.939  12.723   5.081 -0.4131 -0.1699 -0.0652
 8480W        W21894   8.122   4.084   3.102 -0.3448  0.2955 -0.3548
 8481W        W21895   0.120  17.982   0.229  0.0728  0.0423 -0.3408
 8482W        W21896  17.014   8.775  14.254  0.0346 -0.0067  0.1484
 8483W        W21897   7.825   1.202   3.720 -0.1494  0.2059 -0.1259
 8484W        W21898   7.988   0.814   2.042 -0.1992  0.1235 -0.1315
 8485W        W21899   0.393  14.507   3.222  0.4315 -0.3373 -0.2738
 8486W        W21900  16.349   1.791   4.228  0.0852 -0.0184  0.1878
 8487W        W21901   6.812  16.328   3.350  0.1693  0.0572  0.2056
 8488W        W21902   6.326   8.054   0.454  0.0811  0.3171  0.0063
 8489W        W21903  16.378   8.858   2.527 -0.1339 -0.3290  0.0449
 8490W        W21904   9.858  14.965  13.873 -0.0857 -0.3688 -0.0719
 8491W        W21905   1.947   7.748  14.562  0.1989 -0.2935 -0.1266
 8492W        W21906   4.222   4.703   5.820  0.0916  0.0876  0.0317
 8493W        W21907   3.716   5.755  12.852 -0.2102 -0.0425  0.3091
 8494W        W21908   8.623  16.686   2.140  0.0881 -0.0821  0.0914
 8495W        W21909   3.783  13.348   4.736 -0.4345  0.5270 -0.2196
 8496W        W21910  16.268   2.231   2.398  0.1470  0.0634  0.0412
 8497W        W21911  15.116   4.021   2.211  0.3110 -0.0729 -0.1773
 8498W        W21912   1.361   9.806   5.687 -0.0245  0.0523 -0.0019
 8499W        W21913   6.168  16.508  12.295 -0.1920  0.0529  0.2247
 8500W        W21914  17.599  13.904  13.704 -0.1833 -0.2811  0.2703
 8501W        W21915  15.563   5.384  11.045 -0.2566 -0.0456  0.0878
 8502W        W21916  16.774  10.499   4.072 -0.0865  0.5168  0.2278
 8503W        W21917   7.644   1.609  13.723 -0.2787 -0.1802  0.0298
 8504W        W21918   6.159  14.693  12.147  0.0343 -0.0180 -0.1450
 8505W        W21919   8.428  13.738   2.342  0.1510 -0.0188  0.5583
 8506W        W21920  16.406  14.001  13.448  0.2234 -0.0034 -0.2003
 8507W        W21921  17.607  13.484   5.112 -0.3225 -0.0032 -0.0302
 8508W        W21922   2.035  12.566   3.057 -0.0278 -0.2737  0.3726
 8509W        W21923   8.052  15.923   0.624  0.2571 -0.2712  0.0589
 8510W        W21924  14.500   1.520  12.875 -0.1156  0.2013 -0.0871
 8511W        W21925   0.640   3.689   2.252  0.2589 -0.0039  0.0524
 8512W        W21926   2.145  17.539  14.060  0.1014  0.0999  0.0841
 8513W        W21927   1.815  10.168  12.374 -0.0993  0.1765 -0.1776
 8514W        W21928   4.992  18.247  11.821  0.0568  0.0543  0.1844
 8515W        W21929   4.608   3.972  14.220  0.1144  0.2783 -0.0371
 8516W        W21930   6.974  12.999  12.507 -0.0161 -0.1218 -0.1778
 8517W        W21931  11.662   8.211  11.466  0.2249 -0.1077  0.1676
 8518W        W21932   1.590   3.461  10.234 -0.1414  0.1540  0.0511
 8519W        W21933  10.650  16.486  12.077  0.0296  0.0362  0.0034
 8520W        W21934   6.839   1.327   0.482  0.4547 -0.0462 -0.0722
 8521W        W21935   5.151   4.504   5.219 -0.0218  0.0403 -0.1099
 8522W        W21936   8.576  17.013   3.067 -0.0065 -0.1207 -0.2553
 8523W        W21937   4.316   5.158  12.750  0.3354 -0.1872 -0.1449
 8524W        W21938   7.284   4.480   5.388  0.1760  0.0176 -0.1367
 8525W        W21939   2.491  11.633  15.567  0.3999 -0.0808  0.2457
 8526W        W21940   3.211   7.305  15.646  0.0074  0.0803  0.0101
 8527W        W21941  12.358   7.279  16.104  0.0505  0.0551 -0.1184
 8528W        W21942  16.035  14.571   6.819 -0.0871  0.0900  0.1627
 8529W        W21943   0.365  17.468   0.440  0.2985  0.1502 -0.3680
 8530W        W21944  11.885   7.255  16.420  0.1822 -0.0693  0.0416
 8531W        W21945   2.672  11.474   1.560 -0.1000  0.0279  0.0040
 8532W        W21946   6.189   0.295   4.172 -0.2587 -0.2072  0.1208
 8533W        W21947   6.877   0.700   1.264  0.0969 -0.0929 -0.4265
 8534W        W21948   6.041   4.969  15.945 -0.1862  0.2435 -0.1931
 8535W        W21949  14.574   2.410  14.784  0.1688 -0.1464 -0.0243
 8536W        W21950   2.916   3.991  11.476  0.0795 -0.1597 -0.1108
 8537W        W21951  15.010  13.699   4.693 -0.1547  0.0498 -0.1033
 8538W        W21952   4.592   4.351  12.923 -0.1241 -0.0119 -0.0687
 8539W        W21953  17.821  16.986   3.256 -0.1635 -0.1426 -0.2907
 8540W        W21954  12.065   0.493  14.032 -0.2129  0.2086  0.0076
 8541W        W21955  11.037   3.639  10.966 -0.0720  0.2600  0.0707
 8542W        W21956   3.820   5.280  12.722 -0.0095 -0.1589 -0.1538
 8543W        W21957   4.639  10.900  10.924 -0.0552  0.0469 -0.0719
 8544W        W21958   6.939   0.350   6.087  0.2818 -0.0494  0.2833
 8545W        W21959   7.247  13.896   1.838  0.0278  0.0520 -0.0197
 8546W        W21960   5.853   6.604  13.343 -0.1732 -0.1955  0.2134
 8547W        W21961   7.174  14.197   4.569 -0.0745 -0.1215 -0.1557
 8548W        W21962  17.261  10.412  15.003 -0.3308  0.0480  0.4106
 8549W        W21963  17.160  13.555  12.429 -0.2289 -0.3490 -0.1714
 8550W        W21964   0.413   8.455   4.306  0.1278  0.0107 -0.2176
 8551W        W21965   1.366  15.519  16.381  0.2039 -0.1385  0.1606
 8552W        W21966  12.846   8.459   1.621  0.3819  0.0328  0.3062
 8553W        W21967   1.971   2.366   4.123  0.4663  0.0812 -0.1789
 8554W        W21968  14.714  12.965   1.165 -0.4332 -0.1136  0.0145
 8555W        W21969   3.176   7.543  15.134  0.1561  0.2397  0.0841
 8556W        W21970  12.009   8.641   0.709 -0.0861  0.0474 -0.0422
 8557W        W21971  17.568   5.551   2.139 -0.1480  0.4733 -0.2879
 8558W        W21972   1.862   4.400  11.150 -0.0160 -0.3379 -0.0336
 8559W        W21973  14.741   0.069   5.404  0.0950  0.0525  0.1263
 8560W        W21974  12.301  11.443   4.299 -0.1453 -0.2761 -0.2688
 8561W        W21975  17.374  14.827   2.619 -0.0939  0.1175  0.1374
 8562W        W21976   5.418   3.281   5.705  0.0815  0.1223  0.0730
 8563W        W21977   2.243   4.354   2.593  0.0556  0.3560 -0.0741
 8564W        W21978   9.089  13.969  14.577  0.1226  0.0083  0.1115
 8565W        W21979  17.173   6.885  15.125  0.4255 -0.1531 -0.1173
 8566W        W21980   3.520   2.741  14.689  0.1693  0.1196 -0.0623
 8567W        W21981   9.002   9.458  13.163 -0.3687 -0.1159 -0.0629
 8568W        W21982  10.614  13.791  12.004 -0.1314 -0.0058  0.0391
 8569W        W21983   2.598  16.139   2.938  0.1806 -0.1716  0.0293
 8570W        W21984   3.957  14.672  13.356 -0.1860  0.0245 -0.0684
 8571W        W21985   1.662  10.722  11.456  0.1553  0.1154  0.0189
 8572W        W21986  13.255   1.983  16.190  0.0181  0.0004 -0.1162
 8573W        W21987  15.324  15.173   1.033  0.1461  0.2595  0.0269
 8574W        W21988  17.535  13.471   2.789 -0.3245 -0.1970  0.1474
 8575W        W21989  14.276  17.366  15.191  0.1086  0.1257  0.0934
 8576W        W21990   6.562  15.751  11.149 -0.0699  0.0252 -0.2258
 8577W        W21991   3.824   9.150   5.144  0.4600 -0.3044 -0.1838
 8578W        W21992   1.492   0.540  11.258  0.2390  0.0244  0.1867
 8579W        W21993   4.828   9.589  14.590 -0.0815  0.2163 -0.2735
 8580W        W21994   7.671  10.731  11.091  0.1357 -0.1375  0.3680
 8581W        W21995   3.106   0.427  14.697  0.1206  0.2405  0.0115
 8582W        W21996  15.550   5.684  15.436  0.2874  0.1767 -0.3001
 8583W        W21997   3.501   1.639   1.850  0.2082  0.0104 -0.1156
 8584W        W21998   2.114   7.352  12.706 -0.1740 -0.0325 -0.0220
 8585W        W21999  14.934   1.898  11.562  0.1358  0.0596  0.0543
 8586W        W22000  17.367  12.009   2.191  0.0143  0.1435 -0.1416
 8587W        W22001   5.425  14.669   2.587 -0.2164 -0.0972  0.2814
 8588W        W22002  13.648   6.799   3.414  0.1092  0.2814 -0.2873
 8589W        W22003   5.388   5.039   1.204 -0.1119  0.0051  0.2628
 8590W        W22004  16.625  15.833  11.080 -0.0037 -0.0239  0.0552
 8591W        W22005  16.279  15.703   4.105  0.0857  0.0949  0.1585
 8592W        W22006   1.642  15.112   2.074  0.0384  0.1964 -0.0568
 8593W        W22007   3.293  13.372  10.808 -0.2735 -0.3006  0.1709
 8594W        W22008  16.668   7.505   1.743  0.0073 -0.1760  0.1067
 8595W        W22009   2.366  16.279   1.555  0.1893  0.0426 -0.0674
 8596W        W22010   2.547   3.130  11.090 -0.2109 -0.4039 -0.0404
 8597W        W22011  15.780   0.453  15.078  0.0014 -0.0795 -0.2193
 8598W        W22012   2.871  13.401  13.328 -0.2420  0.0860  0.1436
 8599W        W22013   4.856   4.483  15.760 -0.0160  0.0087 -0.1180
 8600W        W22014   1.855   1.438   2.426  0.2588 -0.0973 -0.1575
 8601W        W22015  16.865  12.090   2.848  0.5180  0.1391  0.0185
 8602W        W22016   1.402   3.485  10.735  0.0003 -0.0151 -0.2799
 8603W        W22017  15.269   4.682  15.278 -0.3656 -0.1746  0.2487
 8604W        W22018   1.667   9.891   4.356 -0.0569  0.1459 -0.0123
 8605W        W22019  18.053   2.119   4.300 -0.1845  0.0593  0.0075
 8606W        W22020  16.384   5.669  15.129  0.1210 -0.0828 -0.0017
 8607W        W22021   2.275  11.738   0.328  0.0282  0.0223 -0.0497
 8608W        W22022  14.661   4.627   1.688  0.1352  0.0134  0.0919
 8609W        W22023   7.459  16.242   1.368 -0.0254  0.2308  0.0698
 8610W        W22024  17.920  10.591  12.953 -0.1263 -0.0135  0.1438
 8611W        W22025  14.814   6.890   1.504  0.1644 -0.1101 -0.0625
 8612W        W22026   8.699   3.547  16.492 -0.2083  0.2077  0.2245
 8613W        W22027   3.635  14.586   0.671  0.0404  0.0241 -0.0911
 8614W        W22028  13.947   6.866   1.122 -0.0501  0.1492 -0.0871
 8615W        W22029  16.092   4.249  14.633 -0.4079 -0.1621  0.0158
 8616W        W22030  12.727   9.457  10.544 -0.2684 -0.1395  0.1717
 8617W        W22031  13.776   9.089   4.171  0.2843 -0.0647 -0.1013
 8618W        W22032  17.944   5.314   9.897 -0.3510  0.0966  0.1056
 8619W        W22033   1.944   6.742  14.744  0.0659 -0.0509 -0.1929
 8620W        W22034  10.325   6.446  11.408  0.0327  0.3724 -0.0655
 8621W        W22035   1.027   3.950   4.328 -0.4088 -0.0284 -0.1679
 8622W        W22036   8.140   4.290  11.138  0.0189 -0.1668  0.0640
 8623W        W22037   8.700  13.722   1.309 -0.2471 -0.3098  0.3553
 8624W        W22038   4.019  10.933   4.451 -0.0298  0.0750 -0.0680
 8625W        W22039  12.191   3.364  15.337 -0.1155 -0.0466  0.2772
 8626W        W22040  17.249  11.005   0.478 -0.2404 -0.2815 -0.3647
 8627W        W22041  15.020  18.102   2.486 -0.3962  0.1336  0.1728
 8628W        W22042  16.233   8.349  10.981  0.2402 -0.0809  0.1053
 8629W        W22043   1.117  14.511   5.498 -0.1869 -0.1422  0.0910
 8630W        W22044   3.880   1.387  15.141  0.3014  0.0852 -0.0609
 8631W        W22045  17.461  10.557   2.137 -0.0816 -0.1619  0.1639
 8632W        W22046  10.496   5.940  16.284 -0.1549 -0.0298  0.1275
 8633W        W22047  17.073  16.663  10.873 -0.2489  0.0678 -0.0245
 8634W        W22048  11.689   3.555  13.359  0.0849  0.0370 -0.5282
 8635W        W22049   9.214  18.184  16.119 -0.0584  0.2347 -0.1192
 8636W        W22050  16.466  11.624   1.553  0.0499 -0.0968  0.1095
 8637W        W22051  16.004   0.682   9.709 -0.1450 -0.0306  0.0626
 8638W        W22052  11.785  10.402  13.801  0.3156 -0.0028 -0.1181
 8639W        W22053  10.151   0.110  12.526 -0.1710  0.0342  0.0478
 8640W        W22054   9.215   6.442   3.816  0.3569 -0.0098 -0.2268
 8641W        W22055  14.384  11.273  15.219 -0.2004  0.0014  0.0538
 8642W        W22056   2.758   2.907   0.916  0.2407 -0.0146  0.1704
 8643W        W22057  14.471   8.572  11.030  0.0673 -0.1420 -0.0838
 8644W        W22058  15.095  17.643  15.233 -0.1270  0.1185  0.0278
 8645W        W22059   8.587  11.713  14.939 -0.1106  0.0373 -0.4900
 8646W        W22060   0.822  17.304   2.301 -0.0867  0.0106 -0.3455
 8647W        W22061   0.013   2.974  13.247  0.2538 -0.0128 -0.1859
 8648W        W22062   3.437   6.196  11.000 -0.2036  0.2086 -0.0374
 8649W        W22063   7.962   9.418  11.221  0.0309  0.0823 -0.1149
 8650W        W22064   1.301  13.041   2.081  0.1482 -0.0670  0.0431
 8651W        W22065   3.238  12.407  13.564  0.2155  0.1971 -0.0484
 8652W        W22066   8.789  13.159  15.359 -0.0869  0.0578 -0.0556
 8653W        W22067   9.947  17.721   6.869 -0.2552  0.2153  0.0258
 8654W        W22068  16.484   8.840   1.745 -0.1547  0.0531  0.2103
 8655W        W22069  12.036   7.029  10.153 -0.1025 -0.5822 -0.0249
 8656W        W22070   1.979  17.824  12.409  0.1216 -0.0334 -0.3493
 8657W        W22071  15.551   5.675   5.116  0.0343  0.1364 -0.1444
 8658W        W22072  11.536   5.938  14.168 -0.0639  0.1414  0.2229
 8659W        W22073   8.205   9.328   1.757  0.2155 -0.2127  0.0655
 8660W        W22074  14.080   3.450   2.954  0.2210 -0.0936  0.0308
 8661W        W22075   2.972  10.196   4.816 -0.1212 -0.3580  0.0946
 8662W        W22076   0.038  17.500  14.587  0.2078  0.0398  0.2197
 8663W        W22077  10.829   1.870  11.162  0.1560 -0.0081  0.0144
 8664W        W22078   1.067   5.922  13.079  0.0135  0.4756 -0.1264
 8665W        W22079  12.994  17.355   2.802  0.0293 -0.1197  0.1426
 8666W        W22080  13.554   3.797  11.591 -0.3287  0.0827  0.2084
 8667W        W22081  17.123  13.805  13.943 -0.0662 -0.2165  0.1157
 8668W        W22082   8.619   4.718  12.731 -0.3550  0.1333  0.0364
 8669W        W22083   7.151  13.125   4.408  0.1667 -0.3115  0.1542
 8670W        W22084  15.085   8.617   1.800 -0.0020  0.1043  0.0292
 8671W        W22085  15.175  16.273  12.582  0.0637  0.3144 -0.0960
 8672W        W22086   0.116   7.595   0.172 -0.2090 -0.2012 -0.0121
 8673W        W22087   8.339   8.807   4.760 -0.3347 -0.2534  0.0766
 8674W        W22088  13.684  15.469   3.352  0.4295 -0.1043  0.1056
 8675W        W22089  14.270   3.524  16.056 -0.0053  0.0289  0.0319
 8676W        W22090  12.659   1.340   3.614 -0.1618 -0.0185  0.1273
 8677W        W22091   4.184  17.533   1.021 -0.1279 -0.3451  0.1436
 8678W        W22092   3.261  13.094   2.071  0.2555 -0.1711 -0.2209
 8679W        W22093   2.954   6.960  13.992 -0.0314 -0.2785  0.1297
 8680W        W22094   1.266   4.209  13.802  0.1037  0.0939  0.3344
 8681W        W22095   0.647   4.394   3.331 -0.0853 -0.1869  0.0674
 8682W        W22096   0.649   6.621  12.686  0.1358 -0.0132  0.1427
 8683W        W22097   7.374   5.025   3.694 -0.1118 -0.3756 -0.1889
 8684W        W22098   7.879   1.386  16.422 -0.0898  0.2548  0.1383
 8685W        W22099   2.375   3.279   3.768  0.1539  0.0517 -0.1171
 8686W        W22100   8.617   1.170  15.139 -0.0611 -0.0199  0.1707
 8687W        W22101   7.001   2.747   0.492  0.0637 -0.3332  0.0358
 8688W        W22102   1.724   4.921  12.108  0.0982 -0.1143  0.2900
 8689W        W22103   5.053  12.157  12.084 -0.0829  0.0489 -0.1531
 8690W        W22104   7.023  14.943   3.239 -0.1167 -0.1366  0.2122
 8691W        W22105  11.694  16.630   0.637  0.2106 -0.2566  0.3995
 8692W        W22106  15.565  16.431   2.506  0.2190  0.1995  0.0731
 8693W        W22107  11.727   8.399  15.564 -0.3175 -0.2397  0.2075
 8694W        W22108   5.069  12.626   4.183 -0.2674 -0.1487 -0.1645
 8695W        W22109   9.253  16.753  14.104  0.0053  0.0676  0.2668
 8696W        W22110   3.305   0.103  16.266  0.1843 -0.3154  0.0727
 8697W        W22111   0.900  13.845   6.237  0.1809  0.0387 -0.1714
 8698W        W22112   0.773   0.152   0.026 -0.1934  0.0271 -0.0471
 8699W        W22113   8.564  13.300  12.189 -0.0297  0.2871 -0.0210
 8700W        W22114  10.172  16.257  15.349  0.1248  0.0357 -0.2217
 8701W        W22115  18.129   2.031  12.274 -0.1929  0.2527 -0.3477
 8702W        W22116   9.167  17.140  10.875 -0.0912  0.1174  0.0033
 8703W        W22117  16.677  10.561  14.656 -0.0219  0.0080 -0.1682
 8704W        W22118   0.043   4.020   2.939 -0.5911  0.1371 -0.0439
 8705W        W22119  12.104  10.906   2.260  0.0991 -0.0810 -0.2883
 8706W        W22120   8.410   1.852  14.361 -0.1459  0.0523 -0.0216
 8707W        W22121   0.579   8.883  11.170 -0.1235 -0.3209  0.0542
 8708W        W22122   3.116   9.334  14.503 -0.0504 -0.2768 -0.1482
 8709W        W22123   4.567   3.679   5.484  0.2785 -0.2269  0.1782
 8710W        W22124  16.082  12.769   4.973 -0.2287 -0.1198  0.0316
 8711W        W22125   6.751  11.237  14.624 -0.1788  0.0018 -0.0009
 8712W        W22126  16.765   2.213  13.894 -0.2033 -0.0524 -0.0215
 8713W        W22127   7.104   3.170   5.717  0.0520  0.0881  0.2704
 8714W        W22128  11.946   0.970   0.650 -0.1369 -0.1749  0.0202
 8715W        W22129   5.713  13.395   3.078  0.0620 -0.2341 -0.2732
 8716W        W22130   0.326  10.972  14.678  0.1260  0.2355 -0.0372
 8717W        W22131   6.709  11.284   1.675  0.2004 -0.4520  0.0883
 8718W        W22132   7.419   0.449   5.720 -0.0201  0.0642  0.0583
 8719W        W22133  16.715  17.721  11.470  0.1734 -0.2181  0.0477
 8720W        W22134  12.475   6.505  13.993 -0.1476  0.1062  0.0149
 8721W        W22135   2.086   7.609   1.624  0.1208  0.0376 -0.0026
 8722W        W22136  11.457  17.969  10.625  0.0247 -0.0721 -0.3606
 8723W        W22137  14.656   0.404  15.761 -0.0275  0.2608  0.2942
 8724W        W22138  13.764   8.504   4.810  0.2946 -0.0342  0.2003
 8725W        W22139  13.642   8.507  12.664 -0.1760 -0.1095  0.3244
 8726W        W22140  17.909   4.570  14.851  0.1569  0.1674 -0.0050
 8727W        W22141  11.872  16.791  15.279 -0.0459 -0.0630  0.0852
 8728W        W22142   9.931  11.214  12.570  0.1691 -0.1311 -0.1824
 8729W        W22143   5.471   6.262  16.415 -0.0442 -0.0284 -0.0194
 8730W        W22144  13.182   1.407  11.313 -0.0756  0.1867 -0.2169
 8731W        W22145  16.137   1.701  15.201 -0.2720 -0.2304  0.0001
 8732W        W22146   6.800   6.337  15.739  0.0837 -0.0717 -0.0397
 8733W        W22147   0.397  13.854  11.227 -0.3708  0.2118 -0.1692
 8734W        W22148   0.292  13.645   4.088  0.1944  0.1619  0.0250
 8735W        W22149   3.728   3.618   2.595 -0.0253 -0.2996  0.2742
 8736W        W22150  10.346   2.211  11.720 -0.4448  0.0654 -0.2772
 8737W        W22151   8.560  12.914  14.882 -0.0752  0.1224  0.0987
 8738W        W22152   9.519  12.533  14.024  0.1055  0.1847  0.1422
 8739W        W22153  15.938  10.623  15.725  0.1037 -0.0113  0.0934
 8740W        W22154   4.912   3.936   1.608  0.3112  0.0061 -0.4631
 8741W        W22155  14.813  16.226  14.021 -0.0948  0.1326 -0.0672
 8742W        W22156   3.517  17.407  11.688 -0.0696  0.0812  0.1366
 8743W        W22157  10.085  10.274  13.125 -0.0505  0.1057  0.1192
 8744W        W22158  12.655   1.113  14.085  0.4277  0.0251  0.1083
 8745W        W22159  13.571  15.424   1.953 -0.2362  0.1545  0.1197
 8746W        W22160  17.906   0.313  13.312 -0.0979 -0.0549 -0.1398
 8747W        W22161  16.834  15.244  14.598  0.1804 -0.0280 -0.0083
 8748W        W22162   0.735  15.019  14.847  0.0429  0.1078  0.1219
 8749W        W22163  16.086  15.907  15.818  0.1040  0.1878  0.0530
 8750W        W22164  14.203   2.820   4.439 -0.1113  0.4512 -0.2347
 8751W        W22165   5.312   2.331  14.936  0.0163  0.2550 -0.0635
 8752W        W22166  17.591   2.904   2.748 -0.1963  0.0966 -0.2271
 8753W        W22167   2.882   5.898  12.854 -0.2046  0.0732 -0.0535
 8754W        W22168   3.188   8.386   2.611 -0.0176  0.0680  0.1902
 8755W        W22169   2.084  11.086  10.159  0.1667  0.1586 -0.1400
 8756W        W22170   2.328  15.730   2.864 -0.0880  0.1444  0.3462
 8757W        W22171  10.955  15.812   2.536  0.2375 -0.0032  0.2703
 8758W        W22172  13.360   3.457   0.717 -0.1226  0.2603  0.1089
 8759W        W22173   7.158   8.063  11.657  0.1862  0.0600 -0.1763
 8760W        W22174  17.882  17.302   5.678  0.2015 -0.2559  0.1185
 8761W        W22175  16.332   3.705  13.924  0.1289  0.0716  0.1386
 8762W        W22176   9.101   8.834  12.269 -0.0370  0.0335 -0.0356
 8763W        W22177  14.105   3.619  12.310  0.1320  0.0974  0.0584
 8764W        W22178   8.839   7.135  15.761  0.0535 -0.1825 -0.0186
 8765W        W22179  10.618  13.568   5.274 -0.1858  0.3291  0.0067
 8766W        W22180   4.892  10.790   5.775  0.0688  0.1476 -0.0426
 8767W        W22181  15.523  14.750  14.372 -0.2877 -0.1812 -0.1100
 8768W        W22182  12.713  12.659  14.427 -0.2099 -0.1181  0.3539
 8769W        W22183  10.780  16.731   6.501  0.2324  0.2906 -0.1742
 8770W        W22184  13.173  15.896   5.114  0.1487  0.1480  0.1688
 8771W        W22185   4.104   1.364   6.189 -0.0930 -0.0016 -0.4262
 8772W        W22186  15.410  14.857  12.222  0.0753 -0.1995 -0.1346
 8773W        W22187   3.874   9.183  15.152 -0.0686  0.1770 -0.1797
 8774W        W22188  14.097  10.887   1.022  0.4247  0.0020 -0.0470
 8775W        W22189   7.471  15.349   3.887 -0.1715  0.0535 -0.1788
 8776W        W22190  12.850  10.753   4.909 -0.0481  0.0451 -0.0610
 8777W        W22191   8.665  13.896   5.723  0.2002 -0.0119 -0.1053
 8778W        W22192   5.490   3.206   9.948  0.3046 -0.0370 -0.0938
 8779W        W22193  13.797  12.062  13.012 -0.1118 -0.1941  0.3654
 8780W        W22194   8.961  18.254  13.317  0.1030 -0.1627 -0.2883
 8781W        W22195   7.468  12.909   2.845 -0.3585 -0.0007  0.0204
 8782W        W22196   8.189   2.738  12.877 -0.1339  0.0645  0.0134
 8783W        W22197  16.996  13.189  11.592 -0.2743  0.1335  0.1555
 8784W        W22198   9.881  11.126   1.281 -0.0379  0.2546 -0.3611
 8785W        W22199   7.460   0.134   1.920 -0.1460 -0.2375 -0.0602
 8786W        W22200  10.002  10.780   5.793 -0.1347 -0.2157 -0.1795
 8787W        W22201   6.780  10.731   4.585 -0.0001 -0.2596 -0.0367
 8788W        W22202   2.247   2.657   4.523  0.1086 -0.0147  0.1715
 8789W        W22203   9.149  17.052  13.222  0.4078  0.1281 -0.0571
 8790W        W22204  17.475  14.621  15.316 -0.0184  0.1950 -0.3460
 8791W        W22205  13.731   6.411  14.416  0.0906  0.1809 -0.1357
 8792W        W22206  15.098   9.398  11.875 -0.1514 -0.1782  0.3533
 8793W        W22207  16.911   3.119  13.968  0.1161 -0.3943 -0.0269
 8794W        W22208  16.630  11.077  16.477 -0.2719 -0.0499 -0.0478
 8795W        W22209  16.557  14.714   0.997  0.0775 -0.0829  0.3631
 8796W        W22210   1.584   0.220   3.831  0.1778 -0.1528 -0.1871
 8797W        W22211  17.414   6.963   9.514 -0.0154  0.6276 -0.1411
 8798W        W22212   4.452  15.904   5.290 -0.1378 -0.0858 -0.1789
 8799W        W22213  13.710   2.694   2.612 -0.1466  0.1423  0.2964
 8800W        W22214   6.264   8.585   3.491 -0.0098 -0.0206 -0.2301
 8801W        W22215  16.340   7.905   1.770  0.0856  0.3714 -0.3774
 8802W        W22216  11.762   8.054   4.907  0.0319  0.1339 -0.0811
 8803W        W22217   4.068   7.136  16.388  0.3741  0.1906 -0.1112
 8804W        W22218   7.119   5.767  15.032  0.2003 -0.0540  0.0720
 8805W        W22219   2.139  10.432   6.284 -0.0480  0.0009  0.0722
 8806W        W22220   6.271   0.687  15.648  0.0672 -0.2163 -0.2251
 8807W        W22221  15.991  17.680   0.765 -0.0748  0.2152  0.1754
 8808W        W22222  17.082   1.350  15.317 -0.2768  0.0842 -0.1861
 8809W        W22223  14.285  11.956   4.035  0.0333  0.0724 -0.0427
 8810W        W22224  11.562  15.473  11.682  0.1281  0.0464  0.1555
 8811W        W22225   6.454   4.334   1.265 -0.0057 -0.3135 -0.0754
 8812W        W22226   4.996   5.443  14.910 -0.2818  0.0012  0.2857
 8813W        W22227  14.262  18.217   4.174  0.0229 -0.1208 -0.0967
 8814W        W22228  16.096   6.691   1.793  0.0811  0.0964 -0.0467
 8815W        W22229  15.264   6.180   4.888 -0.5569  0.0972  0.1072
 8816W        W22230  15.975   2.852   5.471 -0.2649  0.0312  0.0043
 8817W        W22231  13.113   5.094   2.260  0.0281 -0.2619  0.0729
 8818W        W22232  17.825  16.735  15.077 -0.1376 -0.1223 -0.0673
 8819W        W22233  11.921   6.614   1.716 -0.0307 -0.2821  0.3523
 8820W        W22234  14.054   9.627   4.140  0.0696 -0.0914  0.0934
 8821W        W22235   7.656  15.459  16.503 -0.3654 -0.3000  0.0393
 8822W        W22236  10.516   5.459  16.145 -0.0762  0.0967  0.1072
 8823W        W22237   1.920  12.375  10.895  0.2022  0.0517 -0.1265
 8824W        W22238  12.003  10.336  15.136  0.0615  0.2219 -0.0422
 8825W        W22239  16.770  14.398   3.147 -0.2700  0.1109  0.1189
 8826W        W22240  10.085   0.963   3.191 -0.3979  0.2674 -0.0584
 8827W        W22241   1.237  16.689  14.392  0.0085  0.2136 -0.0085
 8828W        W22242  14.023  11.283   1.470  0.1937 -0.2545  0.0457
 8829W        W22243   5.414  12.826   0.610 -0.1469  0.3830  0.1447
 8830W        W22244   5.828  16.807   4.374 -0.2257 -0.0523 -0.2338
 8831W        W22245  16.915   1.295  13.619 -0.1454 -0.2537  0.1347
 8832W        W22246   2.626   8.685   0.228 -0.2925 -0.1019  0.1172
 8833W        W22247   9.552  17.727  15.043 -0.1150 -0.0993  0.1441
 8834W        W22248   5.540  15.887  11.253 -0.1006  0.2242  0.1848
 8835W        W22249   7.894  12.527  12.731 -0.1370 -0.0157  0.0478
 8836W        W22250  14.240  16.295   3.878 -0.1477  0.1319 -0.1222
 8837W        W22251  13.617   4.950   4.715  0.2182 -0.1526 -0.2403
 8838W        W22252   2.811  12.378  11.376 -0.3077  0.0541  0.3711
 8839W        W22253  17.025   8.028  12.404 -0.0467  0.0560 -0.2210
 8840W        W22254  14.288   0.252   4.609 -0.1414 -0.3907  0.0436
 8841W        W22255  15.262  17.761   0.168  0.0121  0.1381  0.0587
 8842W        W22256   0.300   8.215  10.745 -0.1343  0.0870 -0.1494
 8843W        W22257  12.789   2.769   2.531 -0.1792 -0.0562  0.1755
 8844W        W22258   8.146  12.195  16.287  0.0143  0.0070  0.2813
 8845W        W22259   0.399   9.179   2.171  0.0458  0.0813  0.0228
 8846W        W22260   5.687   2.122   5.768 -0.1814 -0.0240  0.0234
 8847W        W22261  14.526   1.516   3.495 -0.1190  0.0637 -0.1275
 8848W        W22262   3.293   2.466  13.823 -0.4112  0.0099  0.1431
 8849W        W22263  15.469  15.394   2.054 -0.1805  0.0219 -0.1308
 8850W        W22264   6.144   7.676  12.011 -0.1228 -0.5543 -0.2539
 8851W        W22265  15.018  12.622  13.908  0.1625 -0.0132  0.1941
 8852W        W22266  12.074  11.851  14.427  0.2045 -0.1407 -0.0221
 8853W        W22267  13.287   1.866  10.495  0.0931 -0.3372  0.2440
 8854W        W22268   3.867  14.640   5.701 -0.1194  0.0723 -0.1470
 8855W        W22269   9.440   7.186   1.133 -0.0431  0.2598 -0.1698
 8856W        W22270  16.773  18.050  15.308 -0.0152  0.0769  0.0158
 8857W        W22271   0.428   5.769   0.650  0.0734  0.0548  0.3709
 8858W        W22272   6.180   9.045  14.197 -0.0534  0.0645  0.1104
 8859W        W22273   9.951   0.190  12.081 -0.2267 -0.2275  0.1062
 8860W        W22274  13.197   8.585   1.317  0.2764  0.1928  0.4042
 8861W        W22275   4.448   5.374  15.921  0.0202 -0.2113 -0.1701
 8862W        W22276   8.762   4.025  11.221  0.0162 -0.1328  0.0167
 8863W        W22277   1.208   0.465  14.842  0.0131 -0.0665  0.1930
 8864W        W22278   1.893  18.280  11.540  0.0878  0.1998  0.1533
 8865W        W22279  10.954  10.095  15.597 -0.2283  0.2247 -0.0843
 8866W        W22280   2.647  16.379   6.115  0.1596 -0.0544 -0.2723
 8867W        W22281   2.405   9.171  15.650  0.1706  0.0849 -0.1802
 8868W        W22282  14.162   1.484   2.531  0.1282  0.1492 -0.0255
 8869W        W22283   8.489   1.432  14.668 -0.1478 -0.3619 -0.3239
 8870W        W22284   6.478   9.145  15.026  0.0316  0.1069  0.0006
 8871W        W22285   4.445  14.948   2.137  0.1106  0.0023 -0.0018
 8872W        W22286   6.704   6.302   0.308  0.1405  0.2551 -0.0318
 8873W        W22287   4.398  13.248   4.147  0.1481 -0.1146  0.2077
 8874W        W22288  14.265  11.655  11.143  0.2565  0.3109 -0.1278
 8875W        W22289   0.921   2.910   1.190 -0.4701  0.0888 -0.2456
 8876W        W22290   5.304  13.659   2.731 -0.1627 -0.2606 -0.1561
 8877W        W22291   8.340  17.827   0.285  0.1383  0.0001  0.3113
 8878W        W22292   9.167   4.051  13.112 -0.0512  0.0896 -0.1892
 8879W        W22293   5.491   0.206   0.266 -0.0689  0.0663 -0.3301
 8880W        W22294  10.188   7.019  12.975  0.0051  0.0275 -0.3183
 8881W        W22295   3.448  13.166  14.731 -0.2537  0.0653 -0.0342
 8882W        W22296   8.364   3.884  10.979 -0.4378  0.1467 -0.0022
 8883W        W22297  16.278   2.236  12.324  0.1287  0.0026  0.0125
 8884W        W22298  16.281   2.475  10.810  0.0877  0.1535  0.2617
 8885W        W22299   5.896  16.266  11.362 -0.1941  0.3447 -0.1479
 8886W        W22300   8.897   5.671  13.490  0.1844  0.2262 -0.2626
 8887W        W22301  12.710  12.554   1.594 -0.1262 -0.0653  0.0871
 8888W        W22302  12.301  17.818  14.317  0.0457 -0.2073  0.0010
 8889W        W22303  13.870   8.467   4.205  0.1716 -0.0875 -0.2707
 8890W        W22304  11.201  16.936   4.969  0.1801 -0.0075 -0.0258
 8891W        W22305  12.417   8.635  12.713  0.1736 -0.0448 -0.4203
 8892W        W22306   5.131   1.048   0.587 -0.0537  0.1553 -0.1331
 8893W        W22307  15.369   5.938  10.926 -0.1824  0.1123 -0.2483
 8894W        W22308   3.970  16.139  15.019  0.1066 -0.1505 -0.0196
 8895W        W22309   4.104   8.890  12.337 -0.0074 -0.0272  0.1054
 8896W        W22310  16.904   5.974   1.491 -0.0557  0.0220  0.2832
 8897W        W22311  13.953   8.520  13.612 -0.2637 -0.1875  0.0912
 8898W        W22312  11.931  10.766  10.543  0.2541  0.0708 -0.0676
 8899W        W22313   6.183   6.714  10.984 -0.0626 -0.0963  0.0121
 8900W        W22314   6.660   2.451   1.224 -0.2653  0.1031  0.1035
 8901W        W22315   3.771   7.229   2.266  0.0093 -0.0362  0.0890
 8902W        W22316  17.357  14.286  11.543  0.3935 -0.1936  0.1802
 8903W        W22317  10.687   8.521  11.013  0.2277 -0.0171 -0.0008
 8904W        W22318   7.789   9.284   5.491  0.2982  0.2392 -0.0089
 8905W        W22319   7.495  12.276  12.560 -0.0488  0.5390  0.3979
 8906W        W22320   9.568   4.888   4.058  0.4706 -0.1435  0.0013
 8907W        W22321   7.940   7.930  10.621 -0.1596  0.0098  0.1386
 8908W        W22322   5.648  12.168  12.544  0.0186 -0.0784  0.1902
 8909W        W22323  13.837  14.832   6.239 -0.0346 -0.0368  0.2142
 8910W        W22324   5.204  16.083  16.174 -0.1984 -0.2144  0.2356
 8911W        W22325   4.930   8.729   1.048 -0.2729 -0.0158 -0.1240
 8912W        W22326  14.976  10.325  15.514  0.0735 -0.1180 -0.0261
 8913W        W22327  13.814   9.218  12.292  0.1527 -0.3011  0.1849
 8914W        W22328   4.514  10.513   2.972  0.0124  0.2707 -0.0153
 8915W        W22329   2.453   5.108   1.682 -0.1759  0.0149  0.1805
 8916W        W22330   3.559  16.992   3.330  0.1836 -0.0121 -0.2565
 8917W        W22331   0.713   3.857   0.979 -0.0754  0.0576  0.1966
 8918W        W22332  14.595   9.120   2.210 -0.0985 -0.0925  0.1062
 8919W        W22333   4.455  15.618   3.203 -0.1071 -0.1558  0.0981
 8920W        W22334  14.603  17.893  12.727  0.2109  0.0854 -0.1723
 8921W        W22335   0.546   0.394  13.560  0.1864 -0.2921  0.3826
 8922W        W22336  14.073   9.895   3.264 -0.0936  0.0456  0.1267
 8923W        W22337  18.141  14.150  12.012 -0.1082  0.1109  0.0764
 8924W        W22338   2.576  11.925  15.154 -0.2945 -0.3669 -0.2499
 8925W        W22339  13.934   7.798  12.735  0.0583 -0.3363  0.2626
 8926W        W22340  16.985  15.828   2.168  0.1650 -0.1018  0.2646
 8927W        W22341  13.440   9.790   0.149 -0.2196 -0.0992 -0.1639
 8928W        W22342  12.287  15.918  13.219  0.1321 -0.2170 -0.2433
 8929W        W22343   7.932   3.269  16.019 -0.1554  0.0766  0.0190
 8930W        W22344  14.243   1.747  15.977  0.1144 -0.0716  0.3276
 8931W        W22345   2.312   4.998  11.543 -0.3046 -0.1003  0.2323
 8932W        W22346  16.694  12.016  13.773 -0.0102  0.0524 -0.0990
 8933W        W22347   1.699   4.217   5.453 -0.1979 -0.0634  0.0403
 8934W        W22348   2.732   2.431  11.879  0.1284 -0.4919  0.2291
 8935W        W22349  14.769   6.217   5.835  0.2060 -0.0710  0.1470
 8936W        W22350   3.666   5.920   4.807  0.1109  0.2614  0.2713
 8937W        W22351   9.838  13.726   4.445  0.0217  0.1889  0.0852
 8938W        W22352   8.099   1.063   6.208 -0.2158  0.1872 -0.1808
 8939W        W22353   2.856  13.689   1.339  0.0252 -0.1974  0.3158
 8940W        W22354   3.218   0.995  12.882  0.0038  0.0999 -0.2028
 8941W        W22355  13.432  13.034   1.555  0.1086 -0.0796 -0.0192
 8942W        W22356   0.629  18.193  13.391  0.0510  0.1584  0.1643
 8943W        W22357   1.538   6.427   9.683 -0.2515 -0.0304 -0.2178
 8944W        W22358   1.762   0.821  11.733  0.0348  0.2465 -0.1237
 8945W        W22359   1.965   3.537   1.781  0.3434  0.1913 -0.2077
 8946W        W22360   7.198  15.259  15.052  0.1103 -0.0783 -0.0606
 8947W        W22361  10.887  13.505   0.877  0.1619 -0.2178  0.0334
 8948W        W22362   5.524   0.084  13.039 -0.2284  0.0802 -0.3099
 8949W        W22363   2.172  11.881   2.977  0.1584 -0.2546  0.0809
 8950W        W22364   2.105  17.691  15.648 -0.3186 -0.2317 -0.1587
 8951W        W22365  10.429  14.618  12.303  0.3182  0.1946  0.0169
 8952W        W22366  13.997   2.358   2.487  0.4159  0.1224 -0.3069
 8953W        W22367  11.840   9.185  13.257 -0.2324 -0.2334 -0.1688
 8954W        W22368   6.547  12.377   4.228  0.2556 -0.0681  0.2909
 8955W        W22369   6.858   4.044  12.958 -0.3596 -0.1882  0.0224
 8956W        W22370  12.928   2.183  15.009 -0.0700 -0.0316  0.1940
 8957W        W22371   5.291  18.099   4.058 -0.0155  0.1663 -0.0348
 8958W        W22372  14.244  11.768  14.906 -0.2748 -0.1961  0.1477
 8959W        W22373   4.389   5.341  13.995 -0.3843  0.1889 -0.2403
 8960W        W22374   4.326   8.708   0.881  0.0282 -0.0038  0.1845
 8961W        W22375  17.077  13.211   1.500 -0.0596  0.1708 -0.0642
 8962W        W22376  16.884   8.449  12.649  0.0866 -0.3060  0.1391
 8963W        W22377   3.419  14.473   5.518 -0.0539 -0.1120  0.1065
 8964W        W22378  14.424  17.530  10.873  0.0419  0.0006  0.1581
 8965W        W22379  16.523   2.831   5.324 -0.1171 -0.0142 -0.0935
 8966W        W22380   1.635  13.599  13.100  0.3616 -0.0543  0.1553
 8967W        W22381   0.361  11.657  15.588  0.1706  0.0293 -0.0286
 8968W        W22382  13.739  14.118   3.902  0.1120  0.1518  0.2303
 8969W        W22383   3.107   5.653   9.997 -0.0308 -0.0063  0.2158
 8970W        W22384   4.032   1.223  13.014 -0.6347 -0.2871 -0.0775
 8971W        W22385   5.922   7.995   4.614  0.1312 -0.2093  0.1310
 8972W        W22386  10.552   6.000   0.197  0.0552 -0.0334 -0.0048
 8973W        W22387   4.901  12.451   4.827 -0.1027  0.0296  0.0221
 8974W        W22388  11.407   7.684   1.506  0.3237 -0.0398 -0.1821
 8975W        W22389  11.263  18.037   3.921 -0.2860 -0.0920  0.0262
 8976W        W22390  10.302  17.402  12.900 -0.1734  0.0509 -0.2620
 8977W        W22391   6.201  16.118  14.787 -0.0191  0.1084  0.1752
 8978W        W22392  16.236   9.267  10.692 -0.0287  0.0909  0.3443
 8979W        W22393  10.677  13.084  10.682  0.3113  0.0490 -0.1352
 8980W        W22394   8.190   6.891   0.807  0.1262 -0.1233  0.1378
 8981W        W22395  10.873   5.027   2.708  0.2212 -0.2521  0.2492
 8982W        W22396   8.271   5.800   1.870 -0.3591 -0.2390  0.4781
 8983W        W22397   5.652  10.100   1.254  0.2275  0.3338  0.2942
 8984W        W22398   8.350   1.864   4.361 -0.1565  0.1641  0.2004
 8985W        W22399   6.798  15.143   2.870 -0.0785  0.2821 -0.0132
 8986W        W22400   1.784   8.149  14.217 -0.0174 -0.0540 -0.1327
 8987W        W22401   8.154  15.301  11.311  0.0589  0.0042 -0.0809
 8988W        W22402   1.753  15.256   3.081 -0.0147 -0.1914 -0.1375
 8989W        W22403  11.258  13.202   2.139  0.0391 -0.3227  0.1336
 8990W        W22404  12.092   9.524  15.729 -0.4641 -0.1001  0.0262
 8991W        W22405  15.578   6.087   1.319  0.3924 -0.0133 -0.0847
 8992W        W22406  11.826   8.087   2.229 -0.0155  0.0939  0.0699
 8993W        W22407  17.371  14.463   3.037 -0.1785  0.3226  0.0233
 8994W        W22408   4.841   1.835   3.326 -0.1340 -0.1628  0.1051
 8995W        W22409   8.315   7.073   3.474  0.0894 -0.1613 -0.1372
 8996W        W22410   0.283   0.484   5.439  0.0018 -0.0557 -0.0532
 8997W        W22411  15.869   6.447   0.339  0.1915 -0.2310  0.0885
 8998W        W22412  14.544  16.560   3.505 -0.1798 -0.3228  0.0724
 8999W        W22413  10.078   3.178   6.436 -0.4225  0.0629 -0.3670
 9000W        W22414   1.020  13.870  15.375  0.0094  0.0147 -0.1943
 9001W        W22415   6.479  18.201  14.289 -0.0703 -0.2704 -0.1649
 9002W        W22416   8.523   1.278   5.948  0.0516 -0.0267 -0.1296
 9003W        W22417  16.314  14.978   1.380 -0.2085  0.0157  0.3532
 9004W        W22418   5.005  15.400  12.577  0.0064  0.4140  0.1076
 9005W        W22419   5.093  13.410   1.448  0.4210 -0.1640 -0.3094
 9006W        W22420   6.540  14.804   5.407  0.0442 -0.1611  0.1059
 9007W        W22421  11.953  12.483  12.207  0.1103 -0.1344  0.1175
 9008W        W22422   6.625   9.977  13.366  0.0267 -0.0706  0.1351
 9009W        W22423  16.619   2.704  13.807  0.1582  0.0942  0.2169
 9010W        W22424  11.936  17.963  11.553  0.0665  0.0637  0.2190
 9011W        W22425  12.239   2.398   4.781  0.1850  0.1230 -0.0576
 9012W        W22426  17.654   0.481  15.288  0.3854  0.1069  0.0685
 9013W        W22427  13.455   5.649  11.314 -0.0887  0.0765  0.2545
 9014W        W22428  16.693   1.422  10.438 -0.3128 -0.0578 -0.0446
 9015W        W22429  15.729   9.212  10.904  0.1390 -0.1447 -0.0909
 9016W        W22430  17.354  10.672   3.973  0.0663  0.1153  0.2933
 9017W        W22431  12.023   2.206  12.734 -0.4397  0.2184  0.0169
 9018W        W22432  11.968   5.123   1.041 -0.1877 -0.0079  0.1392
 9019W        W22433   8.908   7.647  13.790  0.2173  0.1585 -0.3897
 9020W        W22434   7.503   0.256  16.093 -0.0597  0.1809  0.3000
 9021W        W22435   6.619   7.780   1.637 -0.2235 -0.0233 -0.1479
 9022W        W22436   9.838  14.682   2.037 -0.1700 -0.0056 -0.0872
 9023W        W22437   8.470   8.305   5.742 -0.2309 -0.1371  0.1112
 9024W        W22438  15.551  10.466  11.176 -0.1421 -0.1447 -0.0324
 9025W        W22439   6.009  18.024   3.576 -0.3368 -0.1005 -0.0293
 9026W        W22440  13.820  18.164  12.649 -0.2896  0.0877 -0.1642
 9027W        W22441  18.233   5.845   4.525 -0.1882 -0.0300 -0.2395
 9028W        W22442   8.344  11.070  12.833 -0.0844 -0.0560  0.0240
 9029W        W22443   2.922   5.322  15.944  0.0141  0.1117  0.1625
 9030W        W22444   2.602   4.917   2.649  0.0312 -0.3120  0.0810
 9031W        W22445  13.222   2.282   4.638  0.2639  0.0076 -0.0458
 9032W        W22446  12.750  13.125   3.756  0.0652 -0.3238 -0.0946
 9033W        W22447   1.617  13.612   5.736 -0.1089 -0.2261  0.1182
 9034W        W22448  15.724   2.831   3.129 -0.0317 -0.0292 -0.2467
 9035W        W22449  15.206  10.815   2.423  0.0191 -0.1206 -0.1372
 9036W        W22450   7.564  15.182  14.697 -0.1244 -0.0760 -0.3543
 9037W        W22451   8.150   2.071   5.839  0.1765 -0.0302  0.0041
 9038W        W22452  11.542  10.368   1.661  0.1331 -0.0053  0.2529
 9039W        W22453   4.492  15.250   0.920 -0.0441  0.3152 -0.0913
 9040W        W22454   5.560  17.971  12.183 -0.1233 -0.1460 -0.1421
 9041W        W22455   3.759   2.478   5.546  0.4935 -0.1131  0.0267
 9042W        W22456   3.691   5.254  16.298  0.1594 -0.1929  0.1110
 9043W        W22457   4.543   5.559   3.210 -0.3330 -0.1455 -0.2241
 9044W        W22458   0.625  14.294  11.349 -0.1892 -0.5000  0.2827
 9045W        W22459  14.136   5.615  14.277  0.2644 -0.3728 -0.4124
 9046W        W22460  11.256   1.167  13.207  0.0194  0.0247 -0.0444
 9047W        W22461  10.985  12.666  10.597  0.1950 -0.2377 -0.3480
 9048W        W22462   0.722  15.667  13.139 -0.2612 -0.1347  0.1303
 9049W        W22463   1.529  14.262   2.853  0.0322 -0.0550  0.1237
 9050W        W22464   1.235   4.415  10.200  0.2723  0.0111 -0.1840
 9051W        W22465   2.664   3.233   1.370 -0.1864  0.0827 -0.2743
 9052W        W22466  13.691   1.003   4.572 -0.0624 -0.0384  0.0736
 9053W        W22467  14.615  11.345  13.658  0.0550  0.1682 -0.0822
 9054W        W22468  14.201  15.909  13.321 -0.2010  0.0320 -0.3151
 9055W        W22469   7.360   1.734   1.210  0.0203 -0.2200  0.0826
 9056W        W22470   1.944   6.235   2.028  0.0860 -0.3343 -0.0684
 9057W        W22471  12.631   6.591   3.814  0.0847 -0.0648 -0.0428
 9058W        W22472  15.815   9.284  16.261  0.0938 -0.1439  0.1565
 9059W        W22473   0.749  11.016  11.157  0.0020  0.0845  0.4022
 9060W        W22474  17.598  14.477   3.556  0.0106 -0.1619  0.1936
 9061W        W22475  15.883   9.399  12.352  0.0294 -0.2809  0.0319
 9062W        W22476   5.074   4.819  13.433  0.1523 -0.0046  0.5791
 9063W        W22477   6.789   7.212  10.244  0.1233 -0.1149 -0.1373
 9064W        W22478   2.386   3.218  12.475  0.2788  0.1667 -0.0246
 9065W        W22479   7.179   7.075  10.976 -0.1231 -0.1543  0.1018
 9066W        W22480   9.494   1.670   4.744 -0.0588 -0.2472 -0.1392
 9067W        W22481   5.150  11.732  14.765  0.1022 -0.1148 -0.2738
 9068W        W22482   4.417  14.642  13.132 -0.0238 -0.0323  0.0506
 9069W        W22483   4.445  13.055  12.910 -0.1164 -0.4795 -0.1451
 9070W        W22484   3.866  10.303  11.936  0.1642  0.0622  0.0622
 9071W        W22485   2.335   9.906  12.765 -0.0475 -0.0961 -0.0359
 9072W        W22486  12.209   9.800  12.151  0.3017  0.0280 -0.2080
 9073W        W22487   2.849   7.252  14.823  0.1868  0.1334 -0.0675
 9074W        W22488  17.068  17.986  13.458  0.3272  0.0960 -0.0906
 9075W        W22489  14.373  12.701  15.891  0.0895 -0.0878 -0.0317
 9076W        W22490   4.207   2.384   3.982  0.0857  0.2334 -0.3534
 9077W        W22491  12.720   8.227  12.830 -0.1230  0.3609  0.1197
 9078W        W22492   9.783   2.755   0.771  0.1963  0.0403  0.1309
 9079W        W22493  12.191   4.261  14.208  0.0510 -0.1768  0.1060
 9080W        W22494   5.642   2.239   3.933  0.0751 -0.0344 -0.0508
 9081W        W22495  14.315  15.027   3.033 -0.0707  0.1804  0.0333
 9082W        W22496   0.835   2.147   1.944 -0.1384 -0.3271 -0.0872
 9083W        W22497  17.556   2.635  15.166 -0.1898  0.0595 -0.0634
 9084W        W22498  18.266  10.864  12.756  0.0400 -0.0738  0.1005
 9085W        W22499   1.879   9.103   1.808  0.0159 -0.3035 -0.2237
 9086W        W22500   1.409   7.184  10.199  0.0007  0.0022  0.1287
 9087W        W22501  12.531  16.913  14.688  0.1016 -0.0818 -0.2166
 9088W        W22502   6.887   7.674  10.427 -0.2062  0.1105  0.1686
 9089W        W22503  13.586   8.309   1.166 -0.0835 -0.0152 -0.3014
 9090W        W22504   6.424   0.313   3.748 -0.2717  0.2150 -0.1555
 9091W        W22505   6.418  14.121   2.840 -0.0906 -0.0948 -0.1282
 9092W        W22506  16.405  12.359  13.244 -0.0748 -0.0242 -0.0742
 9093W        W22507  17.509  17.034  14.124  0.0031 -0.1249  0.3097
 9094W        W22508   1.575   9.317  12.545 -0.4341  0.0507 -0.3410
 9095W        W22509   8.168  16.235  14.678 -0.0133  0.0244 -0.1619
 9096W        W22510   3.767   6.281  13.067 -0.1904 -0.0151  0.1300
 9097W        W22511   9.335   0.468   4.537 -0.1138  0.0427  0.0570
 9098W        W22512   6.533   0.630   2.396 -0.0212 -0.1653  0.2129
 9099W        W22513  10.531   2.888   2.031 -0.0509  0.1140 -0.0398
 9100W        W22514  13.265   2.156  12.212  0.1903  0.1348  0.1091
 9101W        W22515   8.490   2.118  15.289  0.1998  0.3828  0.3338
 9102W        W22516   0.796  17.092  12.171 -0.2559  0.0828 -0.2795
 9103W        W22517   4.078   5.072  13.196 -0.0167  0.0068 -0.1798
 9104W        W22518  13.308   8.964   1.625  0.1613 -0.2437 -0.2592
 9105W        W22519  17.504   6.271   2.713 -0.1136  0.1856  0.1143
 9106W        W22520  11.422  14.133   1.127  0.3556  0.1060 -0.2898
 9107W        W22521   0.924  17.109   0.928 -0.0297 -0.0129  0.1235
 9108W        W22522   7.028   6.661   3.882 -0.0171  0.0162 -0.5641
 9109W        W22523  10.203   5.467   3.533 -0.3591  0.1094 -0.2370
 9110W        W22524  16.421  11.246  11.432  0.0773 -0.0693 -0.2399
 9111W        W22525  17.299  13.024  13.168 -0.0191 -0.2317 -0.1238
 9112W        W22526   9.376  13.934   0.635 -0.0169 -0.1100 -0.1489
 9113W        W22527  10.125  10.804  16.531 -0.1591  0.3235 -0.0477
 9114W        W22528  17.666   5.825   5.272  0.1123  0.0480 -0.3270
 9115W        W22529   4.854  12.963  15.839  0.2965  0.2296 -0.0604
 9116W        W22530   6.390   7.176  13.059  0.0685  0.1668  0.1381
 9117W        W22531  16.774   8.383  15.632  0.3213 -0.0648  0.2480
 9118W        W22532   9.297  16.963   0.103 -0.2581  0.1530  0.0423
 9119W        W22533   2.985  17.692   4.276 -0.0163  0.0356 -0.2376
 9120W        W22534   0.224   7.659  13.455  0.0257  0.2082  0.1199
 9121W        W22535  13.656   2.667   1.851 -0.1692  0.1020 -0.1238
 9122W        W22536   9.882  11.653  13.686  0.0204  0.0014  0.1731
 9123W        W22537  17.746  12.761   6.373 -0.4751 -0.0502 -0.0984
 9124W        W22538   8.374   9.207   4.352 -0.0503  0.1030  0.3310
 9125W        W22539   6.954   0.592   5.084 -0.0350 -0.1904 -0.2387
 9126W        W22540   9.751  15.474  15.199 -0.0299 -0.0911  0.4079
 9127W        W22541  10.101   3.251   2.774 -0.1279 -0.1034  0.0011
 9128W        W22542   6.338   2.800  12.158 -0.0511  0.0395  0.1482
 9129W        W22543   6.054   8.057  16.245  0.1680  0.3106 -0.2944
 9130W        W22544   4.991  11.128   3.896 -0.2146 -0.0168  0.1147
 9131W        W22545  12.649  17.775   1.909  0.0846  0.0757 -0.2134
 9132W        W22546   6.100  16.545  14.482  0.1212 -0.0014 -0.2571
 9133W        W22547   0.901  17.944   5.654  0.1753  0.2601 -0.1360
 9134W        W22548   2.359  16.196   5.644 -0.2270 -0.0576  0.1093
 9135W        W22549   3.551  13.967   2.844  0.2123 -0.2221  0.1057
 9136W        W22550  16.952  17.136  10.930  0.1092  0.1903 -0.1197
 9137W        W22551  17.854   1.489   2.814 -0.0011 -0.1556 -0.0804
 9138W        W22552   3.072   0.000   0.507  0.2685  0.0789  0.0970
 9139W        W22553  15.228   2.899   3.123 -0.2137 -0.2079  0.4219
 9140W        W22554  16.595  14.375  13.213  0.0020  0.0885 -0.2902
 9141W        W22555   4.546  15.259  12.769  0.1989 -0.0711  0.0391
 9142W        W22556  12.331   1.052   5.845  0.0361 -0.1530  0.0079
 9143W        W22557  12.089  16.399   6.562  0.1659  0.2039 -0.1880
 9144W        W22558  16.863  16.954  14.445  0.1197  0.0444  0.0813
 9145W        W22559  10.606   7.297   4.103  0.0052 -0.1549  0.1200
 9146W        W22560  18.233   1.945  13.426  0.0423  0.0155 -0.0925
 9147W        W22561   4.537   2.799  16.420 -0.0235 -0.2242 -0.0703
 9148W        W22562  10.212   2.189  13.023 -0.1533  0.0168  0.0310
 9149W        W22563   7.372  17.706   0.258  0.4629  0.0646 -0.2192
 9150W        W22564  11.524   9.373  15.129 -0.2470 -0.2655  0.1596
 9151W        W22565   1.676  17.862   5.245  0.1088 -0.0648  0.0663
 9152W        W22566   0.460  14.561  15.486 -0.1917  0.0009 -0.1833
 9153W        W22567  17.936   2.314   3.821 -0.1087  0.0259  0.0154
 9154W        W22568  17.024  11.873   0.191  0.3426  0.2915  0.5616
 9155W        W22569  14.557   6.514  11.329  0.0204 -0.1164  0.3560
 9156W        W22570   9.728   8.916  15.664 -0.0203  0.1417  0.1186
 9157W        W22571   6.498   9.759  15.361  0.0090 -0.1142 -0.1633
 9158W        W22572   2.561   9.604   3.994 -0.0975  0.0628  0.2971
 9159W        W22573  10.547  12.141   4.740 -0.1800 -0.2469  0.1324
 9160W        W22574   1.687   0.326  11.873 -0.0698  0.0264 -0.0688
 9161W        W22575   2.394   7.570   1.979 -0.0356  0.0026 -0.1057
 9162W        W22576  11.009  18.139  16.003 -0.0066  0.0692  0.0556
 9163W        W22577   4.021   3.724   2.229  0.3057 -0.0231 -0.1533
 9164W        W22578  13.182   3.714  16.378  0.0031  0.1677  0.0859
 9165W        W22579   7.320   3.283   0.400  0.1191 -0.3908  0.1152
 9166W        W22580  10.361  12.125   0.785 -0.1939 -0.0936  0.4170
 9167W        W22581   6.285   4.920   2.479  0.0302  0.3382 -0.0366
 9168W        W22582   9.638  10.194   1.139 -0.1412  0.0514  0.2832
 9169W        W22583   1.878  12.405  15.035 -0.0289 -0.0342 -0.0318
 9170W        W22584   5.729  15.588   1.989  0.3662  0.1685 -0.1425
 9171W        W22585  12.599   6.056   1.112 -0.0676  0.1220 -0.1536
 9172W        W22586   9.101  13.196   6.058  0.0149  0.1328 -0.0531
 9173W        W22587   9.494   6.251   4.654  0.0257  0.1130 -0.0117
 9174W        W22588   8.941  11.263  15.950  0.0941  0.1704  0.2282
 9175W        W22589   7.947  11.637   3.806 -0.0493  0.2248 -0.0613
 9176W        W22590  13.199  14.012   0.690  0.1050 -0.2311 -0.0793
 9177W        W22591   4.406  13.609  13.842 -0.0293  0.3055 -0.1704
 9178W        W22592  17.553   4.951  14.162  0.0616 -0.0957  0.3344
 9179W        W22593   6.449  15.296   2.327  0.0372 -0.3895  0.0853
 9180W        W22594   3.902  10.469  10.688 -0.1988  0.2917 -0.0614
 9181W        W22595  14.102   4.108   0.202  0.0048  0.2141  0.1164
 9182W        W22596   8.671   1.111  13.147 -0.0208 -0.2282 -0.1335
 9183W        W22597   8.296  15.873   2.665 -0.3344 -0.0245 -0.2181
 9184W        W22598  17.311   9.411  10.266  0.1491  0.2440 -0.0073
 9185W        W22599   9.249   5.899   4.961  0.3704  0.1140 -0.2755
 9186W        W22600  12.535   2.281  11.046 -0.0043  0.0428 -0.2878
 9187W        W22601   5.735   7.329  15.755 -0.2183 -0.0363 -0.4419
 9188W        W22602  13.238   4.034   5.960 -0.1222 -0.3473  0.1845
 9189W        W22603   5.766   7.154   4.324 -0.0185  0.3817  0.1369
 9190W        W22604  13.537  11.418  14.657  0.1454  0.4324 -0.1571
 9191W        W22605  10.202   4.464   3.428 -0.0231 -0.1160 -0.1178
 9192W        W22606   9.581   1.696   1.628  0.1281 -0.1097 -0.3682
 9193W        W22607  17.083  11.335   1.082  0.0758 -0.2356  0.0448
 9194W        W22608  11.562  11.857   5.375  0.1182 -0.0943  0.2426
 9195W        W22609  13.314   0.053   6.280  0.1729 -0.2066 -0.2257
 9196W        W22610   5.429   1.517  11.019  0.0167 -0.0779  0.1043
 9197W        W22611  14.849  11.782   1.155 -0.2432  0.1307  0.2253
 9198W        W22612  17.632   6.479  13.806 -0.2164 -0.1845 -0.1068
 9199W        W22613  12.769  14.287   5.938 -0.1123 -0.0504 -0.1586
 9200W        W22614   1.320  10.880   1.632 -0.2044  0.2285 -0.0042
 9201W        W22615   5.592  14.390  10.985  0.3073 -0.2653  0.1514
 9202W        W22616   9.035   3.138   3.815 -0.2234 -0.0533 -0.1048
 9203W        W22617  16.230  16.133   3.298 -0.2523  0.2422  0.1019
 9204W        W22618   0.952  10.149   2.127  0.1151  0.2756 -0.2010
 9205W        W22619   5.783   7.632  13.615 -0.1415 -0.2982  0.1078
 9206W        W22620  12.753   8.236   4.862  0.1658 -0.1069  0.1331
 9207W        W22621   8.725  11.388   0.832  0.0859 -0.3041  0.4056
 9208W        W22622  14.101   1.013   0.049 -0.4493  0.0775 -0.0288
 9209W        W22623   8.492  10.657   3.792 -0.0535 -0.1587  0.0016
 9210W        W22624   2.455  16.121  15.943 -0.1128 -0.3181 -0.4397
 9211W        W22625  14.520   1.758  12.404  0.0542 -0.0592  0.0947
 9212W        W22626   1.402   5.066   1.831 -0.0940  0.1287 -0.0808
 9213W        W22627   8.361   1.136   2.139  0.3306  0.1780 -0.1025
 9214W        W22628  15.422   0.019  12.665 -0.1048 -0.3016 -0.0483
 9215W        W22629  18.118   6.418   4.363  0.1774  0.1755  0.1050
 9216W        W22630   9.068  18.201   3.714 -0.1296  0.1160  0.0694
 9217W        W22631  11.710   6.170  13.278 -0.1634 -0.0119  0.0784
 9218W        W22632   9.431   4.983   0.948 -0.0037 -0.2823 -0.3736
 9219W        W22633   3.853   5.289   5.193 -0.0620 -0.3595 -0.0379
 9220W        W22634   7.911  14.953   0.701  0.1469  0.0627  0.1886
 9221W        W22635  17.095  17.588   1.057  0.2187  0.0589  0.1592
 9222W        W22636  10.744  16.061  13.725 -0.2156 -0.0855  0.1049
 9223W        W22637   2.952   8.666   9.760 -0.1285  0.0712  0.0695
 9224W        W22638  11.457   4.207   4.944  0.1238  0.1066 -0.2769
 9225W        W22639   7.546  14.958   4.280  0.3030 -0.0927  0.2321
 9226W        W22640  18.163   2.156  16.174 -0.1105  0.0897 -0.0210
 9227W        W22641  12.130  10.905   4.447  0.2906  0.0801 -0.2266
 9228W        W22642   5.151   5.786   2.909 -0.1492  0.1071  0.1895
 9229W        W22643   6.336   0.426   1.914 -0.0536  0.1117 -0.0126
 9230W        W22644   4.515   7.598  10.978 -0.3818  0.0273  0.0671
 9231W        W22645   5.143  17.904   5.872  0.0288  0.1543  0.0569
 9232W        W22646   7.017  18.132   1.105  0.0173  0.2263 -0.0207
 9233W        W22647   3.470   9.403  13.437 -0.0611  0.3062 -0.0794
 9234W        W22648  11.920  12.348  11.619  0.0521  0.0210  0.2680
 9235W        W22649  15.587  12.347   5.569 -0.0087 -0.0994  0.4498
 9236W        W22650  15.253   0.056   4.683 -0.1885  0.0986  0.1180
 9237W        W22651  13.118  11.763  15.186  0.0933 -0.1965  0.1629
 9238W        W22652  10.325   3.616  15.260  0.0699  0.1389  0.1980
 9239W        W22653   6.585   5.157   5.577  0.2482 -0.0671  0.2490
 9240W        W22654  17.244  11.073  12.742 -0.3252 -0.1229 -0.2481
 9241W        W22655  14.695   9.032   5.084 -0.1441  0.0815  0.2171
 9242W        W22656   2.123   5.232   0.711 -0.0232 -0.2424  0.1575
 9243W        W22657  15.263  17.300  15.945 -0.0189 -0.1089 -0.0091
 9244W        W22658  11.698  17.574   5.902  0.2205  0.0546  0.2463
 9245W        W22659   3.874  15.880  13.711  0.3087  0.0839 -0.1399
 9246W        W22660   2.904  16.254   5.691  0.2309 -0.1801 -0.3150
 9247W        W22661  14.863  18.181   3.962  0.4934  0.1625  0.0073
 9248W        W22662   9.627  17.529   6.585  0.0714  0.4753 -0.0082
 9249W        W22663   0.611   4.636  12.882  0.1101 -0.3157  0.3273
 9250W        W22664   7.114  15.738  15.139 -0.0108 -0.1113  0.1747
 9251W        W22665  13.312   4.046  12.561 -0.0632 -0.1659 -0.1228
 9252W        W22666  11.065  16.986  11.901  0.2452  0.3195 -0.0017
 9253W        W22667  17.181  13.248  10.783 -0.0839 -0.1528  0.4415
 9254W        W22668   0.363  11.652   1.647  0.1133  0.0622 -0.2810
 9255W        W22669   2.594   8.221  14.006  0.1091  0.0140 -0.0329
 9256W        W22670   4.912   5.224  15.693  0.0147  0.1479 -0.1892
 9257W        W22671   5.280  12.857   2.944 -0.0577  0.1760 -0.1954
 9258W        W22672   7.212  16.005   5.661 -0.1152  0.0060 -0.0326
 9259W        W22673  12.342   8.947   3.040 -0.0518  0.3289 -0.0503
 9260W        W22674   9.752  13.321   3.926 -0.2395 -0.4752 -0.0437
 9261W        W22675   6.718   7.655   6.092  0.2418  0.1426  0.3894
 9262W        W22676   6.758   8.596   3.739  0.5217  0.1091 -0.0796
 9263W        W22677  14.085   4.054  14.277 -0.1779  0.1716 -0.1553
 9264W        W22678   1.678  17.876  12.783  0.0701 -0.3170 -0.0310
 9265W        W22679   3.352  10.186  11.833 -0.2376 -0.0325  0.3166
 9266W        W22680   8.531  11.999   2.103 -0.1701  0.0769  0.0742
 9267W        W22681  16.310   8.150  14.127 -0.2177  0.1627  0.0893
 9268W        W22682   6.823   5.382   4.443 -0.0045  0.2231 -0.0883
 9269W        W22683  13.601   5.979   2.521  0.0224 -0.0364  0.0617
 9270W        W22684  14.202   1.447   5.604  0.2556 -0.0328  0.0486
 9271W        W22685  13.765   4.680   2.279 -0.0864 -0.2052  0.1443
 9272W        W22686   0.578   1.500   5.447  0.0897  0.0833 -0.0336
 9273W        W22687   1.205  11.236  10.396  0.1900  0.0945 -0.1317
 9274W        W22688   5.195  14.520  12.569 -0.0769  0.0707 -0.1578
 9275W        W22689   1.035  10.780   1.106 -0.4097 -0.1152 -0.0594
 9276W        W22690  17.389   2.495  14.303 -0.1569  0.0783 -0.1227
 9277W        W22691  13.196  15.734   1.987  0.0131  0.1427  0.1342
 9278W        W22692  14.343   0.055  12.580  0.1648 -0.0399 -0.0511
 9279W        W22693  17.081   9.739  16.467 -0.2161  0.0730 -0.2197
 9280W        W22694  17.738  15.076  12.959  0.1454 -0.1099 -0.2680
 9281W        W22695   0.229   0.086   2.886  0.0999 -0.1441  0.0167
 9282W        W22696  10.298   1.382  16.257  0.1063 -0.0029  0.0418
 9283W        W22697   9.270  10.583   0.687  0.1000  0.2066  0.1322
 9284W        W22698  11.331  11.441   0.178  0.2732 -0.2612 -0.0828
 9285W        W22699   9.526   1.281   0.860 -0.0375 -0.0011  0.0489
 9286W        W22700  16.742   7.193  14.293 -0.1694  0.1175  0.3501
 9287W        W22701  16.344   9.370  15.298 -0.0619  0.2582 -0.0771
 9288W        W22702  12.729  16.728  14.223  0.1038 -0.1625 -0.0917
 9289W        W22703   9.113   6.748  13.370 -0.0484  0.1790 -0.1696
 9290W        W22704   5.597   7.562   0.238  0.0818 -0.0885 -0.0119
 9291W        W22705   4.137   3.441   3.323  0.0298  0.1987 -0.1170
 9292W        W22706   6.196   6.053   5.088 -0.4728  0.0711 -0.2884
 9293W        W22707  15.973  10.967   3.723 -0.1042 -0.2687  0.2372
 9294W        W22708  14.103  13.754  15.231 -0.1334 -0.1989 -0.0977
 9295W        W22709   0.421   0.703  15.963 -0.2099  0.0257 -0.1088
 9296W        W22710   7.951   9.106  14.746 -0.0438  0.1633  0.0969
 9297W        W22711   6.488  11.364  10.507  0.1746 -0.3993  0.1574
 9298W        W22712  11.188   0.269   2.961 -0.0653 -0.1667 -0.2056
 9299W        W22713   7.293   4.485   4.488  0.3263  0.0710 -0.0537
 9300W        W22714   0.863   3.924  11.378  0.0703  0.2211  0.0078
 9301W        W22715   2.811   4.596   1.471  0.0726  0.2034 -0.1697
 9302W        W22716   8.133   5.672  11.957 -0.1946  0.2252  0.3028
 9303W        W22717   9.572   7.756   1.355  0.0436 -0.0407  0.0539
 9304W        W22718   1.417  12.241  11.326  0.0254  0.0875  0.1786
 9305W        W22719   8.810  10.711  12.870 -0.2026 -0.0897 -0.1646
 9306W        W22720   9.135   7.160  11.165 -0.1028  0.0124  0.2594
 9307W        W22721  15.100   6.277  13.045  0.0098  0.1902 -0.0248
 9308W        W22722  12.618  16.262  13.034  0.1286 -0.0485  0.2159
 9309W        W22723   6.127  12.345   2.656  0.2876  0.1791  0.2767
 9310W        W22724  11.879   0.424   0.824 -0.2046 -0.1578 -0.2826
 9311W        W22725  12.517  13.542   4.304  0.2087 -0.0894  0.0494
 9312W        W22726   6.559   8.252   4.025 -0.0656  0.1076  0.0594
 9313W        W22727   4.026   4.292   4.820  0.2486  0.4697 -0.1313
 9314W        W22728  10.240   5.737   5.229 -0.1541  0.1434  0.2087
 9315W        W22729   8.022   2.010   3.236  0.0612  0.5032 -0.0892
 9316W        W22730   6.296  10.920   5.481  0.1568 -0.2333 -0.1858
 9317W        W22731  15.197   7.789  14.153 -0.0717 -0.0642  0.2658
 9318W        W22732   6.148   1.875  11.204 -0.2967  0.1186  0.1089
 9319W        W22733  17.894  14.221  12.483 -0.5519 -0.0113  0.1519
 9320W        W22734  17.697  18.254  11.408 -0.0568 -0.0415  0.0642
 9321W        W22735   7.618   3.362  15.550  0.0491  0.0742 -0.0574
 9322W        W22736   9.245  17.409   5.875  0.4514 -0.2721 -0.1609
 9323W        W22737   4.909  10.057  15.381 -0.1259  0.4302 -0.0473
 9324W        W22738   2.378   3.911   3.003  0.1108 -0.1996  0.2085
 9325W        W22739  14.026   8.583   2.829  0.3114  0.0547 -0.2405
 9326W        W22740  12.016  14.618  14.715 -0.0182  0.3819  0.0113
 9327W        W22741  16.985   8.322   2.144 -0.3042  0.1874  0.3355
 9328W        W22742   3.108   4.458   4.986  0.0706 -0.1757  0.0593
 9329W        W22743  15.315  11.390  15.158  0.2834 -0.2053 -0.0276
 9330W        W22744   2.758   2.656  15.075  0.1392  0.0512  0.0423
 9331W        W22745   2.831  10.718  12.382  0.2653 -0.1244  0.0493
 9332W        W22746  16.017  12.772   1.106  0.2615 -0.0975 -0.0074
 9333W        W22747  10.547  17.425   4.872 -0.1741 -0.1853  0.2569
 9334W        W22748  12.953   5.867  15.677 -0.3364 -0.0702 -0.1677
 9335W        W22749   2.093  15.223  14.965 -0.3011  0.2293  0.4249
 9336W        W22750   0.245  13.955   4.538  0.2571  0.0794  0.0437
 9337W        W22751  13.554  15.057   5.775  0.1628 -0.3925 -0.1494
 9338W        W22752   7.535   0.120  12.326  0.0326  0.0224  0.0346
 9339W        W22753  13.241  15.764   0.777 -0.1995  0.0224 -0.1682
 9340W        W22754  11.779   8.116   1.723  0.0680 -0.0167 -0.0616
 9341W        W22755   4.286   8.234   0.654  0.0143 -0.1194 -0.0293
 9342W        W22756   1.761  11.876   5.711 -0.1773  0.0605 -0.3104
 9343W        W22757   2.513   8.960   1.530 -0.0178 -0.0151 -0.1739
 9344W        W22758  17.361  14.119   1.965  0.0457  0.2738 -0.3129
 9345W        W22759  15.670   1.483   4.710 -0.1840  0.0104 -0.5068
 9346W        W22760   3.851  17.246  14.439 -0.1971 -0.0384 -0.0637
 9347W        W22761   7.218   1.213   1.296 -0.0731  0.2455 -0.0926
 9348W        W22762  10.389  10.005   2.997  0.0623 -0.0019 -0.0931
 9349W        W22763   8.791   8.899  11.396 -0.1105 -0.2026 -0.0748
 9350W        W22764  17.562   5.554  15.891 -0.2298  0.0788  0.0679
 9351W        W22765   9.901   5.528  16.381  0.1187 -0.2376  0.0318
 9352W        W22766  16.041   6.518  12.462  0.0023 -0.0297  0.2202
 9353W        W22767  11.469   3.877   0.944 -0.1933 -0.0867 -0.1270
 9354W        W22768  14.335   0.614  10.967  0.0475 -0.0190 -0.0479
 9355W        W22769   1.617   1.883   5.522 -0.1717 -0.0047  0.1015
 9356W        W22770  11.021   6.095  16.463  0.1804  0.1291  0.0638
 9357W        W22771   1.970  15.073  10.774  0.4280 -0.1285 -0.1841
 9358W        W22772   9.294  11.855   3.389 -0.1258  0.4143  0.2539
 9359W        W22773  15.889  13.763  11.227  0.0039 -0.1673  0.0896
 9360W        W22774  10.175   2.250   5.227  0.0690  0.0464 -0.1335
 9361W        W22775  11.933   8.558  14.747 -0.2065  0.2513 -0.2079
 9362W        W22776  16.201  14.959  11.375 -0.1024 -0.2598  0.1451
 9363W        W22777  12.785  10.456  14.703 -0.1931  0.0646  0.3103
 9364W        W22778   1.324   4.363   4.504 -0.3992 -0.0012 -0.0614
 9365W        W22779  16.486   4.696  14.739  0.3784 -0.1194  0.0980
 9366W        W22780   8.118  10.738   1.468 -0.4720 -0.1259  0.0613
 9367W        W22781  11.091   8.748   3.203 -0.3534 -0.1403 -0.1298
 9368W        W22782  17.655   8.495  14.893 -0.1476  0.1791 -0.0128
 9369W        W22783   6.045  17.070   4.040  0.1373  0.2957  0.0042
 9370W        W22784  13.629   5.221  13.732 -0.1973  0.0922 -0.1501
 9371W        W22785   9.233   6.851  11.930 -0.0668  0.0475  0.3977
 9372W        W22786  12.529   1.775  15.141  0.1664 -0.1458  0.2911
 9373W        W22787   5.335   1.638  14.455 -0.1829  0.1967  0.0612
 9374W        W22788   1.638   5.956   1.760  0.1225  0.1418 -0.2751
 9375W        W22789  15.544   7.425  14.276 -0.0681  0.0370  0.0882
 9376W        W22790   1.380   2.156   2.935  0.0211  0.0040 -0.0017
 9377W        W22791   5.513   6.418   1.645  0.2908 -0.1272  0.1516
 9378W        W22792   2.227   1.401   2.739  0.0782  0.1224  0.2013
 9379W        W22793  13.925  16.672  11.189  0.1154 -0.3741  0.0891
 9380W        W22794   8.823   3.135  13.308  0.1962 -0.2430  0.4225
 9381W        W22795  12.722  15.856   2.604  0.1970 -0.3605  0.1561
 9382W        W22796   4.583   5.070  11.848 -0.0215 -0.2009  0.0650
 9383W        W22797   5.757  18.106  15.169  0.2627  0.0209  0.0423
 9384W        W22798  13.714   9.370  16.382 -0.2524 -0.0364 -0.1072
 9385W        W22799   6.473   8.556   1.760  0.1006  0.1163  0.1432
 9386W        W22800   7.687  10.362   0.366 -0.1847 -0.1429 -0.1426
 9387W        W22801   5.384   2.790   3.981  0.0287 -0.2760 -0.1392
 9388W        W22802  13.098   4.290   2.474  0.1742 -0.1582  0.0106
 9389W        W22803  14.942  13.865  16.390 -0.2383 -0.1652 -0.3320
 9390W        W22804  14.275  14.535  15.135 -0.0147 -0.2134 -0.2985
 9391W        W22805  13.763   1.946  13.988  0.0595  0.0034  0.1328
 9392W        W22806  12.434   1.118   2.273  0.2522 -0.0834  0.2151
 9393W        W22807   2.402   4.330  10.269 -0.0477  0.0774 -0.1646
 9394W        W22808   4.447   3.536  15.864  0.1018  0.0271  0.0319
 9395W        W22809  17.758   5.350   1.321 -0.1255 -0.0691  0.0751
 9396W        W22810  13.464   2.573  12.142  0.1462 -0.0571 -0.1747
 9397W        W22811  12.610   3.771   3.209 -0.5058  0.1932 -0.1708
 9398W        W22812   6.992   6.796   3.347 -0.0225  0.1936  0.0639
 9399W        W22813  12.732  17.416   5.670 -0.0605 -0.1245 -0.1314
 9400W        W22814  14.681  17.413  15.474 -0.1370  0.1468 -0.1556
 9401W        W22815   5.162   0.474  13.024  0.0140 -0.0279  0.1474
 9402W        W22816   7.366   8.907  13.830 -0.0942 -0.1058  0.1015
 9403W        W22817  17.350  12.744   1.776  0.0394  0.4139 -0.0043
 9404W        W22818   0.461  11.947   2.435  0.0129 -0.1609  0.0589
 9405W        W22819  12.981  12.430   0.495 -0.4248 -0.1273  0.5520
 9406W        W22820  13.166   6.608  12.826 -0.3061  0.2494 -0.2584
 9407W        W22821  17.251   7.242  14.186  0.1047 -0.0727 -0.2464
 9408W        W22822  11.444  15.600   3.024 -0.1036 -0.0729  0.1860
 9409W        W22823  17.539   8.105   0.450  0.2054 -0.0414 -0.4179
 9410W        W22824   3.311  17.323  15.127 -0.0318  0.1927  0.1359
 9411W        W22825   1.465  17.102  14.384 -0.1507  0.2254  0.2700
 9412W        W22826  10.560   1.438   5.708 -0.0157  0.1069  0.4075
 9413W        W22827  17.718   6.480   1.278  0.0029  0.2728 -0.2419
 9414W        W22828   8.542   5.253  13.632 -0.1185 -0.1618 -0.3970
 9415W        W22829  13.842   3.409  10.862 -0.0229 -0.0254  0.2245
 9416W        W22830  17.303  16.772  15.059 -0.4403  0.0518  0.1895
 9417W        W22831  11.403   6.895   3.531  0.1120 -0.1941  0.0447
 9418W        W22832  17.929  15.736   4.863 -0.1212 -0.0202  0.0010
 9419W        W22833  16.637   1.233   4.870 -0.1170 -0.0752 -0.0033
 9420W        W22834  14.471   0.414  15.279 -0.2050  0.1303 -0.2321
 9421W        W22835   0.612   5.843  15.614 -0.0624 -0.2258 -0.0714
 9422W        W22836  15.162  16.883   4.898  0.0446 -0.1338 -0.0075
 9423W        W22837  15.632   5.210  13.655  0.0768 -0.0673 -0.1205
 9424W        W22838   7.789   8.756   5.568 -0.2576  0.0112  0.0851
 9425W        W22839  11.484   5.037  12.322 -0.4291  0.0395  0.2556
 9426W        W22840   7.998   2.707  16.026  0.0201  0.2501  0.1165
 9427W        W22841   9.136   8.495  13.096  0.3400 -0.2000 -0.1355
 9428W        W22842   7.326  11.351   1.838  0.2482  0.0983  0.3523
 9429W        W22843  11.625  12.286   3.924  0.1148 -0.2257 -0.1770
 9430W        W22844  10.918   8.785  12.231  0.1855  0.1034  0.2147
 9431W        W22845   7.891  15.042   5.014 -0.0602 -0.0072  0.0836
 9432W        W22846  10.229   5.822   0.491  0.1785 -0.1450  0.0681
 9433W        W22847  12.272  14.604   1.338 -0.1155 -0.0882 -0.1068
 9434W        W22848   8.713  11.535  15.432 -0.0016  0.2190  0.0759
 9435W        W22849   0.684   5.953   5.386  0.0401 -0.2326 -0.0088
 9436W        W22850  13.689   3.964   3.972 -0.2343  0.3732  0.0015
 9437W        W22851  12.261   3.814  11.754  0.1309  0.0223  0.2448
 9438W        W22852  17.140  12.101   4.663 -0.1215 -0.3008  0.2894
 9439W        W22853   9.908  12.740  10.460  0.0725 -0.0850 -0.1044
 9440W        W22854   9.813  13.595  11.116  0.0521 -0.2544 -0.0477
 9441W        W22855   9.199  13.873   5.126  0.0849  0.2893 -0.1309
 9442W        W22856  18.029  16.918  11.665  0.3210 -0.2556 -0.0816
 9443W        W22857  10.279  11.241   0.978  0.0623 -0.0881  0.2391
 9444W        W22858   6.079  15.905   3.221 -0.1492 -0.0292 -0.3343
 9445W        W22859  13.694   1.588  16.124  0.3125 -0.2609 -0.0404
 9446W        W22860   5.258   3.280  12.158  0.1472  0.0167  0.0504
 9447W        W22861  14.216   6.711  11.004  0.0617 -0.0589 -0.0514
 9448W        W22862   9.026  15.297   3.725  0.1112  0.0848 -0.2706
 9449W        W22863   8.870  11.088  15.496  0.2051 -0.0833 -0.2445
 9450W        W22864   1.730  14.918  14.541  0.1630 -0.2398  0.5212
 9451W        W22865   8.178  12.128   4.440  0.1163 -0.0127  0.1465
 9452W        W22866  15.810  17.339  15.995 -0.0343 -0.1013  0.0192
 9453W        W22867  14.393  15.935   1.033  0.3109  0.1128 -0.0967
 9454W        W22868   3.219   2.109  16.279  0.0552  0.2653  0.4108
 9455W        W22869  11.999  13.638  13.401  0.1623  0.1579 -0.0363
 9456W        W22870  18.132  11.883   1.670 -0.2497 -0.0266 -0.0976
 9457W        W22871   8.174   1.599   2.371 -0.0586  0.0988 -0.1043
 9458W        W22872   2.686   8.468   4.973 -0.2836 -0.0804 -0.2475
 9459W        W22873  15.962  17.637  15.568  0.0622 -0.0774 -0.0257
 9460W        W22874   7.678   3.330   4.941  0.2510  0.1394 -0.4664
 9461W        W22875  15.769   4.560   2.719  0.1209  0.0081  0.1298
 9462W        W22876   3.884   0.156  12.665  0.0597  0.0613  0.0066
 9463W        W22877   4.444  16.830   1.280  0.0893  0.1908 -0.1370
 9464W        W22878  14.880  16.690   2.746  0.0226  0.1940 -0.2152
 9465W        W22879  17.188  12.017  11.889 -0.0083  0.2233  0.2658
 9466W        W22880   3.458  17.903  11.865  0.0741  0.3052 -0.0094
 9467W        W22881   0.506   4.688  10.637  0.0844  0.1067 -0.2304
 9468W        W22882  11.940   6.407   4.828  0.3459 -0.0263 -0.1682
 9469W        W22883  14.513  16.337   4.266 -0.0864  0.1448  0.1412
 9470W        W22884  18.215   9.149  16.289  0.1998  0.0898  0.0348
 9471W        W22885  16.418   6.997   5.521 -0.2636  0.2846  0.0516
 9472W        W22886   7.762  14.365  12.152 -0.1327 -0.1385 -0.2899
 9473W        W22887  13.653   4.164  13.107 -0.2783  0.3230 -0.2501
 9474W        W22888  17.908  13.656   3.101 -0.0009 -0.0717  0.0748
 9475W        W22889   8.197  12.343   3.382 -0.1165 -0.2043 -0.0188
 9476W        W22890   6.824   5.154   0.917 -0.1005 -0.4066 -0.0652
 9477W        W22891  10.240   5.777   3.096 -0.1507 -0.1472  0.1273
 9478W        W22892   3.635   8.161  12.604 -0.2729 -0.1473 -0.2216
 9479W        W22893   2.747   9.579   4.440 -0.0153 -0.1973 -0.0746
 9480W        W22894  12.769   2.801   6.209  0.0714  0.2208 -0.1290
 9481W        W22895   5.616   7.782   1.321 -0.0778  0.1101 -0.0596
 9482W        W22896   9.258   8.606   0.107 -0.1385 -0.0074 -0.0903
 9483W        W22897  12.920   5.119   1.048  0.2705 -0.0393 -0.0218
 9484W        W22898  14.160  10.781  15.465 -0.0061  0.0153  0.0301
 9485W        W22899   2.661   0.071  10.461  0.0600  0.0872 -0.1624
 9486W        W22900   2.174   0.477  13.578  0.0998 -0.2087  0.1660
 9487W        W22901  11.569   5.329  15.414 -0.0741  0.1946 -0.0269
 9488W        W22902  15.891  17.090   3.543  0.0390 -0.2184  0.1611
 9489W        W22903   1.206  15.493   3.926  0.2586  0.3025 -0.0139
 9490W        W22904   6.226   2.830  12.723 -0.2200  0.1905  0.2557
 9491W        W22905   3.049   2.852  14.716 -0.1157  0.3096  0.0762
 9492W        W22906   8.503   4.980  12.244  0.0224 -0.1441 -0.0573
 9493W        W22907  12.451   7.419   3.857 -0.1553 -0.1213  0.0830
 9494W        W22908   2.726  15.480  13.068 -0.2795 -0.0633  0.1133
 9495W        W22909  16.144   6.221   1.255  0.1371 -0.2610 -0.2101
 9496W        W22910   4.420  12.655   0.621 -0.0485 -0.0922 -0.1634
 9497W        W22911  12.673   8.303  12.346 -0.2527 -0.0354  0.2325
 9498W        W22912  10.455  12.968   5.975  0.0798  0.0253 -0.0359
 9499W        W22913  17.845   0.559   2.782 -0.0571 -0.0790 -0.1363
 9500W        W22914  11.528  12.015  10.820 -0.1395  0.1080  0.1486
 9501W        W22915  11.685   9.931  15.018 -0.0622  0.2438 -0.0788
 9502W        W22916   3.945   3.843  14.614 -0.0392  0.0315 -0.1152
 9503W        W22917  12.822   4.799   2.605  0.1572 -0.0165 -0.0372
 9504W        W22918   7.561   3.541  14.555  0.3207  0.1023  0.0943
 9505W        W22919  13.211   1.188  13.861  0.1763 -0.0071  0.1024
 9506W        W22920   5.988   4.583  13.007  0.1786  0.0892 -0.2973
 9507W        W22921  13.567   7.652   4.628 -0.0723 -0.2574  0.0309
 9508W        W22922   0.241  17.040   4.011  0.1463  0.0790 -0.0283
 9509W        W22923   6.620  13.765  15.683 -0.2929  0.1086  0.3340
 9510W        W22924   9.275  13.077  14.515 -0.0501 -0.0531 -0.0632
 9511W        W22925   5.805   1.511   0.218  0.1553 -0.0869 -0.3268
 9512W        W22926  17.617  12.232  11.007 -0.0482 -0.1527 -0.3742
 9513W        W22927   5.149   7.029   6.122  0.2663  0.0272  0.0822
 9514W        W22928  15.721   7.132  11.597 -0.1682  0.0169 -0.1635
 9515W        W22929  15.948   4.286   9.991 -0.2453 -0.2856 -0.4252
 9516W        W22930  13.278   8.732  14.320  0.1358  0.1910 -0.2714
 9517W        W22931   5.154  13.476  12.970  0.1697 -0.0615  0.3610
 9518W        W22932   0.125   2.041   3.979  0.2346 -0.2622  0.1332
 9519W        W22933   8.249  13.288   2.447 -0.0815  0.1012 -0.1434
 9520W        W22934  17.912   5.209  11.551  0.2555 -0.2840  0.1538
 9521W        W22935   4.979  16.937  16.475  0.1309 -0.2008  0.3639
 9522W        W22936  11.516   6.231  13.728 -0.0555 -0.2074  0.0110
 9523W        W22937  13.682  13.564  13.046  0.2410  0.1442 -0.1618
 9524W        W22938  13.561   9.647   2.909 -0.4422 -0.1465 -0.0505
 9525W        W22939  13.262   5.878   3.534 -0.0332 -0.1043  0.0105
 9526W        W22940   6.119   7.181   3.531  0.2228  0.1186 -0.0297
 9527W        W22941   7.367   6.279   2.532  0.0034 -0.1730  0.2167
 9528W        W22942   4.351   1.355   0.771 -0.3197 -0.0981  0.0214
 9529W        W22943   3.361  17.388  13.627  0.1067 -0.1787 -0.1643
 9530W        W22944  15.331   4.999  10.801 -0.1867  0.0389  0.0151
 9531W        W22945   5.147   1.022   3.637  0.0070 -0.0837 -0.1898
 9532W        W22946  12.215   6.317   4.008 -0.2280  0.1890  0.0029
 9533W        W22947  14.759   5.204   1.594 -0.3650  0.1764 -0.3668
 9534W        W22948  18.191  12.788   2.664 -0.1207  0.1373  0.0491
 9535W        W22949   8.028  10.110  13.764 -0.0998 -0.2512 -0.2223
 9536W        W22950   5.809   9.845   4.758 -0.1986  0.0369  0.3375
 9537W        W22951   4.287   4.866  13.737  0.1582  0.1012  0.1664
 9538W        W22952  12.190  14.689   2.425 -0.2232  0.2120  0.0966
 9539W        W22953  15.673  14.661   6.530  0.2880  0.1402 -0.0966
 9540W        W22954   8.803   8.055  16.086 -0.1416  0.2075  0.2443
 9541W        W22955  16.971   9.893   2.319  0.0192  0.1164  0.0125
 9542W        W22956  16.563   8.472  16.042  0.1113 -0.2377 -0.1095
 9543W        W22957  12.782   4.076  15.042 -0.0242 -0.1959 -0.2744
 9544W        W22958  17.228   5.071  16.493 -0.3904 -0.0497  0.0058
 9545W        W22959  10.893  13.865  14.069  0.0111 -0.0984 -0.0916
 9546W        W22960  14.538   4.562   4.512 -0.1075 -0.0013  0.0660
 9547W        W22961   7.372   3.828   3.746 -0.0655 -0.1707 -0.1152
 9548W        W22962  15.521  11.188   4.057 -0.0264 -0.0870  0.1671
 9549W        W22963   7.583   9.515  13.024  0.1093  0.1544  0.0003
 9550W        W22964  14.011  14.420  15.980 -0.1019 -0.0981  0.1989
 9551W        W22965  13.375   2.437  16.377  0.2842 -0.2075  0.1195
 9552W        W22966  16.121   0.825  14.521  0.0457 -0.1477 -0.2706
 9553W        W22967   7.549  15.029  16.279  0.2218  0.2026 -0.1133
 9554W        W22968  15.141   3.267   4.119 -0.1191  0.1887  0.1807
 9555W        W22969   1.775   8.884   0.878  0.2848 -0.2310 -0.0144
 9556W        W22970   4.384  17.509  14.016 -0.0937 -0.1901 -0.0480
 9557W        W22971  11.157  15.015   4.322  0.1563  0.0827 -0.0280
 9558W        W22972   9.984   9.441  15.951  0.1899 -0.1027  0.0261
 9559W        W22973   4.230  12.306   4.214  0.0538 -0.1150  0.0526
 9560W        W22974   5.329  10.389  10.145 -0.0128 -0.1265 -0.0469
 9561W        W22975  12.489   9.496   6.097  0.0201 -0.2688  0.0115
 9562W        W22976  11.171  11.626   1.118 -0.0977 -0.1132  0.0522
 9563W        W22977   2.801   1.877  15.920 -0.0142  0.1993  0.0504
 9564W        W22978  13.452   8.271  11.352 -0.3684 -0.2284  0.1271
 9565W        W22979  13.180   7.847   4.381 -0.0447 -0.0994 -0.1495
 9566W        W22980  13.478  13.409   5.283 -0.0164  0.2441 -0.0623
 9567W        W22981  14.867   6.474   2.781 -0.3288  0.3718  0.0827
 9568W        W22982   9.189  11.311   4.582  0.1786 -0.0497  0.1366
 9569W        W22983  10.243   1.189   6.482 -0.1725  0.3525  0.3568
 9570W        W22984   6.216  12.539   0.583 -0.1516  0.0991 -0.0116
 9571W        W22985   6.170  11.648  15.667 -0.1015 -0.3458 -0.4248
 9572W        W22986   0.429  14.762  11.593 -0.2102  0.1963  0.3288
 9573W        W22987   8.547  16.555  14.731 -0.1819  0.0594  0.0490
 9574W        W22988  11.039  13.519  13.629  0.0640  0.2909  0.1819
 9575W        W22989   3.586   2.462   4.689  0.0045  0.3715  0.2233
 9576W        W22990  17.278   2.661   0.980 -0.0448  0.1476 -0.1234
 9577W        W22991  14.069  11.179   5.433  0.0829 -0.1366 -0.2805
 9578W        W22992   1.019   9.180  13.577 -0.0696  0.0631  0.0172
 9579W        W22993   0.481   9.365  15.482 -0.2233  0.1348  0.1023
 9580W        W22994   5.536  17.067   0.055 -0.1053  0.5635  0.0045
 9581W        W22995  11.072  15.336   3.869  0.0121  0.0078 -0.0937
 9582W        W22996   1.874   8.235   6.305 -0.1761 -0.2291  0.2084
 9583W        W22997   4.872  16.023   5.694  0.1873  0.2666  0.2042
 9584W        W22998   7.823  17.948   0.119 -0.4114  0.3828  0.1110
 9585W        W22999   5.208  17.493   3.252 -0.2505  0.2656  0.0686
 9586W        W23000   4.382   9.343  14.647  0.0944  0.0589  0.2807
 9587W        W23001  10.504  17.057  11.863 -0.2036 -0.1254  0.0736
 9588W        W23002  11.320   3.154   6.259 -0.0085  0.2202 -0.0383
 9589W        W23003   8.912   7.598   4.087 -0.0100 -0.5196  0.0954
 9590W        W23004   8.856  17.056   5.670  0.0270 -0.1249  0.1646
 9591W        W23005  13.588   0.389   5.896  0.1037 -0.0652  0.3661
 9592W        W23006  13.292   3.115  11.080  0.0227 -0.0764 -0.1007
 9593W        W23007   2.362  10.711  10.959 -0.2181  0.0151  0.1408
 9594W        W23008  13.688   6.528  15.846  0.2267 -0.0265  0.2671
 9595W        W23009   8.220  17.511   2.691 -0.0021  0.1727 -0.1232
 9596W        W23010   9.392  11.205   0.206  0.3551 -0.0085 -0.3838
 9597W        W23011  16.477   1.027  13.402 -0.0918  0.0782 -0.0546
 9598W        W23012   4.451  10.208   3.701 -0.0959  0.0765 -0.1859
 9599W        W23013  11.649  14.308   3.325 -0.0077 -0.0307 -0.3975
 9600W        W23014   5.285   8.233  10.621  0.0294  0.0697  0.0185
 9601W        W23015  13.208  17.249   1.279  0.4248  0.1833  0.3347
 9602W        W23016  11.002   1.877  16.485  0.0546  0.1259 -0.0113
 9603W        W23017  10.694  17.661  13.672  0.4619 -0.0205 -0.0946
 9604W        W23018  16.481  13.787   5.799 -0.0938  0.0034  0.0567
 9605W        W23019  10.115  12.912  13.980  0.2379  0.1164  0.0757
 9606W        W23020   4.357   4.779   4.172  0.1603 -0.1737  0.4735
 9607W        W23021   9.403   4.098  16.090 -0.0816 -0.0687 -0.2257
 9608W        W23022   4.865   8.458   4.956  0.1614 -0.0359  0.2137
 9609W        W23023  10.445  17.826  14.882  0.2383 -0.0475 -0.0120
 9610W        W23024   4.486  12.368  16.448  0.0485  0.0176  0.1341
 9611W        W23025   3.559   6.307   5.130  0.0202  0.1495  0.1146
 9612W        W23026   2.012  13.920  15.645 -0.0137 -0.1842 -0.1983
 9613W        W23027   5.168  13.253   0.302  0.2699  0.2793  0.4138
 9614W        W23028  12.295  10.502   1.959  0.4057  0.0940 -0.0849
 9615W        W23029   3.049  14.184   4.049  0.0110  0.0495  0.0536
 9616W        W23030   2.154  10.955   1.283  0.3082  0.1010 -0.1395
 9617W        W23031   0.949   6.231   0.387  0.2438  0.2174  0.3864
 9618W        W23032  16.614   5.811  15.778  0.0463 -0.2039  0.0614
 9619W        W23033  10.564   3.941   0.713  0.0609 -0.0573 -0.0878
 9620W        W23034   2.771  12.108   5.849 -0.2635  0.1223 -0.2911
 9621W        W23035   1.859   2.229   2.799  0.0773  0.3813 -0.0721
 9622W        W23036   6.976  10.148  16.451 -0.0485  0.0683  0.1488
 9623W        W23037  10.026   6.305  10.603  0.0691  0.1758  0.0796
 9624W        W23038  12.737  12.382  16.310  0.2431  0.0531 -0.4543
 9625W        W23039  11.929  11.868   2.484 -0.3467  0.3748  0.0986
 9626W        W23040   2.756   0.036  11.481 -0.0316  0.2331 -0.1866
 9627W        W23041   3.074   1.431   3.605  0.0504  0.0904 -0.0687
 9628W        W23042   0.176   8.996  15.228 -0.2011  0.0857  0.1329
 9629W        W23043   1.000  13.511   1.071  0.1754 -0.2449  0.3041
 9630W        W23044  10.619   7.968   5.664  0.1851 -0.2354 -0.1517
 9631W        W23045   3.283  14.379  15.295  0.3331  0.0099  0.4414
 9632W        W23046  12.350  13.740   2.839 -0.0752 -0.0956 -0.0577
 9633W        W23047   1.155   5.297   2.335 -0.0444  0.0707 -0.0219
 9634W        W23048  13.618  16.076  12.929 -0.0864  0.0644  0.2270
 9635W        W23049   2.591   1.816   2.863 -0.0667  0.1089 -0.0078
 9636W        W23050   0.431  15.365   2.678 -0.1281 -0.0991 -0.4804
 9637W        W23051   0.380  17.348  10.968  0.0134 -0.0542  0.0577
 9638W        W23052   4.028  17.907   5.641 -0.4949  0.0292 -0.0956
 9639W        W23053  12.504   7.085  12.023 -0.0696  0.1123  0.0237
 9640W        W23054  16.950   9.499   5.068  0.1922  0.0311 -0.4068
 9641W        W23055   6.797   2.936  13.037 -0.0737 -0.2789 -0.1814
 9642W        W23056   7.186  10.848  11.066 -0.1279  0.2314  0.0885
 9643W        W23057  15.228   1.316   1.570  0.2551 -0.0684 -0.3340
 9644W        W23058  12.581  15.823  11.939  0.1808  0.5342  0.0014
 9645W        W23059  17.466  11.802   4.846  0.1832 -0.1278 -0.3137
 9646W        W23060  14.328  17.531   4.508  0.0120  0.1039  0.0040
 9647W        W23061   9.940  15.959   4.014  0.0016 -0.0804 -0.0939
 9648W        W23062   0.931  14.241   3.762  0.0707  0.2454 -0.2076
 9649W        W23063   9.800   7.564  10.420 -0.2044 -0.0094 -0.0672
 9650W        W23064   6.848  12.410  13.614 -0.2840 -0.0682  0.0495
 9651W        W23065   1.387  17.718  15.408  0.4087  0.0878 -0.1772
 9652W        W23066   6.405   4.168   5.069 -0.0407  0.2617 -0.1495
 9653W        W23067  18.044  15.488  11.320 -0.0829 -0.0068  0.5214
 9654W        W23068  10.049   8.094   3.390  0.0832  0.2490  0.2339
 9655W        W23069   6.081   3.918  11.914  0.0050  0.4360  0.3800
 9656W        W23070   0.214   9.363  14.708 -0.3655 -0.0487  0.2134
 9657W        W23071  16.564  18.209  12.368 -0.2571 -0.1204 -0.0436
 9658W        W23072   6.017  10.572  14.341 -0.2208  0.0131 -0.2196
 9659W        W23073   1.221  14.180  11.703 -0.5671 -0.0145 -0.1213
 9660W        W23074   1.796  15.947  12.586 -0.1222  0.0289  0.2493
 9661W        W23075  14.854  10.748   1.158 -0.0393 -0.0434  0.1216
 9662W        W23076   2.698  15.797   5.986 -0.2191 -0.0134 -0.1558
 9663W        W23077   0.680   6.025  14.315  0.3179  0.1274  0.4897
 9664W        W23078  11.568  17.136  14.939  0.1776 -0.0293 -0.1827
 9665W        W23079   2.247   0.890  11.069 -0.0572 -0.1082 -0.1100
 9666W        W23080   8.967  15.473  12.099  0.0714  0.0021 -0.2549
 9667W        W23081  16.401  11.968   3.114  0.1992 -0.1221 -0.0003
 9668W        W23082   0.086   0.615  11.113  0.2404 -0.2733 -0.0541
 9669W        W23083  13.677   8.763   2.433 -0.2480 -0.0666 -0.0908
 9670W        W23084   0.404  11.574   3.275  0.0838 -0.1594 -0.1729
 9671W        W23085   2.029   4.133   4.067  0.1136 -0.2280 -0.0140
 9672W        W23086  16.532   9.327   4.646 -0.1013 -0.0986  0.0047
 9673W        W23087  17.178  13.511  12.951 -0.1892  0.0968  0.1453
 9674W        W23088   5.897   9.724  11.235  0.1081 -0.0550  0.0766
 9675W        W23089  17.210   7.473  13.595  0.2432  0.1651  0.2995
 9676W        W23090  17.511   1.643  11.805 -0.1683  0.1626 -0.1575
 9677W        W23091  13.399   3.374  15.562 -0.0219  0.0015  0.1027
 9678W        W23092  17.509   9.947  13.694 -0.1237 -0.2669 -0.2623
 9679W        W23093  17.369  17.281   5.195 -0.2880  0.1112 -0.2275
 9680W        W23094   5.942   8.514  14.365  0.1299 -0.3044 -0.3784
 9681W        W23095   8.261  15.195   6.552  0.0257 -0.2072  0.0912
 9682W        W23096  17.331  11.524   1.544  0.1604 -0.0839  0.0783
 9683W        W23097  13.181  10.698   1.475  0.0983  0.1592  0.4126
 9684W        W23098  12.568   3.486  13.027  0.0493  0.0010  0.1502
 9685W        W23099  14.746   2.241   0.887  0.0290  0.3390 -0.0325
 9686W        W23100  17.998  16.353   5.744  0.0390  0.2023  0.0324
 9687W        W23101  11.813  14.766   5.954 -0.2953  0.2365  0.0859
 9688W        W23102  17.244  10.240  13.292 -0.3399  0.1615 -0.2911
 9689W        W23103   7.050   4.283   1.034  0.0999  0.2148  0.1808
 9690W        W23104   8.581  15.129   3.100 -0.0614 -0.3965  0.0082
 9691W        W23105  12.199   2.194   4.283 -0.0898  0.1544 -0.0325
 9692W        W23106  15.774  11.475   1.532  0.0058  0.1099 -0.1563
 9693W        W23107   4.477   8.497   3.063  0.0347 -0.0729  0.1673
 9694W        W23108  14.768  16.125   0.143  0.0390  0.1115  0.2151
 9695W        W23109  10.351  12.984   0.632  0.0909  0.1481 -0.0315
 9696W        W23110  14.002  10.458  10.497  0.0208  0.0396 -0.1274
 9697W        W23111  17.695   8.728   4.363 -0.1361 -0.0808  0.0835
 9698W        W23112   6.248   1.245   1.530 -0.1851  0.0071 -0.0481
 9699W        W23113   9.509  10.867  15.255  0.0454  0.0715 -0.2940
 9700W        W23114   9.041   4.305  15.237 -0.0335 -0.2655  0.4258
 9701W        W23115   9.969   7.638   1.640  0.2864  0.0222 -0.0640
 9702W        W23116   8.642  15.524  11.223 -0.1867 -0.0035  0.2059
 9703W        W23117   3.389  18.284  12.483  0.0559  0.2399  0.0115
 9704W        W23118  18.166  14.279   1.903  0.3616  0.1119  0.3547
 9705W        W23119   0.056  15.241   5.426 -0.1737 -0.0956 -0.3601
 9706W        W23120   4.325   2.678  15.663 -0.1823  0.0356  0.0279
 9707W        W23121  10.343  14.111   0.173  0.0617  0.1197  0.1235
 9708W        W23122   9.403  17.191  13.845  0.0530  0.1025  0.2869
 9709W        W23123  10.348  16.500  14.667  0.0131 -0.2506  0.0681
 9710W        W23124  16.444  13.903   2.188 -0.0190 -0.0953  0.0119
 9711W        W23125  11.660   4.246   1.289 -0.0831  0.0481  0.2626
 9712W        W23126   6.061  14.556   6.284  0.0250  0.0767  0.0974
 9713W        W23127  16.243   1.663   9.730 -0.0644 -0.2022  0.2378
 9714W        W23128  18.008  11.205   5.820  0.2616 -0.0487  0.0328
 9715W        W23129   5.636  10.385  10.524 -0.2305  0.0987  0.0438
 9716W        W23130  14.933  12.230   0.388 -0.0284 -0.3561  0.0076
 9717W        W23131  13.043   6.215   5.109  0.1573  0.2196 -0.2369
 9718W        W23132  13.152  16.352  15.986  0.2634 -0.1280  0.1504
 9719W        W23133   3.306   3.746  10.407  0.2141 -0.0244  0.4604
 9720W        W23134   4.563  10.351   2.031 -0.0016  0.2081  0.3476
 9721W        W23135   5.237   1.413   1.940  0.5559  0.1288  0.3246
 9722W        W23136   4.888  17.236   2.795  0.0164 -0.0520  0.2190
 9723W        W23137   8.846  17.703   0.448 -0.0592 -0.1448 -0.0097
 9724W        W23138  14.985  10.315  16.072  0.2100  0.0878  0.0254
 9725W        W23139   0.826   2.479  13.292  0.0738 -0.1422 -0.0633
 9726W        W23140  10.511   0.438  11.357 -0.3205  0.1290  0.0183
 9727W        W23141  14.888  13.376   0.792  0.1059  0.0766 -0.0860
 9728W        W23142   1.859   7.359   3.771 -0.0728 -0.2102 -0.4275
 9729W        W23143   3.499   2.585  16.440  0.2019  0.1893  0.2086
 9730W        W23144   4.594   6.413  15.548  0.1639 -0.0299  0.0567
 9731W        W23145   5.892   2.798  15.189  0.0391  0.1088  0.0161
 9732W        W23146  10.209  13.432   0.404 -0.3144 -0.1449  0.0215
 9733W        W23147  15.654  16.607  15.355 -0.0428 -0.0231  0.0731
 9734W        W23148  10.329   8.444   3.104 -0.2366 -0.1253  0.0150
 9735W        W23149   9.065  17.749   3.441 -0.2038 -0.0357 -0.1466
 9736W        W23150   7.696  13.284   2.609  0.1208 -0.3228  0.1533
 9737W        W23151   5.448   6.112   2.115  0.2416  0.0903  0.1241
 9738W        W23152   7.249  18.151  11.056 -0.2242  0.0528  0.0437
 9739W        W23153   4.940  14.914  12.753  0.1724  0.1629  0.2884
 9740W        W23154  11.939  15.890  10.927  0.0635 -0.1330  0.0272
 9741W        W23155   1.216  15.512  15.871  0.0312 -0.0775 -0.1802
 9742W        W23156   2.235  15.416  16.516 -0.0317 -0.1671  0.0359
 9743W        W23157  13.874  17.949   5.895 -0.0360  0.0864 -0.0607
 9744W        W23158   8.161   0.033   5.032 -0.1018  0.1264 -0.0163
 9745W        W23159   7.706  10.502   1.945 -0.1234 -0.2654  0.1941
 9746W        W23160   7.103   7.394   0.229 -0.3503 -0.3317  0.0387
 9747W        W23161  14.824   8.113  14.971 -0.2991  0.0643  0.0042
 9748W        W23162  11.993   9.947  15.412  0.1642  0.3841 -0.0911
 9749W        W23163  16.788   3.542  10.203 -0.0547 -0.0070  0.3389
 9750W        W23164   1.859  13.773   1.496 -0.0707 -0.0189  0.1518
 9751W        W23165   3.604   8.965   0.526  0.1239 -0.2124 -0.0931
 9752W        W23166  15.020   4.465   4.369 -0.1155  0.0853 -0.1647
 9753W        W23167   9.852  14.614  14.722  0.3123  0.2139  0.2202
 9754W        W23168   4.638   1.083   4.957  0.0585  0.2714  0.2068
 9755W        W23169   5.706  11.308   3.004  0.1218 -0.2041  0.0625
 9756W        W23170   7.688   1.041  15.679  0.0490  0.0139 -0.3772
 9757W        W23171   9.010   5.822   2.594 -0.1592 -0.1322 -0.0349
 9758W        W23172  15.088  13.822  13.349 -0.2464  0.0910 -0.1918
 9759W        W23173   6.468   9.786   4.397 -0.1452  0.0037 -0.1465
 9760W        W23174   1.883   4.211  14.148  0.0992 -0.2648  0.0321
 9761W        W23175   7.240   9.299  12.103 -0.2258 -0.0585 -0.3160
 9762W        W23176  17.295   5.500  10.453 -0.3309 -0.2690  0.1092
 9763W        W23177   4.090  10.991   1.513  0.1123  0.0326  0.1783
 9764W        W23178  17.810  10.155   1.163  0.0689 -0.0825 -0.2555
 9765W        W23179  11.436  11.551  12.000 -0.0774 -0.1227  0.2815
 9766W        W23180   0.531  13.617   6.460 -0.2685 -0.0095 -0.1412
 9767W        W23181   4.566  16.558   3.948  0.1691  0.0099  0.2752
 9768W        W23182  13.182  14.679   6.210 -0.1841 -0.1407 -0.1445
 9769W        W23183  16.366   0.527  10.054  0.2084 -0.0019 -0.3268
 9770W        W23184   2.272  13.119  13.479  0.4489 -0.3924 -0.2016
 9771W        W23185  14.956   9.794   1.241 -0.1756  0.0019  0.1459
 9772W        W23186  13.466   8.285  14.390  0.0199  0.0632  0.4145
 9773W        W23187   4.865  12.704   2.181 -0.1362  0.1449  0.4210
 9774W        W23188   7.646   6.045   6.139 -0.1290  0.0001  0.0040
 9775W        W23189   9.928   8.807  10.222 -0.3730  0.0786  0.3154
 9776W        W23190  18.253   7.177  12.446 -0.1710  0.0230  0.1934
 9777W        W23191  16.076  13.487   5.722  0.3244  0.1467 -0.3016
 9778W        W23192  17.257   5.215  12.349 -0.1110 -0.0933 -0.0350
 9779W        W23193  12.705   5.458  15.027  0.0184 -0.0039  0.0315
 9780W        W23194   4.398   0.796  10.447 -0.1058 -0.1768  0.0838
 9781W        W23195   5.895  13.404   4.507  0.1113 -0.0392 -0.1549
 9782W        W23196  15.507  13.456  11.347  0.0933 -0.1453  0.2083
 9783W        W23197   6.403   0.924  11.825  0.0589  0.1128  0.1821
 9784W        W23198   5.526  16.638   2.071  0.1603  0.1198  0.1894
 9785W        W23199  15.677   5.018  11.745  0.2517  0.0568 -0.1916
 9786W        W23200   0.525   3.255   4.438 -0.0363 -0.2018  0.0306
 9787W        W23201   5.772  17.543   0.835  0.2480  0.1951 -0.0322
 9788W        W23202  14.783   9.870   1.776 -0.1180  0.2332  0.0902
 9789W        W23203  13.613   0.571  15.424 -0.3860  0.0227 -0.1078
 9790W        W23204  11.525   2.378  11.854 -0.2176  0.2162 -0.3337
 9791W        W23205  15.702   3.940   1.098 -0.0195 -0.0261  0.1467
 9792W        W23206   9.347  14.467  13.230 -0.1809 -0.0840  0.1852
 9793W        W23207   6.457   8.516  15.469  0.0102 -0.2958  0.0815
 9794W        W23208   7.536  14.821  12.860  0.0855 -0.1265  0.2164
 9795W        W23209  16.127   7.883   9.952 -0.0189 -0.2292  0.2131
 9796W        W23210   1.594  17.137   0.458  0.1337  0.0695 -0.1529
 9797W        W23211   3.131  17.977  10.964 -0.0109  0.3919 -0.1218
 9798W        W23212  18.244   6.524   0.454  0.0346 -0.1400  0.2071
 9799W        W23213   6.554  10.283  10.930  0.2767  0.1307 -0.0958
 9800W        W23214   1.117   6.893  14.548 -0.0769  0.0229  0.0010
 9801W        W23215   3.453  17.924   0.424 -0.1838 -0.0909 -0.2298
 9802W        W23216   6.233   4.085   4.485 -0.1748 -0.0313  0.1052
 9803W        W23217   2.426   9.864  14.161 -0.0622 -0.0270 -0.0220
 9804W        W23218  18.242  10.174  13.339 -0.0948 -0.1045  0.0238
 9805W        W23219  16.966  12.369   3.966 -0.0414  0.3441 -0.2374
 9806W        W23220   0.781  17.522   3.244  0.2054 -0.2487 -0.0342
 9807W        W23221  15.919  10.953   5.058  0.0431 -0.0664  0.0435
 9808W        W23222  14.192   3.033  12.508 -0.3090 -0.1139 -0.0545
 9809W        W23223   6.532  10.497   5.608 -0.1160 -0.1702  0.0243
 9810W        W23224  15.310   5.210  16.465  0.1423  0.0026  0.1334
 9811W        W23225  13.080  15.463  15.478  0.2130 -0.1077  0.0760
 9812W        W23226   7.187   3.498  15.293  0.0623  0.1128  0.3745
 9813W        W23227  10.615  10.999  11.960 -0.1147  0.1337 -0.1040
 9814W        W23228  11.338  18.187  11.049  0.1855 -0.2509 -0.1156
 9815W        W23229   8.881   5.000   2.809 -0.0343  0.1055  0.1485
 9816W        W23230   9.186  14.868  11.368 -0.1570  0.0483 -0.0875
 9817W        W23231   0.735  17.589   0.691  0.0092  0.0504  0.2228
 9818W        W23232   2.318   5.978  14.463  0.0870  0.1355 -0.1311
 9819W        W23233  10.453  13.583  16.521  0.0157  0.1619 -0.1570
 9820W        W23234  11.096   1.694   3.096  0.1977 -0.1730 -0.0822
 9821W        W23235   5.197  15.644  13.507 -0.0891  0.2571 -0.2915
 9822W        W23236  11.576   2.832   5.326 -0.0751  0.0295 -0.2919
 9823W        W23237  12.355   8.837   0.386  0.0532 -0.1671 -0.3633
 9824W        W23238   1.930   6.831  11.958 -0.0023 -0.3380 -0.0967
 9825W        W23239   8.208   8.570  13.615 -0.0453  0.2291 -0.1099
 9826W        W23240  14.704   6.623  12.839 -0.5303  0.0950 -0.2204
 9827W        W23241  16.885  14.854  10.889 -0.0434  0.3998  0.1007
 9828W        W23242   9.653   9.326  12.117  0.1469 -0.2249 -0.1384
 9829W        W23243   6.187   9.242  13.368  0.0545  0.2454 -0.1908
 9830W        W23244  11.618  13.986   1.589  0.1812 -0.0949  0.0968
 9831W        W23245  17.164   0.441   5.183 -0.1637  0.1038  0.0073
 9832W        W23246   7.530   5.980  13.911 -0.2149 -0.0846  0.0142
 9833W        W23247   0.153   5.475   0.327  0.0417 -0.0250  0.0978
 9834W        W23248   4.202  12.365  12.057 -0.5911 -0.1528 -0.0247
 9835W        W23249  15.897   4.928  14.031 -0.1940 -0.0796 -0.2825
 9836W        W23250  12.454  14.912  13.850 -0.0826  0.0031 -0.3093
 9837W        W23251  16.709  16.172   1.776  0.3864 -0.0368  0.2028
 9838W        W23252  16.487  13.064   2.256 -0.1246 -0.0575  0.2103
 9839W        W23253   4.252  13.948   3.997  0.1454  0.1522  0.0973
 9840W        W23254   6.730  14.030   1.898  0.1196 -0.0000 -0.0531
 9841W        W23255  16.007  12.458   3.936 -0.1881 -0.0142 -0.0693
 9842W        W23256   0.824  12.638  13.585 -0.3920 -0.1446  0.0775
 9843W        W23257  14.028  18.079  14.459 -0.1467  0.1655  0.1213
 9844W        W23258  17.550  18.104  16.359  0.1657  0.2170 -0.0670
 9845W        W23259   6.226  13.796  10.770 -0.1612 -0.1549  0.0001
 9846W        W23260   9.387   0.382   1.124  0.1799  0.1587 -0.1201
 9847W        W23261   1.232  12.922  12.888  0.0919  0.3829  0.0031
 9848W        W23262  17.013  12.340  14.517  0.1381 -0.2401 -0.3598
 9849W        W23263   6.724  15.532  15.377 -0.1171 -0.0273  0.2531
 9850W        W23264   6.394  12.887  11.283 -0.0849 -0.0332  0.2760
 9851W        W23265  17.741   2.025  14.216 -0.2009  0.2470 -0.2114
 9852W        W23266   7.526  13.892   0.921 -0.0790 -0.1369 -0.2005
 9853W        W23267  10.704   5.454  10.927  0.1653 -0.3877 -0.0261
 9854W        W23268   2.895   8.286  15.971  0.2467 -0.0832 -0.0153
 9855W        W23269  16.226  18.243  13.108 -0.0881  0.0383  0.3355
 9856W        W23270  14.712  16.740   1.558  0.2055 -0.0132 -0.4543
 9857W        W23271   9.432   1.016  15.678  0.3149  0.0341 -0.1009
 9858W        W23272  11.722   1.696   4.959 -0.3166  0.1174  0.1437
 9859W        W23273  12.406   8.322  14.607  0.0161  0.0612 -0.1039
 9860W        W23274  11.911   1.188  13.195 -0.0176  0.0320 -0.1589
 9861W        W23275   5.705  15.468   4.671 -0.2870  0.1292  0.1414
 9862W        W23276   5.640  13.393  15.534 -0.0727  0.2132  0.2857
 9863W        W23277   2.747   1.060  13.001 -0.3623  0.1304 -0.2658
 9864W        W23278   7.717   2.832  12.988  0.2905 -0.1689 -0.2213
 9865W        W23279  17.294  14.509   4.870  0.1360  0.0838  0.1965
 9866W        W23280   7.363   0.044  13.117 -0.0398 -0.0294  0.4791
 9867W        W23281  13.891   3.343  14.840  0.2361  0.0101 -0.1080
 9868W        W23282  15.853  10.452  13.835 -0.1710  0.0187 -0.0484
 9869W        W23283   2.550   0.303   4.223  0.2298 -0.0926  0.0931
 9870W        W23284  16.167  17.354  15.227  0.1569  0.0730 -0.0253
 9871W        W23285  13.983   0.659  16.114 -0.1022  0.0772 -0.1183
 9872W        W23286  14.399   8.217  13.642  0.1388 -0.0796  0.1434
 9873W        W23287  18.240   3.267  14.623 -0.1132  0.0764 -0.3772
 9874W        W23288   0.377   8.752  14.011 -0.1248 -0.4478 -0.2303
 9875W        W23289   9.701   6.486   3.493  0.0711 -0.2753 -0.0263
 9876W        W23290   7.884  12.490   5.701 -0.1669 -0.2109  0.0644
 9877W        W23291  16.320   2.074   1.305 -0.0582  0.0243 -0.1163
 9878W        W23292   7.760  13.065  12.816  0.1499 -0.0543  0.2298
 9879W        W23293   3.536   5.081   0.341  0.1571 -0.1126 -0.0919
 9880W        W23294  11.405  11.394  11.399 -0.1115  0.1898  0.2229
 9881W        W23295   1.434  10.473   5.073 -0.0810  0.0815 -0.0092
 9882W        W23296   9.747   7.289  11.751  0.0343  0.0474  0.1361
 9883W        W23297   4.159   4.395  16.112  0.2860 -0.1638  0.2656
 9884W        W23298   2.729   1.241   0.184  0.2698 -0.1127 -0.3170
 9885W        W23299  16.425   1.023   3.473 -0.5456  0.0792  0.0053
 9886W        W23300  14.202   7.588  12.193  0.4511 -0.0457 -0.1287
 9887W        W23301   1.354   7.771   2.155 -0.3415 -0.3540  0.2915
 9888W        W23302  10.438  15.432   1.900  0.2795 -0.1840 -0.1152
 9889W        W23303   6.166  11.390  14.776  0.0288  0.1372 -0.2740
 9890W        W23304  13.394   9.669  14.411  0.1315  0.0615  0.2339
 9891W        W23305   4.174  11.924   1.245  0.0525 -0.2078  0.2454
 9892W        W23306   7.585   8.263  10.383 -0.1507  0.0729 -0.0061
 9893W        W23307   4.847   6.039   3.238 -0.1550 -0.3213  0.2348
 9894W        W23308   5.959   2.239   4.442 -0.0757 -0.2894 -0.1821
 9895W        W23309  15.841   3.304  13.062 -0.0357 -0.0446  0.0874
 9896W        W23310  14.358   2.577   3.873  0.1065  0.1401 -0.1952
 9897W        W23311  13.818  15.906   0.117  0.0821 -0.0515  0.1816
 9898W        W23312  17.037   5.388   2.230 -0.2448  0.2557 -0.1993
 9899W        W23313  16.648  11.782  12.742 -0.1381  0.3253 -0.1840
 9900W        W23314  16.552   1.255  12.944  0.0013 -0.1577 -0.0256
 9901W        W23315   0.984  12.314   4.943  0.1107 -0.2403 -0.0150
 9902W        W23316   4.271   7.005   3.387 -0.0725  0.1766  0.1026
 9903W        W23317   2.946   2.760   5.436 -0.0252  0.0519 -0.1058
 9904W        W23318  12.171   7.146   3.023 -0.2078  0.1845 -0.3345
 9905W        W23319   2.248   6.730  10.589 -0.0961 -0.0303 -0.1472
 9906W        W23320   1.814   7.991  16.353 -0.2270 -0.2840 -0.0721
 9907W        W23321  14.651  16.368  15.740 -0.0594  0.0775 -0.4987
 9908W        W23322   8.978  15.365  11.582  0.2544  0.2242 -0.0187
 9909W        W23323  15.634   8.511  13.416 -0.1277  0.1995  0.1289
 9910W        W23324  16.057   8.827   6.083  0.1674  0.0424  0.1665
 9911W        W23325   0.784   7.107   2.219  0.0168 -0.0532 -0.0544
 9912W        W23326   6.211   8.840  15.801  0.1349  0.0651  0.0316
 9913W        W23327   6.350   7.232   2.501  0.0191  0.0593  0.0603
 9914W        W23328   9.516   3.677   2.857 -0.0124  0.0120 -0.3598
 9915W        W23329  16.691  14.793  12.959 -0.0260  0.3407 -0.0823
 9916W        W23330   0.686  13.326  14.141  0.1383 -0.1375 -0.0062
 9917W        W23331  10.735   5.477  14.251  0.1220  0.2691  0.3561
 9918W        W23332  10.623   8.937   4.267  0.0568 -0.1654 -0.5323
 9919W        W23333   4.417   4.042   1.300 -0.1170  0.2754 -0.2158
 9920W        W23334   6.213  17.151   3.064 -0.0757  0.1107 -0.3624
 9921W        W23335  15.367  13.545  16.261  0.2533  0.0444 -0.1179
 9922W        W23336  10.525   5.305   3.905 -0.0960  0.1131 -0.2218
 9923W        W23337   9.127   7.674  16.110 -0.0573 -0.1541 -0.2111
 9924W        W23338  14.265  11.952  14.474  0.2223  0.1243 -0.0473
 9925W        W23339  15.963   0.380   0.304 -0.1085 -0.1608  0.1020
 9926W        W23340   6.886   0.885  11.656 -0.0138 -0.1336  0.1028
 9927W        W23341  18.202   8.108  10.325  0.1964  0.2458 -0.2748
 9928W        W23342  11.257   1.496   5.129 -0.2545 -0.3643  0.1755
 9929W        W23343  17.302  15.042   1.179  0.0619  0.0555  0.0000
 9930W        W23344   2.081   0.468  15.609 -0.2493 -0.1179  0.1876
 9931W        W23345   6.500   4.328  12.792  0.0141 -0.4343  0.2066
 9932W        W23346   8.418   7.935   2.721  0.1096 -0.1570 -0.1230
 9933W        W23347   2.951   4.367   1.888 -0.1078 -0.2546  0.0452
 9934W        W23348   3.673   3.201   3.500 -0.1866 -0.1637 -0.1637
 9935W        W23349  13.615  11.852  11.667  0.0907 -0.1051 -0.0724
 9936W        W23350   1.906   5.330  11.638 -0.4309  0.0818  0.0767
 9937W        W23351  15.187  15.367  16.024 -0.3014 -0.0211 -0.1118
 9938W        W23352  16.909  16.063  13.633  0.0737  0.2111 -0.2222
 9939W        W23353  11.851  11.216   4.171 -0.1033 -0.0809 -0.1351
 9940W        W23354   2.295   2.576  15.101  0.1131 -0.2999 -0.1010
 9941W        W23355  12.871   5.709   3.915 -0.0246 -0.0198 -0.1725
 9942W        W23356   3.110   6.507  16.038 -0.0340 -0.2291 -0.0688
 9943W        W23357   9.242   7.710  11.927 -0.2214 -0.1263 -0.1326
 9944W        W23358  17.345  16.391   0.748  0.0852  0.0308  0.2631
 9945W        W23359  10.031  11.826   1.734  0.0142  0.1032  0.0095
 9946W        W23360  11.354   2.919  15.869 -0.0665 -0.1970  0.1249
 9947W        W23361   7.199   5.999   1.241  0.0275 -0.2432  0.1520
 9948W        W23362   6.672   3.369   4.051 -0.1235 -0.1580 -0.3807
 9949W        W23363   5.275   8.698  10.796  0.1042 -0.2403  0.0255
 9950W        W23364   6.549   1.304   4.547 -0.1109  0.3215 -0.0719
 9951W        W23365   4.051   5.185   0.384  0.0662  0.3030  0.1648
 9952W        W23366   3.465  11.393  16.464 -0.1571  0.0336  0.0753
 9953W        W23367   2.105  12.229   0.170  0.0447  0.1143 -0.2034
 9954W        W23368   8.419   0.543   1.263  0.0592 -0.2262  0.1304
 9955W        W23369  18.211   5.590   2.584  0.0837 -0.1368 -0.1222
 9956W        W23370   3.416   3.811  14.796  0.0534  0.0323  0.2114
 9957W        W23371  13.871   6.035   5.261 -0.2570 -0.0668  0.1325
 9958W        W23372   2.751  12.705   5.091 -0.0504 -0.2508  0.0861
 9959W        W23373  12.141  14.279  14.399  0.4265 -0.1578 -0.1121
 9960W        W23374  14.626   5.422   2.965  0.2254 -0.0309  0.2593
 9961W        W23375  16.083  14.711  11.946 -0.0251  0.3170  0.0295
 9962W        W23376  14.664   6.459  10.769 -0.0638  0.3232 -0.1859
 9963W        W23377  15.569   8.531   3.667 -0.0804  0.2441 -0.4127
 9964W        W23378  14.670  12.095   3.187  0.3721 -0.1525  0.0181
 9965W        W23379  11.239  12.751  14.053 -0.4523 -0.0032 -0.0497
 9966W        W23380  14.044   8.802  12.456 -0.0941  0.1238  0.0666
 9967W        W23381   1.742   8.646  15.277 -0.2096  0.0769 -0.1611
 9968W        W23382  12.520  14.817   4.446  0.0884 -0.1340  0.3580
 9969W        W23383  11.676   8.921  13.690  0.1691  0.0114 -0.1519
 9970W        W23384   3.291  13.935   4.577 -0.0197  0.0625 -0.0555
 9971W        W23385  13.240   0.718   1.461  0.0438  0.0784  0.0623
 9972W        W23386   3.544  10.993   4.441 -0.3716 -0.1032  0.0424
 9973W        W23387  12.760   4.329  12.727 -0.1139  0.0689 -0.3218
 9974W        W23388  16.456   2.864   1.519 -0.0070  0.0533 -0.0420
 9975W        W23389  18.284  12.126  16.265  0.0367 -0.2720  0.1245
 9976W        W23390   2.461   2.917   0.372 -0.0885  0.3051 -0.0466
 9977W        W23391   5.813   3.141   3.626  0.2744  0.2427 -0.0684
 9978W        W23392  15.408  16.087   1.393  0.0815 -0.4254 -0.0489
 9979W        W23393  11.225  12.615   5.191 -0.3181  0.5724  0.1347
 9980W        W23394   7.731  13.394   3.082  0.0050  0.1872  0.1317
 9981W        W23395   0.139   3.782   2.470  0.0388  0.1501 -0.2903
 9982W        W23396   2.244   1.462  13.599  0.0215 -0.0271  0.1985
 9983W        W23397   8.271   5.719   4.015  0.2243  0.4058  0.1726
 9984W        W23398  11.233  12.254   5.493  0.0745  0.0223  0.2583
 9985W        W23399   0.743   8.381  15.632  0.0617  0.3923  0.2031
 9986W        W23400  17.590   7.506  15.907  0.0091 -0.0191 -0.0539
 9987W        W23401   3.853  12.231   3.146 -0.1302 -0.0480 -0.1154
 9988W        W23402   4.245   5.222   4.795 -0.1378  0.0382  0.1544
 9989W        W23403  18.207  12.140   3.527  0.0486 -0.3186  0.3014
 9990W        W23404  12.299   4.707  11.999  0.3853 -0.1333 -0.1558
 9991W        W23405   6.594   7.971  13.692  0.1798  0.2236 -0.3445
 9992W        W23406   8.015   1.145   5.724 -0.1413  0.1506  0.1447
 9993W        W23407   6.049  13.347   1.391 -0.1438  0.1396 -0.1076
 9994W        W23408  17.111   1.661  14.937 -0.1368  0.0314  0.0035
 9995W        W23409   5.981   2.508   0.933 -0.0901  0.2612  0.2319
 9996W        W23410  10.070  15.478   1.430  0.1914 -0.0291  0.0272
 9997W        W23411   1.970  17.201  15.763  0.0716  0.1528 -0.3330
 9998W        W23412  13.137  15.337   5.765 -0.2000 -0.2811  0.0969
 9999W        W23413  16.553   0.246  13.402  0.0797 -0.2391 -0.1154
10000W        W23414   8.530  13.212  10.795  0.1615 -0.3058 -0.0542
10001W        W23415   4.747  10.480   2.509  0.3118 -0.3743 -0.3200
10002W        W23416  11.366  11.870  12.371  0.0173 -0.0116  0.0751
10003W        W23417   2.142   1.362  11.320  0.0374 -0.0430 -0.0153
10004W        W23418  17.977   3.818   1.825 -0.0115  0.2979 -0.1815
10005W        W23419   8.151   6.979  10.983  0.0584  0.1535  0.5320
10006W        W23420   0.863   7.746  12.898  0.2078  0.2056 -0.0932
10007W        W23421  10.738   1.816  14.524  0.0294  0.0178 -0.0873
10008W        W23422   2.709  13.482  14.314 -0.2230 -0.0586  0.1415
10009W        W23423   8.826  15.081   5.519  0.1104  0.2375  0.1473
10010W        W23424  13.709   3.463  16.362  0.2490 -0.0743  0.0747
10011W        W23425   2.540  15.928  13.013  0.0254  0.0550  0.1022
10012W        W23426   8.959   9.249   4.230  0.1767  0.0547 -0.1278
10013W        W23427  17.421   5.163  11.858 -0.1012  0.4025  0.0868
10014W        W23428   2.142   8.864  14.383  0.0320  0.1794 -0.1569
10015W        W23429  13.181  14.474   1.501  0.1603 -0.0904 -0.1495
10016W        W23430  15.977  15.390   0.625  0.0819 -0.1926  0.1644
10017W        W23431   8.279   6.286  14.932  0.0426 -0.0653  0.2542
10018W        W23432   1.508  15.930  16.112 -0.0053  0.0040  0.1028
10019W        W23433  12.982  14.975  12.370 -0.1128 -0.2219 -0.4228
10020W        W23434   3.290   7.019  11.086  0.2151 -0.0677  0.0009
10021W        W23435  10.762   6.566   2.766 -0.1314 -0.3834 -0.0840
10022W        W23436  12.669  11.145   2.103 -0.1778 -0.1099  0.0458
10023W        W23437  11.424   5.736  11.490 -0.2724 -0.2517 -0.1408
10024W        W23438   7.163   1.053   3.256  0.0369  0.1082  0.0356
10025W        W23439  13.292  16.610  15.075  0.3366  0.2164 -0.1422
10026W        W23440   8.768   0.988  15.670 -0.2864  0.3353 -0.0633
10027W        W23441  11.957  16.281  15.199  0.0021  0.1314  0.1320
10028W        W23442   2.086   6.250   0.993 -0.1543  0.0052 -0.5090
10029W        W23443  11.342   9.340  12.287 -0.0877  0.0504  0.3214
10030W        W23444  15.227  11.996   5.690 -0.0984  0.1564  0.0458
10031W        W23445  17.596  15.315   0.190  0.3777 -0.0408 -0.2327
10032W        W23446   5.152   8.113  14.196  0.0894  0.0008 -0.1365
10033W        W23447   5.838  10.693  11.424  0.0101  0.1184  0.0434
10034W        W23448   9.654   7.714   5.659 -0.0581  0.0087 -0.0481
10035W        W23449  14.881   9.147   2.941 -0.2741  0.1812  0.0672
10036W        W23450  18.271  14.828   6.095  0.2081 -0.3080  0.1637
10037W        W23451   8.577  10.923   2.992 -0.0299 -0.1515  0.3036
10038W        W23452   2.353   9.821  13.385  0.0207 -0.0949  0.2407
10039W        W23453   0.558   8.967   0.409  0.0316  0.2451 -0.3673
10040W        W23454  14.249  16.468  14.844 -0.0992  0.1857  0.0043
10041W        W23455   1.728  14.934  15.771 -0.1694  0.0464  0.0185
10042W        W23456  10.672   9.061  16.078  0.3999 -0.2005 -0.0901
10043W        W23457  17.258  14.259   5.317  0.0291 -0.0300 -0.2237
10044W        W23458   8.803   9.924  14.502 -0.1902  0.0380  0.0928
10045W        W23459   4.799  11.445  15.454 -0.0758 -0.1898  0.3796
10046W        W23460  11.937   9.644   5.259  0.1690 -0.0110  0.1393
10047W        W23461   7.730  11.554  15.520  0.1853  0.1540 -0.0274
10048W        W23462  15.662  16.270  12.777  0.0914  0.0434  0.0041
10049W        W23463  11.420   7.567   3.693  0.1807 -0.1631  0.1244
10050W        W23464   3.748  14.017   4.205  0.1672 -0.1765 -0.0738
10051W        W23465   6.239   9.825   3.145  0.2260  0.2575  0.1253
10052W        W23466  15.353   0.308  13.102  0.1183  0.1059 -0.0439
10053W        W23467   6.890  11.442  12.318 -0.3659  0.1382 -0.0183
10054W        W23468   4.917   6.471   4.881  0.2346 -0.1276  0.1349
10055W        W23469   6.801   0.514  14.198 -0.0460 -0.2010 -0.1928
10056W        W23470   6.300  15.748  11.987 -0.1934  0.1159  0.0853
10057W        W23471   2.027   4.443   4.966 -0.3551  0.1760  0.0414
10058W        W23472  11.996   4.109   3.445  0.0615 -0.1596  0.2567
10059W        W23473   6.955   8.667  13.923  0.0074 -0.4702  0.0176
10060W        W23474   0.258  18.099  14.046  0.2324 -0.2075  0.0315
10061W        W23475  11.343   6.975  11.142  0.0688  0.0800  0.0800
10062W        W23476   4.002  12.621   1.704 -0.1486  0.2875 -0.0795
10063W        W23477   2.534  10.069   4.447  0.0146  0.1061  0.0650
10064W        W23478  12.991   5.641   5.028 -0.1769 -0.1493 -0.0522
10065W        W23479   7.066   3.920  13.358 -0.0204 -0.1346  0.1774
10066W        W23480   6.084   6.564  10.467  0.0528  0.1807  0.1986
10067W        W23481   0.766  12.137  16.498  0.1345  0.3123 -0.1017
10068W        W23482  12.235   0.838   4.738 -0.1111  0.0676  0.0138
10069W        W23483  14.371   7.410   5.179  0.1148  0.0125 -0.0858
10070W        W23484   2.604   9.963   1.094 -0.4434  0.2822  0.3285
10071W        W23485  16.028   8.830  10.965 -0.0710 -0.1803 -0.1328
10072W        W23486   8.099  13.198  13.233 -0.2067 -0.1501 -0.1034
10073W        W23487   9.439  17.886   0.966 -0.1261  0.3150  0.0243
10074W        W23488   7.955   0.216   1.146 -0.0663 -0.0358  0.1974
10075W        W23489   7.040   3.693   5.622  0.2082  0.3050  0.2997
10076W        W23490  12.524  10.943   3.063 -0.0991  0.3202  0.2150
10077W        W23491   3.253  16.454   2.110  0.1811  0.0129  0.1577
10078W        W23492  12.548  14.338  13.010 -0.0025  0.1590  0.1012
10079W        W23493   2.268  10.006   4.051  0.0665  0.1094  0.1872
10080W        W23494   5.197   9.667  14.943 -0.3197  0.1130  0.1294
10081W        W23495   5.385   9.372   6.034 -0.2546  0.0918 -0.1746
10082W        W23496   4.608   9.328   3.322 -0.0129 -0.0345  0.2812
10083W        W23497  15.644   9.042  11.467  0.1246  0.1848 -0.0394
10084W        W23498   1.844   6.385   4.269  0.0290  0.0857  0.1683
10085W        W23499  17.232   6.547   0.564  0.0144 -0.2657  0.2803
10086W        W23500  11.964   5.308  13.413  0.0306  0.2843 -0.0552
10087W        W23501   4.691  13.498   5.193 -0.0314 -0.3271  0.1358
10088W        W23502   4.923  17.153  12.830  0.1184 -0.1002 -0.1150
10089W        W23503  16.105   9.080   9.843 -0.0029  0.1601  0.2122
10090W        W23504  13.085   8.352  14.046  0.0920  0.1813 -0.2474
10091W        W23505  14.426   0.815  15.593  0.2162  0.0274 -0.2729
10092W        W23506   5.670   8.176  14.154 -0.1553 -0.1924 -0.2640
10093W        W23507  14.907   6.565   3.872  0.3087 -0.4116 -0.2080
10094W        W23508   4.960  14.327   2.502 -0.1069  0.0788  0.3384
10095W        W23509   9.335  11.428   5.515 -0.3661 -0.2922 -0.1934
10096W        W23510   1.924  16.758  12.231 -0.0631 -0.0680 -0.1738
10097W        W23511  15.363   8.996  10.595  0.2898  0.1894 -0.0090
10098W        W23512   2.518   8.176  13.006 -0.0054  0.1101  0.2365
10099W        W23513  13.376  15.268  12.216 -0.0033  0.1075 -0.0146
10100W        W23514   6.958  11.161   1.192  0.0104  0.1157 -0.2777
10101W        W23515  11.570   2.031   1.662  0.1659  0.2004 -0.5191
10102W        W23516   1.060  11.917  11.146 -0.0450  0.1408  0.0783
10103W        W23517   7.799   3.876   2.780  0.1502  0.0012  0.0487
10104W        W23518  14.320   4.378  12.570  0.2186 -0.2588 -0.2198
10105W        W23519  10.648   4.336   6.465 -0.1964 -0.2495 -0.4014
10106W        W23520  16.593   2.882  13.010  0.4006 -0.0735  0.0273
10107W        W23521  15.577  11.050  15.525  0.1266 -0.2551 -0.1542
10108W        W23522   0.742  16.541   5.048  0.2213 -0.0595 -0.1703
10109W        W23523   1.401   7.181  12.120 -0.1655  0.1284  0.2138
10110W        W23524   2.240   8.424   0.254 -0.0094 -0.0457 -0.0959
10111W        W23525   4.039   1.847  12.332 -0.3866  0.3233  0.0012
10112W        W23526  17.521  12.044   0.117 -0.0466 -0.3026 -0.1568
10113W        W23527  13.763   6.411   3.101 -0.0230 -0.0686 -0.1242
10114W        W23528   8.826   1.106  13.647 -0.0974  0.2603  0.1065
10115W        W23529   7.679   5.130   1.101  0.1656  0.3422  0.0389
10116W        W23530  16.163  16.514  10.979  0.3396  0.0083 -0.0235
10117W        W23531   6.923   2.442   3.634 -0.1700 -0.1564  0.2645
10118W        W23532  14.828   7.370   4.341  0.2739  0.0254  0.2574
10119W        W23533  13.107   8.691   1.988  0.1065 -0.0273 -0.0845
10120W        W23534  15.041   2.614  14.535 -0.0739 -0.0614  0.0772
10121W        W23535   2.403   7.169   3.700  0.0641 -0.2296  0.0665
10122W        W23536   3.666  12.802  11.093  0.1749  0.2330 -0.1068
10123W        W23537   2.345  11.618  14.807  0.0399 -0.1358 -0.0910
10124W        W23538  14.479  15.228   1.092 -0.0759  0.0161  0.3007
10125W        W23539  11.185   0.125   4.780 -0.0458  0.0616  0.0081
10126W        W23540   1.991   5.359  14.137  0.0274 -0.1683 -0.0279
10127W        W23541   3.977  10.092   2.764 -0.0805 -0.2410  0.0133
10128W        W23542   0.279  13.544   2.673  0.0748 -0.1791 -0.0946
10129W        W23543   0.209   9.469  10.499 -0.1318 -0.1825 -0.1407
10130W        W23544   5.937  16.875   0.507 -0.1985 -0.1075  0.2685
10131W        W23545  12.863  14.026   3.515  0.0575 -0.0205  0.2244
10132W        W23546   5.923  13.875  16.093 -0.0972 -0.3202 -0.1740
10133W        W23547   0.912   1.629   3.682  0.0929  0.2023  0.0893
10134W        W23548   9.947   3.138   2.206  0.1302  0.0766  0.1600
10135W        W23549  11.502   8.677   1.042 -0.0319  0.1231  0.1771
10136W        W23550  14.507  13.483  13.456 -0.0538 -0.0430  0.2506
10137W        W23551   5.158   3.716  10.085  0.2744 -0.1128  0.3104
10138W        W23552   3.213   9.821   5.732 -0.2340  0.1007  0.0381
10139W        W23553  15.631  14.887  15.111 -0.1288 -0.0367 -0.2056
10140W        W23554  14.864   3.260   4.893 -0.1834 -0.2946  0.1744
10141W        W23555  17.377   6.872  10.868 -0.0457  0.0670 -0.0221
10142W        W23556   9.601   3.726  15.693  0.0497 -0.0893  0.0915
10143W        W23557  16.944   5.273  11.529  0.0903 -0.0315 -0.1927
10144W        W23558   5.481   0.212  11.955  0.0131  0.2626 -0.0985
10145W        W23559   9.236   0.820  12.003  0.1783  0.0804 -0.0907
10146W        W23560   6.952   3.437   3.626 -0.0524 -0.2748 -0.1552
10147W        W23561  12.228   6.610   3.522  0.1457 -0.2834  0.1879
10148W        W23562  17.812   8.118   3.709 -0.0975 -0.0095  0.0115
10149W        W23563   5.182  18.014   0.622 -0.1039  0.0714 -0.1756
10150W        W23564   2.117   1.791   2.959  0.0865 -0.0280 -0.2396
10151W        W23565  13.043  18.013   2.107  0.0735 -0.3990  0.4254
10152W        W23566  15.418   3.330  13.815  0.0727 -0.0999 -0.1023
10153W        W23567  17.915  14.349   3.110  0.2614 -0.1299  0.0506
10154W        W23568   9.167  12.894  13.156 -0.0049 -0.2948  0.1248
10155W        W23569   9.215   6.756  10.861  0.1586  0.2480 -0.3212
10156W        W23570   3.765   8.002  10.486 -0.4223  0.1161 -0.2628
10157W        W23571   3.214   3.338  10.997 -0.0361 -0.4673  0.1868
10158W        W23572   4.240  11.939   0.092  0.0191  0.2675  0.0485
10159W        W23573  12.138   5.443   0.601 -0.1056  0.3915 -0.0647
10160W        W23574   7.431  15.866   4.183  0.3002 -0.2372 -0.0564
10161W        W23575   6.356  10.174   1.936  0.0912  0.0756  0.2195
10162W        W23576   3.991  10.476  15.514 -0.1401  0.0257  0.3024
10163W        W23577   3.798  11.764   0.284 -0.0446 -0.0842 -0.0642
10164W        W23578  17.966   8.776  14.590 -0.0125  0.0153  0.2783
10165W        W23579  16.341   9.656  14.085 -0.2652 -0.3108  0.1836
10166W        W23580   0.354   1.425  15.505 -0.2229 -0.1323  0.4606
10167W        W23581  10.550   3.766   2.436  0.1226 -0.0643  0.0190
10168W        W23582  13.559   2.520  14.934  0.1742 -0.0353  0.1798
10169W        W23583   4.613   6.965   5.303  0.0569 -0.4480  0.3396
10170W        W23584   8.901  11.982   3.746 -0.0756 -0.0318 -0.0049
10171W        W23585  10.829   9.433  11.106  0.0053  0.0389  0.2649
10172W        W23586   9.477   4.066  15.016 -0.0959 -0.1716 -0.1981
10173W        W23587   1.607  16.441   0.362  0.0689 -0.1012  0.2028
10174W        W23588   8.730   2.526   4.507  0.0584 -0.1134  0.0087
10175W        W23589   4.849   9.090  14.883  0.3194  0.2202 -0.2284
10176W        W23590  10.364  16.589  16.171  0.4586 -0.2960 -0.0188
10177W        W23591   0.089   6.844   2.997  0.0503 -0.0640  0.2734
10178W        W23592  13.355  16.698   0.948 -0.0777  0.0573  0.0844
10179W        W23593   9.228  17.509   0.738  0.4057 -0.4790  0.2095
10180W        W23594   4.392   4.014  13.268 -0.1280  0.0148 -0.3879
10181W        W23595  14.376   2.590   5.249 -0.0836 -0.3368 -0.6143
10182W        W23596  12.781  12.434   4.194 -0.1190  0.1831  0.0605
10183W        W23597  17.256   1.414   4.214 -0.0409 -0.3294 -0.0651
10184W        W23598   8.067   8.247  15.425 -0.6061  0.0730  0.2250
10185W        W23599   0.321  16.675   4.823  0.3843 -0.1411  0.1796
10186W        W23600   1.650  13.823   2.599 -0.3803 -0.4371  0.0186
10187W        W23601   5.426   4.898  10.763  0.0202  0.2701 -0.0438
10188W        W23602   7.879  12.018  11.562 -0.2282  0.1052  0.0758
10189W        W23603   9.887   3.165   5.006  0.1449  0.3450  0.1135
10190W        W23604  15.657   7.206  12.167 -0.0033 -0.0423 -0.1672
10191W        W23605  13.454  17.070   0.242 -0.0915 -0.1560 -0.1060
10192W        W23606  16.804   0.191   2.613  0.0135 -0.0841  0.0254
10193W        W23607   0.041   9.520   5.298 -0.1621 -0.2699  0.3364
10194W        W23608   9.953  12.097  13.362 -0.0333  0.1359 -0.1896
10195W        W23609   4.016  13.303   3.264  0.0087  0.0531  0.3371
10196W        W23610   6.828   4.898  11.924  0.0347 -0.0030  0.0216
10197W        W23611  15.819  16.857  10.832 -0.1855  0.1522  0.2208
10198W        W23612  16.674   5.941   3.181  0.2320  0.0344  0.0440
10199W        W23613  16.531   9.476  14.643 -0.0950 -0.1594 -0.0418
10200W        W23614   1.553   6.714  14.434  0.1705 -0.2940  0.0180
10201W        W23615   0.662   4.381   1.477  0.1840  0.1545  0.0646
10202W        W23616  13.305   5.265  14.251 -0.1561 -0.5198  0.0006
10203W        W23617   4.301   4.178   5.478 -0.1170 -0.0417  0.2421
10204W        W23618  12.049   9.314   4.343  0.2723  0.2162  0.1052
10205W        W23619   4.149   5.667  14.587 -0.1287 -0.2884 -0.3357
10206W        W23620   8.210   7.297  14.368 -0.0027 -0.0731  0.2077
10207W        W23621   3.517   8.707  14.774  0.0318 -0.0308  0.4538
10208W        W23622  11.884  11.641  10.371  0.1598 -0.0223  0.3403
10209W        W23623  15.723   0.803  12.951  0.2244  0.0032  0.4027
10210W        W23624  10.650   9.421  13.010  0.0689  0.1909 -0.1322
10211W        W23625  18.022   6.569  10.469  0.2076  0.1179  0.1221
10212W        W23626  10.433   1.524   4.343 -0.1732 -0.1527  0.0804
10213W        W23627   2.176  14.771  14.288 -0.0075 -0.1686 -0.0215
10214W        W23628   1.227   3.463   3.382  0.2856 -0.0991 -0.0265
10215W        W23629  18.180  13.805   1.755  0.1873  0.3464  0.0085
10216W        W23630   2.754   3.488   4.387  0.1767 -0.2369 -0.2797
10217W        W23631  17.330  15.261  13.727 -0.1000 -0.0691  0.5053
10218W        W23632  12.408   1.769   3.484 -0.0777  0.2493 -0.2603
10219W        W23633  10.370   8.762   5.370 -0.2430 -0.2518  0.0450
10220W        W23634   6.192  15.544   0.729  0.2987 -0.0469 -0.1497
10221W        W23635   4.149   4.710  12.855 -0.0034 -0.1497 -0.1982
10222W        W23636   4.945   9.940   0.345 -0.3805  0.2844 -0.0225
10223W        W23637  13.010  15.988  13.789 -0.1749 -0.0929  0.0536
10224W        W23638   5.778  13.361   5.588 -0.1088  0.1278  0.1257
10225W        W23639  10.798  17.651  16.181 -0.2573 -0.4139  0.1128
10226W        W23640  12.813  15.964   1.017  0.3863  0.2546  0.0571
10227W        W23641   4.824  10.846   0.375 -0.0903  0.0551 -0.0349
10228W        W23642   7.192   3.986  10.376  0.2588 -0.1192 -0.2359
10229W        W23643   0.838   8.161   3.100 -0.0017  0.1781 -0.0308
10230W        W23644   2.416   8.886  11.861 -0.1944 -0.0294  0.1887
10231W        W23645   2.849   6.963  11.512  0.1768 -0.0047 -0.0352
10232W        W23646   3.838  16.356   6.655  0.1210 -0.2017 -0.1177
10233W        W23647  17.192   6.955  11.294 -0.1234 -0.0255  0.0425
10234W        W23648   6.911  17.133  13.461  0.4270 -0.2889 -0.3348
10235W        W23649   0.130   1.039  14.997  0.0364 -0.0837  0.0697
10236W        W23650  17.257   8.152   0.934 -0.1044  0.3083  0.1318
10237W        W23651   2.582   5.303   2.200 -0.2201 -0.1445 -0.1378
10238W        W23652   3.116   0.240   5.552  0.3313 -0.0901  0.0099
10239W        W23653   1.721   6.224   0.629  0.0377  0.0411  0.1592
10240W        W23654  11.139  14.110   2.641  0.0489 -0.1443 -0.2562
10241W        W23655  12.279  10.308  14.676  0.1272  0.1492 -0.1112
10242W        W23656   6.983   5.767   4.751 -0.4057  0.1310 -0.4262
10243W        W23657  12.775   5.065  15.373  0.0113  0.1320  0.4707
10244W        W23658   7.664   1.813  16.210 -0.2341 -0.2276 -0.2736
10245W        W23659  12.772   5.765   3.357  0.1818  0.0537 -0.3818
10246W        W23660   0.141  16.719  15.089  0.1596 -0.0147 -0.1480
10247W        W23661   0.365   3.486  10.083 -0.1175 -0.1585 -0.1717
10248W        W23662  17.009   7.132  12.352  0.3579  0.2428  0.0091
10249W        W23663   9.899   8.398  11.638 -0.0505  0.0084 -0.1383
10250W        W23664  12.112  11.378  13.605 -0.4634  0.3554  0.0075
10251W        W23665  11.077  13.732  15.855  0.0113  0.0871  0.0849
10252W        W23666   6.980  17.403   4.016 -0.3420  0.2045  0.0987
10253W        W23667   1.778  11.563  14.001  0.2914  0.1952  0.0497
10254W        W23668   4.651   7.577   0.131  0.1915  0.0317 -0.2090
10255W        W23669   8.092  10.444  11.021 -0.1564 -0.1680 -0.2402
10256W        W23670   8.130   8.376   4.483 -0.0400  0.1101 -0.1614
10257W        W23671   2.105  10.473   0.322  0.0701 -0.1174  0.1185
10258W        W23672  12.687   6.191  15.257  0.1130  0.0911  0.1667
10259W        W23673  17.399  14.770   6.922  0.1505  0.2270  0.1500
10260W        W23674   2.365  13.783  11.133 -0.0611  0.0887 -0.2491
10261W        W23675  16.173   3.106   4.674 -0.0589 -0.2036 -0.1980
10262W        W23676   7.403  13.022   5.735  0.1083  0.0145 -0.3485
10263W        W23677   7.224   4.743  13.949  0.1385  0.3367 -0.0613
10264W        W23678   7.846   5.537   3.698 -0.0297 -0.0415 -0.0835
10265W        W23679   1.423   6.113  14.046 -0.0628  0.3592  0.1591
10266W        W23680  15.786   4.649  11.466  0.0259 -0.1810 -0.2155
10267W        W23681   5.279  14.356   2.079  0.0078 -0.0528 -0.0434
10268W        W23682   3.663   4.181  11.871 -0.1717 -0.1981 -0.2883
10269W        W23683   1.788  16.169   5.211 -0.0829  0.0821 -0.0119
10270W        W23684  16.646  16.504   3.366  0.0371 -0.1544  0.2655
10271W        W23685  13.143   1.370   0.807 -0.1590 -0.2337 -0.0720
10272W        W23686  16.826   8.298   9.568 -0.0941 -0.3253  0.1903
10273W        W23687  11.601   3.003  14.623  0.1496 -0.1569 -0.4850
10274W        W23688  17.627   2.510  13.783  0.1408  0.0314 -0.1567
10275W        W23689   5.331   8.097  11.238 -0.1251  0.0386 -0.0125
10276W        W23690  16.070   5.485  14.264 -0.1983  0.2213 -0.1225
10277W        W23691   5.347  12.879   3.408  0.0443  0.0263  0.0286
10278W        W23692  11.131   0.471   0.363 -0.3124  0.0542 -0.1891
10279W        W23693  17.599  14.381  16.406 -0.1743  0.0115  0.0662
10280W        W23694  10.134   4.620  15.834 -0.1464  0.1831 -0.0927
10281W        W23695  18.043  16.933   3.932  0.1640  0.0350  0.3649
10282W        W23696  15.606  14.120   0.887 -0.0192  0.2038 -0.3517
10283W        W23697  17.598  14.109  12.838  0.2044 -0.0311  0.1505
10284W        W23698  15.777   5.148  10.622  0.1473  0.0566  0.0580
10285W        W23699   9.038  16.354  16.104  0.3968 -0.1420  0.1133
10286W        W23700  17.301  15.115  14.568  0.1058  0.0269 -0.1001
10287W        W23701   1.014  15.603  13.731  0.1001 -0.2121  0.0827
10288W        W23702   2.444  18.052  12.304  0.0862 -0.1543 -0.0799
10289W        W23703   5.810  16.373  14.027  0.0273  0.1872 -0.0372
10290W        W23704  10.811  14.153   0.848 -0.0158 -0.0023 -0.0797
10291W        W23705   0.558   0.328   0.779  0.1980  0.2706 -0.2732
10292W        W23706  10.332   5.091  12.965 -0.0688 -0.2123 -0.2502
10293W        W23707  12.089  15.844   5.834  0.1143  0.2330  0.0445
10294W        W23708   3.080  10.293  13.641  0.1206  0.2853 -0.0418
10295W        W23709  10.696  10.122  12.439  0.0676  0.2036 -0.1543
10296W        W23710   7.554  15.914   2.106 -0.1214  0.2298  0.1645
10297W        W23711   3.268   2.766   2.722 -0.2301 -0.2538  0.2192
10298W        W23712  15.469   2.750  11.350 -0.0154  0.0778 -0.1342
10299W        W23713  14.013   8.498  11.126  0.1775  0.2804  0.1465
10300W        W23714  15.491  12.932  12.177 -0.1079 -0.2985  0.1208
10301W        W23715   2.254  11.505   4.051 -0.1703 -0.1805 -0.0791
10302W        W23716   4.115   7.630  11.910  0.4056  0.2455 -0.2811
10303W        W23717   6.921   8.755   1.669 -0.0837 -0.2032 -0.2854
10304W        W23718  15.987   8.295   0.487  0.4130 -0.0288  0.2767
10305W        W23719   1.858  15.922   2.304  0.1065  0.1652 -0.0089
10306W        W23720   3.616   3.116   2.576  0.0541 -0.1531  0.2652
10307W        W23721   7.184   2.440  13.544 -0.0346  0.1756  0.1247
10308W        W23722   0.499   2.038   2.367 -0.1490  0.0960 -0.1971
10309W        W23723  18.121  17.830   3.762 -0.1104  0.3155  0.2195
10310W        W23724   9.943  12.509  14.332 -0.0740  0.1290  0.3103
10311W        W23725   6.238  15.361  13.595 -0.1223 -0.0765  0.2284
10312W        W23726   1.538   5.293  13.420 -0.3683 -0.0309 -0.0496
10313W        W23727   6.748   0.105   1.763  0.0480 -0.0786  0.0944
10314W        W23728  15.404  11.584   1.258  0.0056  0.1670  0.1968
10315W        W23729  16.358  10.043   3.941 -0.2293 -0.0467 -0.0305
10316W        W23730   3.970  15.933   1.207  0.0879  0.2289 -0.0039
10317W        W23731   1.163   3.667  12.145 -0.2194 -0.2308  0.0028
10318W        W23732  10.081  11.313  14.024  0.0157  0.2635 -0.2951
10319W        W23733   7.027   5.390  14.670  0.3467 -0.0621  0.0229
10320W        W23734  14.818   8.299   4.381 -0.1263  0.1110 -0.1568
10321W        W23735  11.554   1.909  14.384 -0.1091 -0.0913  0.0019
10322W        W23736   2.976   5.273   2.654 -0.0590  0.2473 -0.0805
10323W        W23737   2.423   0.411   2.113  0.0912 -0.2482 -0.0913
10324W        W23738  12.633  17.340   4.244 -0.4354  0.1230 -0.2913
10325W        W23739  12.483   4.005   2.426  0.0219  0.2140 -0.0117
10326W        W23740  10.602   0.819   4.271  0.3058 -0.1674 -0.0574
10327W        W23741  14.573  11.149   1.002 -0.1095  0.0557  0.1079
10328W        W23742  15.080  15.377   3.386  0.0285  0.0198  0.1192
10329W        W23743   3.802  12.552   3.548 -0.0206 -0.1215  0.0812
10330W        W23744   0.229  11.306  11.360  0.2053 -0.1430  0.1602
10331W        W23745   0.008   4.849   3.891  0.0443 -0.0738 -0.1340
10332W        W23746  10.728   3.161  14.649  0.1580  0.1464 -0.0398
10333W        W23747  10.417   7.415  13.465 -0.0638 -0.0531 -0.2006
10334W        W23748   7.421   6.379  12.118  0.0450  0.0163  0.1238
10335W        W23749   3.762  12.788  14.004 -0.0332  0.2302 -0.3835
10336W        W23750  13.645  14.835  12.105  0.0123  0.0463  0.2185
10337W        W23751   2.236   3.445   1.193  0.0891 -0.0563 -0.0257
10338W        W23752  17.989   5.377  15.130 -0.0257  0.0006 -0.3849
10339W        W23753  14.081  13.683   0.175  0.1240 -0.1940  0.1606
10340W        W23754   6.978  16.316   1.468 -0.2016  0.3138  0.0691
10341W        W23755  15.000   7.905   0.555 -0.1674  0.0413 -0.1096
10342W        W23756  14.174   3.745   4.794  0.1597  0.0743  0.0031
10343W        W23757   7.995   5.787  14.032 -0.0537 -0.0190  0.1440
10344W        W23758  15.183   7.762  13.361 -0.1448  0.0666 -0.2509
10345W        W23759   7.648   0.610   4.449  0.0291  0.0186 -0.1622
10346W        W23760  14.020   0.673   4.399  0.1503  0.0705  0.0598
10347W        W23761  16.061   9.292  11.235  0.2016  0.3206 -0.0279
10348W        W23762   3.611   4.492   5.056 -0.3296  0.3760 -0.2198
10349W        W23763  18.048  14.581   5.702 -0.1411 -0.4389 -0.1532
10350W        W23764  12.518   7.324  15.573  0.1059  0.0951 -0.4541
10351W        W23765   4.238  15.326   4.646 -0.0985  0.2506 -0.3612
10352W        W23766  10.402  14.687   0.830 -0.1543  0.1034 -0.2199
10353W        W23767   7.903  17.264  15.065  0.0101  0.3888  0.1052
10354W        W23768   4.262  12.099   5.637  0.0490  0.0681 -0.0006
10355W        W23769   3.718  11.279   4.105  0.1454  0.2319 -0.2171
10356W        W23770  16.878  12.338   0.267  0.0961 -0.1396  0.0010
10357W        W23771  12.494  15.364  11.758 -0.1080  0.0913 -0.0782
10358W        W23772   6.005   4.758  11.475 -0.0530 -0.3052 -0.1772
10359W        W23773  18.033   6.511  13.109  0.3560 -0.5224  0.0965
10360W        W23774   1.874  15.667   6.237 -0.4094 -0.0312  0.1307
10361W        W23775  14.217   9.010  13.455  0.0362  0.1572  0.0002
10362W        W23776   7.717  14.006  15.214 -0.0982  0.2830  0.3032
10363W        W23777  13.557  15.280  15.811  0.0871  0.1619 -0.1257
10364W        W23778   6.556  16.677   6.687 -0.2849 -0.2125 -0.0516
10365W        W23779   8.979  14.190   4.405 -0.0526  0.2708  0.1947
10366W        W23780   7.352   3.866   1.471  0.0283  0.0515  0.0148
10367W        W23781   0.107   7.474  10.331 -0.1089  0.1699  0.2636
10368W        W23782   9.249  15.264  12.903  0.3570 -0.0930  0.0530
10369W        W23783  17.685   7.285   2.316 -0.0054  0.0636  0.2720
10370W        W23784   1.942   2.390  15.421 -0.0439 -0.0196  0.0794
10371W        W23785   2.420  18.071   0.567 -0.3636 -0.0335  0.0335
10372W        W23786  15.074   1.549  12.676 -0.3558 -0.1094  0.0675
10373W        W23787   3.105  15.192  13.375  0.2434 -0.0941 -0.2061
10374W        W23788  15.723  13.088  13.700  0.0359  0.0235  0.0341
10375W        W23789  13.147   9.498  13.832  0.1777 -0.2760 -0.0955
10376W        W23790   9.899   5.340   5.396  0.0044 -0.0547 -0.1657
10377W        W23791  15.607  14.667  16.257  0.0374  0.1729 -0.0762
10378W        W23792   4.917   2.115   0.086  0.4429 -0.2385  0.0705
10379W        W23793  12.352   3.895  12.651 -0.1140  0.1462 -0.2306
10380W        W23794   5.850   7.752  15.188 -0.0171 -0.2246 -0.2063
10381W        W23795   2.085  16.031  10.758 -0.1558  0.0363 -0.0390
10382W        W23796   5.100  14.296   4.579 -0.0453  0.1580  0.0040
10383W        W23797  18.207  11.016   2.061 -0.0341  0.1132  0.1054
10384W        W23798   7.479  17.207  12.838  0.0046 -0.0902  0.3107
10385W        W23799   9.493   6.796   0.438  0.0577 -0.1916 -0.0167
10386W        W23800   1.356  14.275   4.254 -0.2324  0.2183  0.0607
10387W        W23801   8.068   9.281   0.432  0.0916 -0.0886 -0.1602
10388W        W23802  15.215   7.657  10.422  0.1129  0.0483  0.2007
10389W        W23803  11.001   0.362  10.995 -0.0252  0.1715  0.0952
10390W        W23804   8.177   3.172   2.973 -0.1510 -0.1230  0.1316
10391W        W23805  12.116  11.523   1.126 -0.1384  0.0931  0.2454
10392W        W23806   2.386   7.822  13.397  0.0058 -0.1379 -0.0818
10393W        W23807   3.285   9.106  12.205 -0.2216 -0.0383 -0.3528
10394W        W23808   5.207   1.418  13.022  0.1888  0.0571 -0.0281
10395W        W23809  12.902   2.266  12.542 -0.0431  0.1459 -0.1495
10396W        W23810   7.034  12.677   4.097  0.0494 -0.3489 -0.2326
10397W        W23811   9.949   8.642   3.455  0.0406 -0.1214 -0.1122
10398W        W23812   6.535  14.711   1.073 -0.2220 -0.3346  0.0853
10399W        W23813   3.365  17.905   2.563 -0.2236  0.1332 -0.2190
10400W        W23814   4.791  18.262   0.849  0.1126 -0.1081  0.1501
10401W        W23815  15.716  17.559   6.403  0.0870  0.0027 -0.0256
10402W        W23816   8.282   9.051   3.007 -0.0965 -0.0752  0.4195
10403W        W23817  10.612  12.028   3.817  0.1209 -0.0474 -0.0805
10404W        W23818   8.125   6.432   1.201  0.1750 -0.0566  0.0939
10405W        W23819   4.622  14.294   3.621 -0.1177 -0.0463  0.0451
10406W        W23820  12.395   4.949   2.964  0.0922  0.1478 -0.2007
10407W        W23821   7.275  10.908  14.520  0.0767 -0.4050  0.0731
10408W        W23822   3.889  16.365   5.685 -0.2186  0.2930 -0.1216
10409W        W23823  15.621   9.529  10.435  0.1495  0.2630  0.0514
10410W        W23824   0.455   4.994  14.656 -0.0625  0.3476 -0.1117
10411W        W23825   6.928   1.522  16.012  0.1561 -0.0319  0.0107
10412W        W23826  11.266   8.948  11.886 -0.6117  0.0647 -0.2423
10413W        W23827   9.097   9.742  14.014 -0.1635  0.2299 -0.0921
10414W        W23828  11.057   2.124   0.439  0.0069  0.2871  0.2916
10415W        W23829   7.421  14.029  12.068 -0.1578 -0.1552  0.0574
10416W        W23830  18.242  12.805  15.521  0.0907 -0.0426 -0.0154
10417W        W23831  16.215   9.998  10.304 -0.1902  0.2488 -0.1117
10418W        W23832  13.185   2.696   2.856  0.0917 -0.6482  0.1918
10419W        W23833  14.658   4.022   0.302  0.1066  0.1047  0.4272
10420W        W23834  11.165   9.179  15.476 -0.1785 -0.0678  0.1036
10421W        W23835  13.493   6.358   4.552 -0.1396  0.3684 -0.0804
10422W        W23836  14.594  10.369   4.913  0.1949 -0.0207 -0.3083
10423W        W23837   6.321   7.747   4.854  0.2471  0.5585  0.1288
10424W        W23838   1.807  13.033   2.586 -0.1842 -0.3216  0.0785
10425W        W23839  10.617   9.815  16.512  0.1455  0.1836  0.0591
10426W        W23840   0.344  17.957   0.662 -0.1311  0.1076 -0.2211
10427W        W23841  14.124  11.974  10.722 -0.0317  0.1095  0.1989
10428W        W23842   4.462   1.185  12.145 -0.0932 -0.1251  0.1021
10429W        W23843   0.161  14.896   3.453  0.2161  0.0460  0.2468
10430W        W23844   0.777  11.566  10.349  0.2826 -0.1623 -0.0263
10431W        W23845   9.055   6.932   0.179 -0.0260  0.0349 -0.1429
10432W        W23846   2.717   7.479  15.596 -0.1398 -0.1505 -0.2775
10433W        W23847   5.494   4.024  16.225  0.1395  0.2533 -0.2868
10434W        W23848  17.472  15.284   5.508 -0.0910 -0.0467 -0.1973
10435W        W23849   8.624  12.659   0.778  0.1892 -0.3982 -0.1411
10436W        W23850   2.051   7.401   3.260 -0.0860  0.1185  0.3739
10437W        W23851   2.106   3.798  14.190  0.2189 -0.0033  0.4523
10438W        W23852   6.686  10.604  11.253  0.0744  0.0008  0.2926
10439W        W23853   8.943   2.286   2.745  0.1574  0.0284  0.0761
10440W        W23854   9.439  16.416  16.428 -0.2184 -0.1121  0.1744
10441W        W23855  15.662  16.919  13.423 -0.1553 -0.1058  0.2199
10442W        W23856  12.788   4.418   4.732  0.1045 -0.0646 -0.1064
10443W        W23857   9.675  15.628  13.126  0.1993 -0.1592 -0.1939
10444W        W23858   6.220   8.311  15.893 -0.2869  0.0149  0.1399
10445W        W23859  14.945   9.494   0.209  0.0532  0.0392 -0.1698
10446W        W23860  17.502  12.419   5.984 -0.1594 -0.0071  0.1476
10447W        W23861   6.929   7.848   4.333 -0.0277  0.0693 -0.4176
10448W        W23862   4.188   3.080   0.101 -0.2061  0.0346  0.1339
10449W        W23863   3.518   0.883   5.920  0.0615  0.3617 -0.3145
10450W        W23864   7.522  12.764   4.522  0.1659  0.2730 -0.0484
10451W        W23865  11.499   7.692   3.028 -0.2467 -0.1347 -0.0696
10452W        W23866   6.052   7.253   0.612 -0.0404 -0.3500  0.0312
10453W        W23867  16.956   9.671   0.932  0.0059 -0.4158  0.2611
10454W        W23868   3.538   6.704   6.175 -0.5806 -0.3494 -0.3881
10455W        W23869   2.827   0.792   5.043  0.1568  0.0496  0.1613
10456W        W23870  16.661  15.700  15.467  0.1161  0.0822  0.2148
10457W        W23871   0.073  17.243   3.580  0.1852 -0.0636 -0.0089
10458W        W23872  16.677  12.974  15.157  0.0642  0.0002 -0.0466
10459W        W23873   8.320  13.896  11.555  0.1841 -0.0587 -0.1948
10460W        W23874   0.974   3.692  10.903  0.1637  0.1328  0.1281
10461W        W23875  17.798   6.694   3.895 -0.1287 -0.2061  0.1986
10462W        W23876   3.672   4.271  14.630 -0.3258  0.0469  0.1601
10463W        W23877  12.725  13.004   4.212  0.2278 -0.0201  0.0192
10464W        W23878   8.796   2.831   0.544 -0.2178 -0.0434  0.2701
10465W        W23879   2.785  11.710   4.567 -0.1024 -0.0145  0.0326
10466W        W23880   9.074   4.671  11.043 -0.1618  0.0351  0.4738
10467W        W23881   0.482   1.386  10.530 -0.0575  0.1395 -0.1887
10468W        W23882   4.848   0.102   4.092  0.0463 -0.1863  0.0818
10469W        W23883   7.453   7.480  11.004 -0.1217  0.1485  0.0187
10470W        W23884  15.299  12.131   2.484  0.0615 -0.2605  0.1351
10471W        W23885   0.765   5.657   0.993 -0.2614  0.3689 -0.1228
10472W        W23886  15.048   2.232  14.885 -0.1303  0.0420  0.4580
10473W        W23887   4.602   4.409   5.861  0.0816 -0.0603  0.1299
10474W        W23888   9.705   6.907  12.093  0.0323  0.1803 -0.3302
10475W        W23889  14.798  13.038  12.939  0.1752 -0.0532 -0.1512
10476W        W23890   6.064  17.388  12.183  0.0441 -0.0032 -0.1059
10477W        W23891  11.879   9.005   1.110 -0.1612  0.1272 -0.1531
10478W        W23892   1.642   5.535   0.619 -0.1682  0.2081 -0.1288
10479W        W23893   7.578   4.151  15.928 -0.3306 -0.1430  0.2578
10480W        W23894  17.480   1.500  10.763 -0.2843  0.2569 -0.0031
10481W        W23895   1.233   7.921   3.254 -0.1329 -0.2922 -0.3319
10482W        W23896   0.426  13.111  11.146 -0.1236 -0.0078 -0.2347
10483W        W23897  11.223  11.926   3.898 -0.3333 -0.2083  0.0696
10484W        W23898   9.849  14.340  16.027 -0.0345 -0.1651 -0.3147
10485W        W23899   6.702   4.964  12.634 -0.2878  0.0012 -0.0331
10486W        W23900  15.215  10.783  14.937  0.1037 -0.2888  0.0758
10487W        W23901  16.020   4.995  15.782 -0.1018  0.1503  0.0960
10488W        W23902  15.339  12.323  13.011 -0.1343  0.0074  0.1279
10489W        W23903  17.147  16.951   2.082 -0.0845  0.2539  0.1813
10490W        W23904   5.856   0.529   0.208 -0.1074 -0.1823 -0.0399
10491W        W23905   6.800   9.562  14.975  0.2884  0.1724  0.1502
10492W        W23906  13.709   1.339   5.578 -0.0826  0.2897 -0.2609
10493W        W23907   8.499  15.648  16.003  0.2366 -0.0952  0.0776
10494W        W23908   8.112   5.885  15.648  0.0284 -0.1519 -0.0260
10495W        W23909  10.106  12.242  11.765  0.3795 -0.2197 -0.1784
10496W        W23910  16.706   1.589  16.062  0.0074 -0.1910 -0.1721
10497W        W23911  17.299  12.604  12.208  0.2067  0.1369 -0.0420
10498W        W23912  17.843   0.729  16.110  0.1714  0.0204  0.3688
10499W        W23913  11.962   0.111  14.875  0.2724 -0.0001  0.4170
10500W        W23914  18.099   1.157   1.350 -0.3521  0.2650  0.3542
10501W        W23915   4.706   0.191  12.323 -0.0154 -0.1351  0.1861
10502W        W23916   2.960   3.712   1.411  0.2700  0.0080  0.1397
10503W        W23917  10.233  12.984   3.014  0.0676  0.1665  0.0392
10504W        W23918   7.281   3.056  12.373  0.2172  0.1303  0.2504
10505W        W23919   5.581  10.291  14.524  0.2435  0.3489 -0.0223
10506W        W23920  15.771   8.214   9.998  0.1125  0.0173 -0.1257
10507W        W23921   6.904   0.158   2.866 -0.3682  0.3465  0.0914
10508W        W23922   9.474  12.514   0.566 -0.0702  0.1762 -0.1744
10509W        W23923   9.724  11.396  15.788 -0.1949 -0.0158 -0.0569
10510W        W23924  15.929   0.806   1.185 -0.2938 -0.2133  0.1232
10511W        W23925  14.686  14.208   1.354 -0.0946  0.1385 -0.4380
10512W        W23926   9.364   7.074   2.495  0.0860 -0.1276  0.1809
10513W        W23927   4.530   7.741   2.758 -0.1194  0.1679 -0.1055
10514W        W23928   7.859  14.827  12.422  0.2358 -0.0808 -0.0528
10515W        W23929   2.362   8.789   0.697 -0.0304  0.2062 -0.0336
10516W        W23930  12.300   4.397   4.256 -0.2013  0.1669  0.1963
10517W        W23931   0.286   5.714  13.573  0.1854  0.1929 -0.2348
10518W        W23932   0.925   3.585   5.590 -0.2839 -0.4274 -0.1848
10519W        W23933  11.342   7.102  15.621 -0.0191 -0.0882 -0.1886
10520W        W23934   0.789   8.857  15.474  0.1078  0.1643  0.1867
10521W        W23935  14.748   5.774   0.462 -0.0566  0.4638 -0.0331
10522W        W23936   6.477  11.929  14.141  0.1507  0.2379 -0.0200
10523W        W23937   9.884   1.999  15.589 -0.0596 -0.0220  0.1825
10524W        W23938   9.500  17.782   4.339  0.1017  0.1775  0.0591
10525W        W23939   9.268   8.864   6.406  0.1156  0.1307  0.0204
10526W        W23940   2.757  16.552  16.154  0.0307  0.0087 -0.1600
10527W        W23941  10.616   0.801  11.736  0.3213 -0.0283  0.2425
10528W        W23942  16.961   1.739  13.935 -0.4197  0.0018  0.0736
10529W        W23943   6.482   0.047  12.010 -0.1282  0.1404  0.1665
10530W        W23944   9.474  11.242  16.185 -0.0811  0.2446 -0.0415
10531W        W23945   8.255   6.019  10.497  0.4423 -0.1337 -0.1836
10532W        W23946  11.361  10.257  13.129  0.1127  0.0008  0.0876
10533W        W23947   9.631  12.924  13.705  0.0437  0.0743 -0.1446
10534W        W23948   7.253   9.699   1.776 -0.0852 -0.1355  0.0817
10535W        W23949  15.590   2.691  14.473  0.0959 -0.2795 -0.1604
10536W        W23950   7.192   7.076  16.360 -0.0300  0.0504  0.0933
10537W        W23951   9.718  16.126   0.222  0.0135  0.0094  0.3300
10538W        W23952   0.006  14.911   3.985 -0.0779  0.3681 -0.3895
10539W        W23953   5.410   8.404  12.467  0.1527  0.1352 -0.2757
10540W        W23954   2.580   2.187  16.280 -0.0102 -0.4192  0.0822
10541W        W23955  11.139  16.579   4.584 -0.1898  0.1433 -0.0682
10542W        W23956  11.500   3.459  13.850  0.1837 -0.2193 -0.0991
10543W        W23957  11.100   5.417  16.009  0.2148 -0.0044  0.2045
10544W        W23958   5.298  11.299   1.778  0.1891  0.0907 -0.0107
10545W        W23959  10.337   3.947  12.701 -0.3991  0.1731 -0.0234
10546W        W23960   6.971  16.145   0.958  0.1993 -0.1283  0.4950
10547W        W23961  17.726   9.929  14.552  0.0707 -0.3041 -0.1045
10548W        W23962  15.330   7.571   4.723 -0.1839 -0.0769 -0.1259
10549W        W23963  10.225  12.557  12.152  0.0891 -0.1408  0.0653
10550W        W23964  11.753  11.621  10.991 -0.0131  0.0650  0.0076
10551W        W23965   5.878   1.719  14.178  0.1634  0.1187  0.0824
10552W        W23966  12.649   7.386   1.700  0.0345  0.2105 -0.0180
10553W        W23967  11.325   9.911   2.640 -0.1329  0.1792 -0.1439
10554W        W23968  17.877   6.832  15.686  0.0938  0.0776 -0.1662
10555W        W23969  16.536   3.209   3.218  0.2386 -0.2934  0.2649
10556W        W23970  12.693  10.294   4.822 -0.1998  0.3307 -0.0943
10557W        W23971   7.649  11.651   2.720 -0.3324  0.1366  0.0946
10558W        W23972   3.776  10.531  11.329  0.1465  0.0415 -0.1915
10559W        W23973  10.118   4.484   2.931 -0.0171 -0.1428 -0.3065
10560W        W23974  14.219   5.282  13.793  0.2377 -0.0206 -0.0637
10561W        W23975   1.336   7.586   2.880 -0.0706 -0.2899  0.1256
10562W        W23976   1.256   9.504   4.879 -0.1825  0.1425  0.0026
10563W        W23977  11.023  10.223   1.249 -0.2286 -0.4458  0.2191
10564W        W23978   8.618   8.119  12.573 -0.1053  0.0845 -0.2856
10565W        W23979   5.762   8.937  10.873 -0.2673  0.3675  0.0518
10566W        W23980   1.284   6.120  15.108  0.1642 -0.4264  0.0579
10567W        W23981   0.327  17.030  14.276  0.1554  0.0383 -0.1705
10568W        W23982  13.339   4.725  16.081  0.3056 -0.0699  0.1888
10569W        W23983  15.152   8.927   0.876  0.0397 -0.3007  0.0253
10570W        W23984   3.213  15.733   0.006 -0.4318 -0.0845  0.0456
10571W        W23985  15.570  15.124   3.308 -0.2650 -0.0131  0.1487
10572W        W23986   7.369   7.724   4.675  0.1746 -0.4865 -0.0592
10573W        W23987   4.257  17.634  12.122  0.3344 -0.2411 -0.0635
10574W        W23988  10.648   8.656  13.519 -0.1859 -0.1295 -0.2335
10575W        W23989  14.021   8.944  14.957 -0.1783  0.0340 -0.1713
10576W        W23990  11.711   5.515   4.995 -0.0017 -0.0329  0.0651
10577W        W23991   8.277   6.279   6.298 -0.1227 -0.2293 -0.0331
10578W        W23992  17.034  12.393   5.991 -0.0588  0.1605  0.1487
10579W        W23993   1.172  16.423  16.541 -0.0716 -0.3874  0.3599
10580W        W23994   9.749  15.255   2.698  0.0837  0.0257  0.0814
10581W        W23995   4.683  11.091   1.301  0.1411  0.2551  0.2142
10582W        W23996   5.027   7.838   4.077  0.0343 -0.0124  0.1774
10583W        W23997   0.751  10.959  12.280 -0.3885 -0.2057  0.1653
10584W        W23998  11.830   6.881  11.430  0.0209  0.0960 -0.0227
10585W        W23999  16.869   3.805  11.936 -0.3045  0.1469 -0.0729
10586W        W24000  11.465   0.337  10.762 -0.0199 -0.1811  0.0807
10587W        W24001  11.584  12.091  11.984 -0.0910 -0.0404  0.1090
10588W        W24002   8.065   7.735  14.165 -0.0845  0.1079  0.0656
10589W        W24003   7.705  10.397   0.901  0.0638 -0.3654 -0.0241
10590W        W24004  14.381  10.287  13.891  0.1442 -0.1735  0.1886
10591W        W24005   8.489  10.292   1.719 -0.0061 -0.1347 -0.2342
10592W        W24006  18.158  10.718   3.547 -0.0902  0.1106  0.0068
10593W        W24007   0.265   7.917  12.205 -0.0146 -0.1010 -0.0784
10594W        W24008   8.740  13.269   2.633  0.0770  0.0593 -0.2677
10595W        W24009   4.629   6.733  11.470 -0.0610 -0.0652 -0.1633
10596W        W24010   9.070  17.036   4.550  0.2085 -0.1636  0.0871
10597W        W24011   1.763  15.883  11.837  0.0131  0.0355 -0.0384
10598W        W24012   9.357   1.324   5.906  0.1123  0.2110  0.0413
10599W        W24013   8.549   9.104   1.298  0.0367 -0.1727  0.0947
10600W        W24014   0.145   7.895   2.479  0.0716  0.0574  0.0780
10601W        W24015  18.013   9.991  11.141 -0.2503  0.0348 -0.1231
10602W        W24016   6.505  12.599  15.810 -0.0599  0.3034  0.2047
10603W        W24017   7.038  12.729   2.632 -0.0431 -0.5509 -0.0137
10604W        W24018   3.082   6.218   2.861 -0.1895  0.2606 -0.0748
10605W        W24019   9.394   8.475  11.974  0.2481 -0.2429  0.2170
10606W        W24020  12.713  13.593  14.407  0.1787 -0.2331  0.2069
10607W        W24021  15.121   5.185  12.615 -0.1637  0.1522 -0.0734
10608W        W24022   2.148  17.772  14.662 -0.1749 -0.0346  0.1558
10609W        W24023   9.289   6.735   0.947 -0.0469  0.2198  0.2898
10610W        W24024  10.618   1.897   0.388 -0.1430  0.3477 -0.0619
10611W        W24025  11.506   7.749   5.254  0.0585  0.0648  0.4396
10612W        W24026   5.113  12.181  10.719 -0.0381 -0.0329 -0.0928
10613W        W24027  12.101  13.336   1.057  0.0380 -0.1338 -0.5669
10614W        W24028   6.873   8.252   1.663  0.0590  0.2254  0.4248
10615W        W24029  11.689   0.127  11.343 -0.1850  0.2180  0.1680
10616W        W24030  18.179   1.021   0.508 -0.0671  0.1262 -0.3299
10617W        W24031  14.482  13.676   1.611 -0.1537 -0.1770 -0.0458
10618W        W24032   4.620   8.908   2.040 -0.0041  0.1221  0.1138
10619W        W24033   4.640   3.008   0.341 -0.1713 -0.1986  0.1842
10620W        W24034  10.487   1.818  15.294 -0.0776  0.2441 -0.1586
10621W        W24035   5.729  16.049  15.141 -0.1820 -0.2507 -0.1578
10622W        W24036   9.328   1.642   1.227  0.0312 -0.1147 -0.1320
10623W        W24037   0.795   3.898  15.445  0.0545 -0.0047 -0.2011
10624W        W24038   8.346  11.927  10.598  0.0448 -0.3428 -0.1298
10625W        W24039  13.568   2.083   0.530  0.0308  0.0879  0.0150
10626W        W24040  11.400   9.500   5.143  0.1384 -0.2624  0.1530
10627W        W24041  16.468   9.343  11.515  0.5443 -0.0832  0.0190
10628W        W24042  16.538  12.099  16.384 -0.1485  0.1168 -0.2551
10629W        W24043  15.337  16.973  13.910 -0.1938 -0.1566 -0.5808
10630W        W24044  13.381  12.470  12.315  0.2985  0.2297 -0.0816
10631W        W24045   0.985  13.806   0.635 -0.1019 -0.1226 -0.2640
10632W        W24046   0.473   6.485   3.166 -0.0109 -0.3539  0.1854
10633W        W24047   9.214  13.292   4.665 -0.3683 -0.0529 -0.1295
10634W        W24048   7.266   0.244   6.941 -0.4498  0.2240  0.1684
10635W        W24049   7.730   8.000   1.987  0.2713  0.0738  0.3666
10636W        W24050   0.956   8.787  14.280  0.0151  0.1271  0.3484
10637W        W24051  17.199   1.447  14.433  0.0996  0.2238 -0.0367
10638W        W24052  15.653   5.794   0.847  0.2413  0.3163 -0.2416
10639W        W24053   4.743  11.393  10.914  0.3766 -0.0308 -0.2054
10640W        W24054  18.023   2.652   0.314  0.0219  0.0151 -0.1176
10641W        W24055  17.204   1.767  13.473 -0.3351  0.0834 -0.1255
10642W        W24056   7.340  17.772  14.269  0.1402 -0.0519 -0.0831
10643W        W24057  17.662   6.753  13.364  0.2465 -0.1012  0.0250
10644W        W24058   4.645   6.580   2.946  0.0463  0.2707 -0.2161
10645W        W24059  12.052   5.334   4.127 -0.0668 -0.2633 -0.3830
10646W        W24060   7.434  15.256  10.819  0.4747  0.0482  0.0749
10647W        W24061   9.118   8.663   2.152  0.0059  0.2264 -0.1451
10648W        W24062   0.998   8.266   2.097 -0.0727  0.2048 -0.0586
10649W        W24063   2.343  10.434   1.232 -0.3444 -0.0603 -0.0860
10650W        W24064  10.583  13.627   1.537 -0.1645  0.2858  0.0097
10651W        W24065   1.959  10.951  11.759 -0.1813  0.1112  0.1763
10652W        W24066  10.469   5.115  13.931 -0.0502 -0.1442 -0.5624
10653W        W24067   3.093  11.715  16.347 -0.1681 -0.2486 -0.0080
10654W        W24068   0.851   7.424  10.899  0.2192 -0.2826 -0.0477
10655W        W24069   1.124   4.473  12.774 -0.0559 -0.1021  0.1761
10656W        W24070  17.259  11.911  13.770  0.1856  0.0794 -0.1796
10657W        W24071   1.795   8.145   9.790  0.3219 -0.2567 -0.0814
10658W        W24072  12.242  12.739  15.307 -0.2234  0.2354 -0.1429
10659W        W24073  14.984  13.849   1.594 -0.1976  0.0231  0.1538
10660W        W24074   9.107  10.235   0.372 -0.2012  0.1888 -0.0316
10661W        W24075   7.188   3.530   1.917 -0.0314  0.1762  0.4526
10662W        W24076  11.098   7.134   3.831  0.0983 -0.1674 -0.2186
10663W        W24077   0.044   8.342   2.803  0.0664  0.1414 -0.4943
10664W        W24078  12.347   6.976   2.092 -0.0847 -0.0664 -0.1533
10665W        W24079  13.527   3.115   5.036 -0.1193  0.0168 -0.0303
10666W        W24080   8.301  14.251   6.070 -0.0456 -0.0025  0.0392
10667W        W24081   0.506  16.708  16.186 -0.1238  0.3664 -0.1157
10668W        W24082  16.242  17.777  11.184  0.1118  0.1645  0.1795
10669W        W24083   1.290   3.638   1.055  0.1485 -0.3069 -0.0197
10670W        W24084   0.376  17.260   3.085  0.2393 -0.2174  0.0833
10671W        W24085  13.399   0.201   1.509 -0.3607 -0.1272  0.1637
10672W        W24086   6.022  17.528   6.335  0.0602  0.4925 -0.1232
10673W        W24087  10.268   4.953   3.675 -0.1458 -0.0348 -0.0666
10674W        W24088  10.030   9.955   4.142 -0.1352 -0.3216 -0.3307
10675W        W24089   1.731   3.073  14.780 -0.0210 -0.0384 -0.1535
10676W        W24090   4.118  17.633  13.254  0.1442  0.0257 -0.2304
10677W        W24091   2.943  18.041   4.720  0.3748  0.0586  0.1094
10678W        W24092   6.285   6.493  14.206 -0.2512  0.0469 -0.1626
10679W        W24093   8.754   3.094   5.911  0.0551  0.0631 -0.1075
10680W        W24094  14.700   4.715  11.765 -0.1216 -0.0931 -0.1479
10681W        W24095  13.204   2.785   4.568 -0.0134  0.0422 -0.1181
10682W        W24096  15.963  18.034  15.863 -0.4929 -0.3261  0.0323
10683W        W24097  16.274  12.071   6.212  0.0802  0.0202  0.3244
10684W        W24098   2.980   7.875   4.175 -0.1648  0.1055 -0.1713
10685W        W24099   8.382   6.310  13.150 -0.2052 -0.3322 -0.2441
10686W        W24100   2.411   8.987  12.336 -0.0892 -0.0715 -0.2967
10687W        W24101   7.495   1.457   2.639 -0.0300 -0.0615 -0.0452
10688W        W24102  14.888  10.912  14.363 -0.1022 -0.0857  0.1305
10689W        W24103   5.232  14.260   3.505 -0.0441 -0.2722 -0.1647
10690W        W24104   7.746  13.762   1.770  0.2021  0.1325  0.0021
10691W        W24105  14.773  14.671  13.998  0.1769 -0.1059  0.2608
10692W        W24106   4.357  14.726   1.016 -0.1712 -0.2283  0.1437
10693W        W24107   6.104   6.744  12.237 -0.1671 -0.0053  0.0843
10694W        W24108  12.530   2.972  15.114  0.0717 -0.0430 -0.1955
10695W        W24109   3.581   8.584   2.890  0.0605  0.0434  0.1634
10696W        W24110   3.195   2.302  13.357 -0.0165 -0.0597 -0.2064
10697W        W24111  17.164  11.564   2.085  0.0212 -0.0770  0.4095
10698W        W24112  15.236  17.498   5.610 -0.2243 -0.1524  0.0114
10699W        W24113  15.518  11.882  15.717  0.0672 -0.2638 -0.0278
10700W        W24114   1.406   5.419   0.118 -0.0015 -0.5615 -0.2616
10701W        W24115  15.733  16.043  13.243 -0.1072  0.1803 -0.3053
10702W        W24116  16.404   7.668  13.989  0.0955  0.1284  0.0701
10703W        W24117  15.366  16.901  14.484  0.0757 -0.1899  0.1334
10704W        W24118   8.608   8.753  10.985 -0.2473 -0.0507 -0.0348
10705W        W24119   7.490   2.570  14.465 -0.2357 -0.0816  0.0367
10706W        W24120   3.895  12.787   3.097 -0.0038 -0.1050  0.1157
10707W        W24121   6.971   9.290   0.183 -0.1006 -0.1460 -0.1008
10708W        W24122  17.949   5.178   2.283 -0.2478  0.3567  0.1407
10709W        W24123   4.409  18.149   3.900  0.0419 -0.1558  0.0134
10710W        W24124   6.756   9.745   3.554  0.0630 -0.0374  0.1329
10711W        W24125  17.178  15.063  11.232  0.0554 -0.1746 -0.2665
10712W        W24126   5.626   5.926  12.882  0.2756 -0.1977 -0.0292
10713W        W24127   5.553   7.402   5.231 -0.0289 -0.0632 -0.3577
10714W        W24128  15.121   6.352   6.247  0.1208  0.3031  0.2400
10715W        W24129   6.173   5.548  14.084  0.1724 -0.0565 -0.0945
10716W        W24130  12.789   7.085  14.622  0.1783  0.3614  0.0992
10717W        W24131   5.514   2.509  11.839  0.2099 -0.3304  0.2609
10718W        W24132  14.824  10.654  13.069 -0.0784  0.2395 -0.1707
10719W        W24133   6.346   5.078   1.137  0.2640  0.3245 -0.0891
10720W        W24134  14.695  10.626   3.747  0.1690 -0.2869 -0.0522
10721W        W24135   6.215   5.091  14.331 -0.4823  0.2691 -0.0730
10722W        W24136  15.919  14.401  15.676  0.0276  0.0314 -0.0158
10723W        W24137  13.467   5.433  10.551 -0.0823  0.1171 -0.0105
10724W        W24138   7.620   0.007  15.131  0.0256  0.2409 -0.1304
10725W        W24139   9.695  10.870   0.506 -0.0441  0.1294  0.0848
10726W        W24140   2.983   3.029   4.529 -0.1578 -0.1614  0.2548
10727W        W24141  12.350   6.168  14.334 -0.0303  0.1138  0.0724
10728W        W24142  13.574  15.333  14.533 -0.1650  0.0683 -0.1008
10729W        W24143  12.937   4.770  12.095 -0.4422 -0.0404  0.2189
10730W        W24144  17.828  15.496  16.251 -0.1191  0.4649 -0.0119
10731W        W24145  14.578   6.141  13.483 -0.3066 -0.1629 -0.4519
10732W        W24146   4.165  12.187  13.414 -0.0281  0.0961  0.0701
10733W        W24147   1.154   0.757   2.345 -0.2092 -0.1661 -0.0948
10734W        W24148  17.991  18.153  15.547 -0.1747  0.1010 -0.0353
10735W        W24149  12.024   9.568   3.471  0.1522  0.2869  0.0273
10736W        W24150  17.826  10.602  14.104 -0.1903 -0.4019  0.1113
10737W        W24151   3.715   9.154  12.483 -0.0226 -0.0843  0.2879
10738W        W24152  13.752   2.612   0.970 -0.1615  0.0648  0.3114
10739W        W24153   5.390   3.382  14.577  0.2397 -0.0986  0.1412
10740W        W24154   6.908   1.520  10.958  0.0848  0.0000 -0.0101
10741W        W24155   6.180  14.288  10.643  0.0090 -0.0128  0.2017
10742W        W24156  11.643  15.668   5.987 -0.0223 -0.2282  0.2300
10743W        W24157  12.527   8.383   2.864 -0.2865  0.1015 -0.2290
10744W        W24158   1.547   6.761   3.279  0.0100 -0.0516  0.0063
10745W        W24159   4.345   0.057   5.760 -0.0257  0.1497 -0.0147
10746W        W24160   8.216  16.432   1.977  0.1036 -0.1098 -0.1235
10747W        W24161   0.249  16.290  13.839 -0.3649 -0.3801  0.2637
10748W        W24162   9.022  17.240   0.381 -0.1562  0.0161 -0.0358
10749W        W24163   9.014   3.507  12.091  0.0345 -0.1172  0.2482
10750W        W24164   7.141   4.983  12.403 -0.1642 -0.2923 -0.2505
10751W        W24165   9.070  11.355  15.143  0.1256  0.1467  0.2286
10752W        W24166  12.698   7.680  13.466  0.0639  0.0662  0.1132
10753W        W24167   0.974   4.791  13.152 -0.0832 -0.2905  0.2588
10754W        W24168   7.210  13.865  14.494 -0.1079 -0.2391 -0.1206
10755W        W24169   1.745   5.741  13.193 -0.0078  0.0501 -0.3966
10756W        W24170  10.479  18.051   1.039  0.0203 -0.2330  0.2916
10757W        W24171   6.379  13.436  14.133 -0.0367 -0.0392  0.0827
10758W        W24172  10.000   1.670   2.085 -0.1162 -0.0104  0.0178
10759W        W24173   7.628   4.708   4.247 -0.0685  0.2114 -0.1804
10760W        W24174   0.949   9.995   5.438  0.4434  0.1732 -0.1105
10761W        W24175  11.033  12.926   3.528  0.0826  0.1878  0.0935
10762W        W24176  14.241   1.912   2.318 -0.5471 -0.2057 -0.3299
10763W        W24177   9.438   3.671  12.350  0.0877 -0.0266 -0.0830
10764W        W24178   3.804  12.715   0.336 -0.1776 -0.0666 -0.2216
10765W        W24179  13.040   0.622  12.965  0.1963 -0.0413  0.1087
10766W        W24180   6.022   0.267  13.034 -0.0889  0.2139 -0.1484
10767W        W24181   0.358   8.302   5.634 -0.0190 -0.1862 -0.2539
10768W        W24182  15.166   3.412  11.367  0.0442  0.0049 -0.4511
10769W        W24183   4.520   4.225   2.245 -0.1863 -0.2114  0.2118
10770W        W24184  13.481  15.951  13.940 -0.1939 -0.5163 -0.0696
10771W        W24185   1.422  17.572   3.933  0.1200  0.0315 -0.2980
10772W        W24186   9.613  11.008  14.373  0.0557 -0.3008 -0.0113
10773W        W24187  14.330   5.217  11.871 -0.1687  0.1964 -0.0079
10774W        W24188   3.616  10.349  13.571 -0.2175  0.1201 -0.2492
10775W        W24189  16.099  10.308  14.261  0.1362  0.0530 -0.0323
10776W        W24190  13.059   4.389  13.601 -0.2402 -0.0362 -0.4292
10777W        W24191   1.835   1.667  11.092  0.2913  0.4657 -0.4128
10778W        W24192   4.800   3.280   4.622 -0.0671  0.0690  0.0222
10779W        W24193  11.764   5.320   0.306 -0.1302  0.1900  0.1106
10780W        W24194   3.761   0.560   2.332  0.1893 -0.2066 -0.1086
10781W        W24195   0.275   8.046  14.331 -0.3324 -0.1133  0.0864
10782W        W24196   9.027   6.971  14.302 -0.2695  0.1500  0.0413
10783W        W24197   5.940  14.065  12.888  0.1592 -0.2826 -0.3520
10784W        W24198   5.546  17.182  11.429  0.0009 -0.2731 -0.2267
10785W        W24199   1.616  10.524  11.950 -0.1827  0.2143 -0.4634
10786W        W24200  10.861  10.488   5.241  0.2211 -0.3268  0.1214
10787W        W24201  15.497  13.999   4.806  0.0160 -0.3804 -0.1493
10788W        W24202   1.196   8.320  15.939 -0.2404  0.1336 -0.3566
10789W        W24203  11.970  17.780   4.646 -0.0413 -0.1936 -0.0910
10790W        W24204   8.317   5.724   4.978  0.0497 -0.2271  0.0424
10791W        W24205  11.574   5.012   0.673 -0.4471  0.0606  0.2379
10792W        W24206   5.166   8.992  15.678 -0.0466  0.0057  0.0252
10793W        W24207   6.909  11.660   4.118 -0.3102  0.0476 -0.0164
10794W        W24208  12.969  15.475  12.589 -0.1091  0.0290  0.0574
10795W        W24209   4.015   1.151   1.159  0.1563  0.0440  0.0166
10796W        W24210  17.988  12.378   6.179 -0.0785  0.0484  0.3020
10797W        W24211   6.469  16.188  16.561 -0.2397 -0.1688 -0.1472
10798W        W24212   1.550  15.914   4.808 -0.2195  0.1304  0.0049
10799W        W24213  10.370   6.258   2.632 -0.2577  0.3551 -0.4186
10800W        W24214   6.966   1.748  15.393  0.2115  0.1022  0.3027
10801W        W24215  10.842   7.855   0.572  0.2567  0.1806 -0.0270
10802W        W24216   3.952  15.946   5.467  0.2096  0.1973  0.1984
10803W        W24217  10.843   6.445   0.306 -0.1810 -0.0219 -0.2859
10804W        W24218  16.010  17.074   6.089  0.3465  0.0315 -0.0533
10805W        W24219  12.685  10.883  14.978 -0.1527 -0.1917 -0.2891
10806W        W24220   0.651  17.953  12.189 -0.2225  0.5258 -0.1151
10807W        W24221  16.385   0.164   1.657 -0.3606 -0.0571  0.1169
10808W        W24222  11.827   5.046  10.218 -0.1985 -0.0065 -0.0994
10809W        W24223  12.845   5.576  12.084 -0.3054 -0.1187 -0.0217
10810W        W24224  17.775   1.222  13.965  0.0135 -0.1193 -0.1261
10811W        W24225   2.906  16.238  11.265 -0.1792 -0.2661 -0.0327
10812W        W24226  10.976  14.705   5.689 -0.1798  0.1922 -0.0244
10813W        W24227  16.561  11.251  12.020  0.0600  0.2096 -0.3551
10814W        W24228   4.729  12.188  15.611  0.0359 -0.1213 -0.0053
10815W        W24229   2.651  11.482   3.098  0.0439 -0.1119  0.0016
10816W        W24230   6.548  10.271  12.748  0.2269  0.0154 -0.1702
10817W        W24231   5.672  16.269  16.180  0.1768 -0.0496 -0.0636
10818W        W24232   5.169  14.240   1.622  0.0971 -0.2206 -0.2277
10819W        W24233   8.037  16.849  15.645 -0.1895  0.2549 -0.1902
10820W        W24234   3.525   8.994  13.003  0.2183  0.1720 -0.1897
10821W        W24235   1.307   5.435   0.981 -0.0659 -0.2408 -0.2398
10822W        W24236   7.573   5.657  12.883 -0.3033 -0.1940  0.0195
10823W        W24237  11.012  16.156   3.497  0.0418 -0.0912  0.0105
10824W        W24238  13.079  11.438   0.315 -0.2216  0.1649 -0.3640
10825W        W24239   5.630   9.460   0.611 -0.2131  0.1330 -0.0607
10826W        W24240  14.921   5.333   4.714 -0.0965  0.0912  0.1407
10827W        W24241  10.590   1.583  15.881 -0.0183 -0.1590  0.2645
10828W        W24242   1.506   2.253   1.953  0.1696 -0.1947 -0.2071
10829W        W24243  17.275  18.056   3.832 -0.0350 -0.2508 -0.3105
10830W        W24244   8.062  12.580   4.655 -0.1121  0.0215  0.0433
10831W        W24245  17.578   2.606   3.436  0.3247  0.0947 -0.3596
10832W        W24246  15.573  17.260   5.827 -0.3677 -0.0926 -0.1367
10833W        W24247  16.652   2.113  10.943  0.0104  0.2679  0.3973
10834W        W24248   1.293  12.414  14.611  0.1177 -0.0728  0.1585
10835W        W24249  15.361  11.152  11.702 -0.0125  0.2167 -0.1373
10836W        W24250   5.682  18.256   5.358  0.3841 -0.1390  0.1115
10837W        W24251  14.587  15.155   3.564  0.3991  0.1437 -0.2334
10838W        W24252  16.551  12.825   4.373  0.0232 -0.1721 -0.1893
10839W        W24253   9.328  14.542   4.416  0.1123  0.0136  0.0496
10840W        W24254  15.431  17.948  14.869  0.0389 -0.0916 -0.1074
10841W        W24255  17.846  17.277   1.569 -0.1609 -0.0890 -0.0310
10842W        W24256   3.766   6.894  14.600 -0.1894 -0.3114  0.1977
10843W        W24257   0.631   2.544   3.307 -0.5822 -0.2102 -0.3407
10844W        W24258   1.915   5.246  13.073 -0.0743 -0.0740 -0.0264
10845W        W24259  11.275  10.371  12.656  0.1510 -0.3065  0.0168
10846W        W24260   0.038   9.630  12.022 -0.0891 -0.0430  0.0844
10847W        W24261   0.961   5.084   1.009 -0.2456 -0.1439 -0.0451
10848W        W24262   5.635   6.050   3.774  0.0043  0.0271  0.1197
10849W        W24263  14.685   2.776   4.785 -0.2079  0.0977  0.4467
10850W        W24264   3.481   5.684  11.015  0.0023  0.1527 -0.2011
10851W        W24265  13.245  17.469  15.003 -0.2743 -0.2471  0.0656
10852W        W24266   7.831  10.305   2.951 -0.0233  0.0686 -0.1749
10853W        W24267  12.798  16.452   0.947  0.0648  0.0093  0.2703
10854W        W24268   4.341   6.343   4.277  0.1495  0.1174  0.1994
10855W        W24269  12.566  12.776  12.571  0.0692 -0.1948  0.1708
10856W        W24270  16.163   6.648  11.940 -0.0055 -0.0085  0.0782
10857W        W24271   4.686  10.937  14.533 -0.0682 -0.1466 -0.0568
10858W        W24272   2.913  14.453  14.347  0.1383 -0.0952 -0.0594
10859W        W24273  12.205  16.313  11.211 -0.0728 -0.0411 -0.0402
10860W        W24274  13.864   0.153   1.754 -0.0637 -0.2012 -0.0857
10861W        W24275  14.962  16.522  11.631 -0.1609 -0.1083 -0.0981
10862W        W24276  10.736  14.951   1.140 -0.0584  0.0554 -0.3091
10863W        W24277   7.322  14.924  11.255  0.0304  0.2726 -0.0388
10864W        W24278  12.743   8.250  13.624 -0.1619  0.5148 -0.0019
10865W        W24279  12.578  13.404   1.870 -0.0569  0.0255  0.1051
10866W        W24280  12.170  14.036   5.764  0.1689 -0.0685 -0.0784
10867W        W24281   3.744  17.450   0.801  0.3759  0.3958 -0.2330
10868W        W24282  10.109   3.771  14.263  0.0322 -0.0241  0.4268
10869W        W24283   9.468   2.148  12.316  0.1726  0.1898 -0.0523
10870W        W24284   7.950  12.435  10.729 -0.0634 -0.1165  0.0294
10871W        W24285   7.842   3.689   3.697 -0.2718 -0.2262 -0.1042
10872W        W24286   7.836  14.286   0.031  0.2136 -0.2870  0.2192
10873W        W24287   4.740   4.389   1.765 -0.0069  0.1868  0.0138
10874W        W24288   9.784   7.315  16.384  0.0696 -0.1975 -0.0628
10875W        W24289  13.850   0.243   4.194  0.0793  0.2523  0.2596
10876W        W24290   7.813  14.411  11.188 -0.1312  0.0901  0.0107
10877W        W24291  18.173   7.074  10.602 -0.1890 -0.1462 -0.1371
10878W        W24292   2.027  17.041  13.593 -0.2975 -0.0281  0.1970
10879W        W24293  15.475  18.178   4.190  0.2276 -0.0222  0.2075
10880W        W24294   6.070   8.380  11.628  0.3712  0.1849  0.0831
10881W        W24295   8.683  15.516   0.342  0.4026  0.1438  0.1307
10882W        W24296   8.496   6.496  14.468 -0.0798  0.1056 -0.1739
10883W        W24297  13.947   5.919  13.287 -0.0085  0.4375 -0.1295
10884W        W24298   0.593   9.492  15.005  0.0424  0.0383 -0.0689
10885W        W24299   7.582   2.612   5.224  0.3298  0.4310 -0.1454
10886W        W24300   6.810   4.360   3.770  0.1168  0.2877  0.2068
10887W        W24301  13.980  15.550   3.875  0.0402  0.2283 -0.0817
10888W        W24302   3.295  10.506   4.342 -0.1282  0.1885  0.3152
10889W        W24303  10.629  11.230   0.592  0.2892  0.3607 -0.0702
10890W        W24304   9.815  16.332  13.898  0.0487 -0.2667  0.1289
10891W        W24305  12.967   9.734   3.251 -0.1093 -0.0291  0.2022
10892W        W24306  16.730   2.155  13.022 -0.1529 -0.2155 -0.0312
10893W        W24307   9.865   5.415  13.833  0.0728 -0.0584  0.1080
10894W        W24308  16.307   4.453   0.591  0.0335  0.0370 -0.3388
10895W        W24309  17.335   6.232   1.374 -0.0461  0.0105 -0.2602
10896W        W24310   2.788   7.158  11.061  0.1713  0.0399 -0.0817
10897W        W24311  15.945   2.947  11.922 -0.1742  0.0022  0.2403
10898W        W24312  17.626  17.521   3.268  0.2245  0.2283  0.1152
10899W        W24313   3.273  13.080   1.107  0.3474 -0.1307 -0.1186
10900W        W24314  16.060  10.616  11.114  0.2187 -0.0604 -0.0610
10901W        W24315   1.320   2.926  15.114  0.1096  0.1763 -0.1204
10902W        W24316   1.400  16.202   5.648  0.3971 -0.0545  0.0086
10903W        W24317  14.734  15.083  15.236  0.2141 -0.2618  0.0100
10904W        W24318  12.114   9.366   3.014 -0.1601  0.0148 -0.1084
10905W        W24319  15.948   5.527   5.404 -0.0524  0.2250  0.1558
10906W        W24320  17.316   6.015   9.137 -0.0630 -0.0504 -0.1556
10907W        W24321  12.263   7.151  12.828  0.0950  0.0467 -0.0750
10908W        W24322   8.978   1.853   1.940  0.1344 -0.0739 -0.0681
10909W        W24323  14.068   6.502   0.324  0.1443 -0.3798  0.0176
10910W        W24324   6.891  17.375   2.289 -0.2546 -0.0720  0.0429
10911W        W24325   6.492   5.463  12.815  0.1638 -0.1001 -0.1023
10912W        W24326   1.265  17.643   2.363  0.0072 -0.0126 -0.1664
10913W        W24327   8.183  16.992  12.063  0.1291 -0.0795  0.1475
10914W        W24328   9.859   5.674  12.433  0.0716  0.0134 -0.1062
10915W        W24329   8.194   1.207   2.725 -0.2212  0.0663  0.0508
10916W        W24330  17.333   8.736   2.929  0.2029  0.0498  0.3790
10917W        W24331  13.511   4.044   0.838  0.2882 -0.1980 -0.0820
10918W        W24332  12.212  17.649   2.486 -0.0745 -0.0048  0.0287
10919W        W24333  13.554  10.393  10.181 -0.0227  0.2697  0.2030
10920W        W24334  13.060   8.211  11.047 -0.0886 -0.1910 -0.3613
10921W        W24335   2.370  15.729  14.273 -0.0664  0.0361  0.1284
10922W        W24336   5.096  15.768   6.157  0.0386 -0.0537 -0.3595
10923W        W24337  11.931  15.129  14.699  0.2035  0.0985 -0.0676
10924W        W24338   9.827   2.331  12.706 -0.0207 -0.2061 -0.0794
10925W        W24339   8.258   8.758  15.514 -0.2456 -0.0881 -0.1252
10926W        W24340   1.202   5.728   1.378 -0.0314  0.0252 -0.0765
10927W        W24341  16.898   6.611  14.443 -0.0714 -0.0697 -0.3194
10928W        W24342   7.106  12.436   6.185 -0.0616  0.0630  0.0408
10929W        W24343   4.050  15.692  12.252 -0.1295 -0.2925  0.1099
10930W        W24344   5.611  18.045   5.799 -0.1803 -0.0546  0.2899
10931W        W24345   2.906  13.988   1.756  0.2495 -0.2991 -0.0559
10932W        W24346  18.025  16.446  11.461 -0.0011  0.1140 -0.0166
10933W        W24347  15.838   1.302  15.061  0.1583  0.3824 -0.0186
10934W        W24348  14.946   4.738  12.237 -0.0577  0.2545 -0.0844
10935W        W24349   9.874   4.894  14.844 -0.3061 -0.0497  0.4853
10936W        W24350  10.701   8.610   6.202  0.1071  0.2420  0.1006
10937W        W24351  10.525  17.369  15.760 -0.1124  0.0207 -0.0222
10938W        W24352   7.627  12.915  16.315 -0.2450 -0.2729 -0.0426
10939W        W24353   3.258   4.451  14.336  0.1512 -0.0878 -0.0890
10940W        W24354   9.769  13.239   6.656 -0.0509  0.1190 -0.2292
10941W        W24355   9.906  15.109  14.402  0.0367  0.2549  0.0426
10942W        W24356  13.143  15.321   0.860 -0.1536 -0.2348 -0.1112
10943W        W24357  10.501  10.754  14.626  0.4294  0.0858 -0.0981
10944W        W24358   7.950   1.021   4.290 -0.1720 -0.1062  0.0211
10945W        W24359  10.529   0.779   5.160  0.0088  0.1588 -0.0088
10946W        W24360   1.510  17.517   2.999 -0.0505 -0.0161 -0.0563
10947W        W24361   3.499  12.605  15.384  0.0207  0.2383 -0.1048
10948W        W24362   3.144  17.514  14.232 -0.1765 -0.1398  0.0799
10949W        W24363   5.658   5.315   4.645 -0.2552 -0.2542  0.1677
10950W        W24364  11.586   5.559  15.944  0.0770  0.0976 -0.0596
10951W        W24365  14.331  10.300  14.439  0.1511 -0.2923  0.0624
10952W        W24366   6.874   2.171   1.587 -0.0945 -0.0463 -0.1698
10953W        W24367  15.133  10.798  15.633 -0.1227 -0.3840 -0.1606
10954W        W24368   0.408  14.854   4.269  0.1024 -0.0977 -0.1819
10955W        W24369  18.246  11.830   0.620  0.1653  0.1438  0.0956
10956W        W24370  14.496  12.826  11.217  0.2094  0.0060 -0.1052
10957W        W24371   8.053   5.231  12.257  0.3098  0.0525 -0.1216
10958W        W24372  12.965   8.447   4.492 -0.4365  0.0144 -0.0566
10959W        W24373   8.145  14.304   4.055 -0.1265  0.1585 -0.0772
10960W        W24374  12.778   1.718   3.894  0.4249 -0.1482  0.1861
10961W        W24375   0.038  14.174   3.260 -0.1167 -0.2498  0.1891
10962W        W24376   2.998   5.810  10.837 -0.1409  0.2131 -0.1197
10963W        W24377   3.388  14.903   1.921  0.2638 -0.1716 -0.0082
10964W        W24378   9.226   0.818  14.567  0.2432 -0.1584 -0.1874
10965W        W24379   4.242   7.184   3.962 -0.0344  0.1034  0.2105
10966W        W24380  14.180  13.083   3.338 -0.1108  0.1821  0.2717
10967W        W24381  16.977  14.726  14.387  0.0734  0.1618 -0.0863
10968W        W24382  10.801  11.013  14.962 -0.1438 -0.0049 -0.0310
10969W        W24383  13.431   3.536  13.619  0.1844  0.0638 -0.0037
10970W        W24384   5.817   8.195   4.074  0.0690  0.2487 -0.1256
10971W        W24385  13.615   0.863  10.491 -0.1764  0.0284 -0.1290
10972W        W24386  16.159   9.537  10.183  0.2449  0.0669  0.2393
10973W        W24387   8.433   5.259  14.103  0.3692  0.0840 -0.4795
10974W        W24388  12.257  12.844  14.804  0.1403 -0.2451 -0.1508
10975W        W24389  13.668   3.073  13.667 -0.0712 -0.2441 -0.0376
10976W        W24390  13.280  11.358  16.181  0.1751 -0.1149  0.1522
10977W        W24391   9.318  10.960  11.619 -0.1422  0.2906 -0.0664
10978W        W24392  13.670  16.940  12.391  0.0320  0.0561  0.4109
10979W        W24393   9.532   5.089  14.106  0.2462  0.1781  0.3877
10980W        W24394   4.205   7.265   9.751 -0.3359  0.2195 -0.1738
10981W        W24395   7.428  11.920   4.857  0.0231  0.1570 -0.1816
10982W        W24396  16.751   3.933   4.762 -0.2935  0.0021 -0.1256
10983W        W24397   4.764  13.982  13.801 -0.0455  0.0083 -0.4117
10984W        W24398  17.314   7.387  11.490  0.0997  0.1555 -0.0494
10985W        W24399  15.894  16.202  15.091  0.1025 -0.2754 -0.0371
10986W        W24400  12.723   9.822   2.355 -0.1858 -0.1703 -0.3022
10987W        W24401  17.660   7.222  14.927 -0.0013 -0.1312  0.2581
10988W        W24402  10.052   4.718   1.247 -0.2119  0.1677 -0.0402
10989W        W24403   0.519  16.177   5.265 -0.2859  0.3781 -0.2711
10990W        W24404   6.203   1.229   4.168  0.1614  0.0250 -0.0230
10991W        W24405  16.447   8.270   9.997  0.1093 -0.0559 -0.1325
10992W        W24406  14.446   9.433  13.481  0.2909 -0.1321 -0.1451
10993W        W24407   3.163  17.828   0.832  0.0244 -0.0131  0.1758
10994W        W24408  15.475  17.409   0.706  0.1121  0.0932 -0.1414
10995W        W24409   5.958  15.445   0.259  0.1146 -0.2628  0.1134
10996W        W24410  16.756   7.625  12.525  0.3832 -0.2396  0.0358
10997W        W24411   4.866  12.667  14.314 -0.1698 -0.1253 -0.3225
10998W        W24412  13.474  15.801  11.497  0.0896 -0.0427 -0.0547
10999W        W24413  14.675   0.192   2.727 -0.0579 -0.0353 -0.1302
11000W        W24414   7.149   6.022  15.493  0.0446 -0.2048  0.0601
11001W        W24415  17.782  11.604  15.875  0.0726  0.0033 -0.4279
11002W        W24416  10.952   7.268  14.257  0.0510  0.2603  0.0881
11003W        W24417   0.354  17.503   4.232  0.1716 -0.0072  0.1554
11004W        W24418   4.509   8.833  14.587  0.1546 -0.0694 -0.2355
11005W        W24419   6.648  12.269  13.017  0.0272  0.2062 -0.0738
11006W        W24420  13.820   6.854  14.241 -0.1931 -0.2198 -0.0157
11007W        W24421   3.053   7.036   1.440 -0.0739 -0.0762 -0.2433
11008W        W24422  18.263   1.424  13.193 -0.1244  0.3717  0.2387
11009W        W24423   5.875  12.766  14.522  0.0978  0.0346 -0.1387
11010W        W24424  13.475   5.467   1.000 -0.0131 -0.3271 -0.2442
11011W        W24425   3.149  14.470  15.785  0.5634 -0.1708 -0.1160
11012W        W24426   0.187   6.207   4.100  0.1164 -0.1033 -0.0888
11013W        W24427  15.587   4.482   0.222 -0.1268  0.2870  0.0184
11014W        W24428   6.282   0.647  10.352  0.1037  0.1319  0.1153
11015W        W24429  11.857  11.826   3.640  0.1079  0.5849  0.1452
11016W        W24430   5.216  10.205  10.795  0.0636  0.0622 -0.1118
11017W        W24431   8.733  17.203   0.886  0.0311 -0.1828  0.2430
11018W        W24432  11.976  15.072  13.272 -0.2784 -0.0214  0.0865
11019W        W24433  13.601  18.182   0.931 -0.0613 -0.1800 -0.0238
11020W        W24434  16.982   4.566  14.440  0.0150  0.4278  0.2881
11021W        W24435  14.404   1.219  11.810 -0.0395 -0.2833 -0.0828
11022W        W24436   4.572   0.953  15.450  0.1125 -0.2289 -0.0499
11023W        W24437  15.174   9.045   1.571  0.1163  0.0470  0.3661
11024W        W24438   1.082   3.249  12.549 -0.2056  0.0674  0.0698
11025W        W24439   6.011  15.572   6.026  0.0780 -0.1487 -0.1147
11026W        W24440  11.665   3.412  12.892 -0.1329 -0.4611 -0.1111
11027W        W24441  17.336  10.570   5.729  0.2794  0.0997  0.0025
11028W        W24442   9.146  10.215  15.951 -0.1358  0.1975 -0.1033
11029W        W24443   4.918   2.768  13.357  0.2156 -0.4910 -0.2914
11030W        W24444  12.646  15.811   4.340 -0.1303  0.0343  0.0523
11031W        W24445   1.391   7.146   5.008 -0.0215 -0.1647 -0.0650
11032W        W24446  11.599   4.504   3.324 -0.2162 -0.2122  0.0575
11033W        W24447  17.847  11.288   5.270  0.1046 -0.0816 -0.0027
11034W        W24448   6.355   5.483   5.228  0.1431  0.0540  0.2762
11035W        W24449   1.104   8.145   6.190  0.1870 -0.2470  0.1659
11036W        W24450   6.773   0.155  13.833  0.1901  0.1758  0.1471
11037W        W24451  15.570  14.893   0.721 -0.2914 -0.1099 -0.1556
11038W        W24452  15.086  16.435   4.175  0.2200 -0.1059  0.0269
11039W        W24453  16.145   8.639   0.823  0.1971  0.0674  0.0949
11040W        W24454  10.750  11.636  13.208 -0.0392  0.2468  0.2292
11041W        W24455   8.288   7.826  16.138 -0.1125  0.2068  0.1429
11042W        W24456  12.355   2.956   3.343  0.0950 -0.1246 -0.3053
11043W        W24457  10.036   7.549  11.404  0.2283 -0.1010  0.1915
11044W        W24458   3.596   2.937  13.793 -0.1251 -0.1634 -0.0355
11045W        W24459   7.646  12.234   4.567  0.1198 -0.2006 -0.1710
11046W        W24460  12.448   6.989  14.232  0.0091  0.1398 -0.2262
11047W        W24461   9.537   5.228   4.559 -0.3330  0.0302 -0.0238
11048W        W24462  15.825  16.065  13.754  0.4494  0.4098 -0.0548
11049W        W24463   7.972   9.734  14.113  0.2217  0.1168 -0.1691
11050W        W24464   6.428  13.973   1.519  0.2003  0.3104 -0.0975
11051W        W24465   7.209   4.593   0.101  0.0227  0.0114  0.3568
11052W        W24466  14.308   6.200   5.530 -0.0351  0.1347 -0.1440
11053W        W24467  12.148   9.129   3.894  0.0461 -0.1790  0.0235
11054W        W24468   4.174  11.429   4.473 -0.1790 -0.0591 -0.0159
11055W        W24469  14.037  16.074   1.393  0.1109 -0.0719 -0.1256
11056W        W24470  13.352  10.670  11.653  0.0439  0.0738 -0.0267
11057W        W24471  10.599   8.751   0.586  0.0140  0.2442 -0.0373
11058W        W24472   5.101   2.657   1.583 -0.1242  0.0181 -0.4378
11059W        W24473   3.596  16.761  12.793 -0.0875  0.1793  0.0106
11060W        W24474  14.504   3.095   0.321  0.0256 -0.1243 -0.2284
11061W        W24475   9.988  12.406   4.069 -0.1519  0.1940  0.1149
11062W        W24476   2.041  15.968  13.063  0.1498  0.3292  0.0035
11063W        W24477  15.831   9.788   0.769 -0.3241 -0.0957  0.0682
11064W        W24478  10.618  18.227  12.544 -0.1484  0.3125 -0.0813
11065W        W24479  15.077   0.953  13.601  0.0369 -0.0389 -0.0337
11066W        W24480   8.682   6.592  15.042 -0.1371 -0.1539  0.3741
11067W        W24481  13.438  16.977  10.240 -0.3210  0.1571 -0.0578
11068W        W24482   0.766   8.515   0.492  0.0706 -0.1106 -0.1855
11069W        W24483  12.283  14.610   4.020  0.0643  0.3109  0.4696
11070W        W24484  13.447  12.102  15.315  0.0515 -0.3155 -0.1252
11071W        W24485   8.964   9.384  12.067  0.0807  0.0225  0.0279
11072W        W24486   2.843  12.029  16.056  0.2677 -0.1018  0.4720
11073W        W24487  17.669   2.931  11.090 -0.0637  0.0116  0.2601
11074W        W24488  13.373  15.052  13.963  0.0068  0.2702  0.3418
11075W        W24489  17.805   9.325   0.673 -0.0697  0.1473 -0.2315
11076W        W24490   9.821  13.744   2.237 -0.0054  0.1457 -0.0594
11077W        W24491  13.467   1.722   1.035  0.0138  0.1102 -0.1240
11078W        W24492   1.459   0.709   2.781  0.0553  0.2840  0.0052
11079W        W24493   0.664   8.971  13.305  0.2468  0.1101  0.0075
11080W        W24494   4.792   9.793   3.111  0.1570  0.5205 -0.1877
11081W        W24495   0.258   1.586  13.738  0.3118  0.0282  0.2282
11082W        W24496  17.284  16.731   0.270 -0.2323  0.0801  0.0448
11083W        W24497   1.244   6.629   3.719  0.0227  0.0297 -0.2975
11084W        W24498  11.879   2.873  15.925  0.2679  0.1863 -0.0865
11085W        W24499  14.753  18.024   3.499 -0.2931  0.0110 -0.0605
11086W        W24500  10.640   4.883  12.598 -0.0976  0.2778  0.0235
11087W        W24501   6.511   9.773  14.265  0.0102  0.2672  0.0806
11088W        W24502  16.484   2.446  15.018 -0.1346  0.1337  0.1967
11089W        W24503   8.428   0.764  12.599 -0.1361  0.1648 -0.2900
11090W        W24504  18.272  11.677  15.976  0.3010  0.1254 -0.0603
11091W        W24505  14.449   0.509  12.967  0.0265  0.2584 -0.1769
11092W        W24506  11.702  15.616  14.537 -0.1395 -0.3536 -0.2037
11093W        W24507  11.075  11.658   1.673 -0.0427 -0.2872 -0.0878
11094W        W24508  14.213   5.293   0.982  0.1309  0.0066  0.1411
11095W        W24509  16.061   0.310  13.467 -0.0314  0.3295 -0.2079
11096W        W24510  12.575  16.596  11.494 -0.0284 -0.1242  0.1874
11097W        W24511  16.316   9.959  14.517  0.0643 -0.4543 -0.0479
11098W        W24512  10.200  12.432   1.140 -0.1028  0.1801  0.1078
11099W        W24513  17.459  13.138   6.599 -0.0776  0.1563  0.1001
11100W        W24514   0.895  18.050  15.272 -0.1432 -0.1347  0.1392
11101W        W24515   9.227   2.388   0.114 -0.1382  0.0453 -0.2736
11102W        W24516   1.619   5.533   2.642  0.1075  0.1721 -0.1601
11103W        W24517   4.215   9.469  12.206  0.2054 -0.0682  0.0756
11104W        W24518   9.956  13.266   6.144 -0.0989 -0.2544  0.1712
11105W        W24519   3.305   5.523   5.368 -0.2031  0.3449  0.0521
11106W        W24520   8.048  14.426   2.058  0.0503  0.1872  0.0390
11107W        W24521   4.442   6.594  12.258  0.0775  0.3716  0.3611
11108W        W24522   9.268   7.261  15.967 -0.0993 -0.5031  0.1018
11109W        W24523   7.554   2.817  10.887 -0.0805 -0.0779  0.0936
11110W        W24524   7.869   2.953   1.603  0.0459  0.1794 -0.1260
11111W        W24525  13.446   0.628  15.887  0.0922  0.2394 -0.2358
11112W        W24526   2.328   3.148  16.090  0.3289 -0.4558  0.0572
11113W        W24527   5.119  10.461  14.482 -0.0888  0.1597  0.2881
11114W        W24528   1.953   5.430   3.633  0.0234  0.1536  0.1886
11115W        W24529  16.530   8.576   0.394 -0.1304  0.0385  0.1272
11116W        W24530   9.946  15.476  16.246  0.0299  0.1312  0.0279
11117W        W24531  12.252   0.788   4.252 -0.1711  0.0543 -0.2531
11118W        W24532   2.750   2.915   2.107 -0.2917  0.1170  0.0780
11119W        W24533  15.429   8.603   2.630 -0.0774  0.3514 -0.3819
11120W        W24534   8.823   3.072  16.180 -0.2534  0.1451 -0.0192
11121W        W24535  16.732   1.039   2.088  0.0258  0.1367  0.2194
11122W        W24536   4.209   1.151  11.723 -0.1875 -0.1337  0.1752
11123W        W24537   5.892  16.824  11.481  0.2517  0.1282  0.4060
11124W        W24538   0.576  13.386  13.300  0.2896  0.3674 -0.0712
11125W        W24539  13.522  18.054   1.675  0.2714  0.2901  0.1609
11126W        W24540   0.005  18.171   1.561 -0.1385 -0.1765 -0.1510
11127W        W24541   3.158  18.047  12.821 -0.1050  0.1862 -0.0924
11128W        W24542   3.028   6.037   2.429  0.0418  0.1606  0.3558
11129W        W24543  11.468   2.512  14.300 -0.1745  0.0570 -0.0182
11130W        W24544   4.540   4.917  10.853 -0.0083  0.1454 -0.0351
11131W        W24545  15.554   0.389  16.086  0.0506  0.0509  0.2137
11132W        W24546   3.040  13.575   5.866 -0.0743  0.2674  0.1032
11133W        W24547  14.939   1.721   1.115 -0.1489  0.2143  0.0558
11134W        W24548  14.093   8.714  16.352  0.0124 -0.0674 -0.1618
11135W        W24549   3.609  17.580  13.234 -0.1069 -0.2503  0.0931
11136W        W24550  18.062   5.798  14.762  0.3899 -0.0093  0.0297
11137W        W24551   5.086  11.669  13.491 -0.0335  0.1852  0.0203
11138W        W24552  16.399  17.950   3.808  0.0314 -0.3055  0.1450
11139W        W24553  13.548   7.195  13.282 -0.0933  0.1488  0.0428
11140W        W24554  14.520  14.657   5.943  0.2277  0.0606  0.1005
11141W        W24555   3.536   8.217   5.980 -0.1386 -0.2039 -0.3212
11142W        W24556   9.567  17.725  15.568 -0.0529  0.1008 -0.0579
11143W        W24557  10.680   0.305  13.789  0.3068 -0.1673  0.2348
11144W        W24558   7.792  17.109   0.758  0.4131 -0.1888  0.1806
11145W        W24559  14.138   5.979  10.641 -0.6288 -0.0054 -0.1574
11146W        W24560   0.181  12.732   4.063 -0.1509  0.2166  0.1070
11147W        W24561   2.683  15.543  10.986  0.1239 -0.1146  0.1114
11148W        W24562   1.585  17.994   0.168 -0.2152  0.1448 -0.3996
11149W        W24563   6.399  17.138   2.508  0.3395  0.1632 -0.0205
11150W        W24564   4.288   9.314  13.944 -0.3345 -0.1156  0.1087
11151W        W24565  10.140  13.844  15.722  0.0413  0.0953 -0.0211
11152W        W24566  13.379  13.778   1.863 -0.0162 -0.0477 -0.2537
11153W        W24567   6.654  12.312   1.327 -0.0925  0.1286 -0.1797
11154W        W24568  16.252  16.333   0.749  0.2124  0.1209 -0.1577
11155W        W24569   3.262   4.038  10.838 -0.0161 -0.4434  0.2779
11156W        W24570   4.004   7.949   4.444  0.1228  0.2341  0.0724
11157W        W24571  12.971  17.401   6.114 -0.3527 -0.0444  0.3913
11158W        W24572   3.580   3.330  14.090  0.2440 -0.1482 -0.4074
11159W        W24573  14.064   8.642   0.339  0.0443  0.1498 -0.1489
11160W        W24574   2.938  14.993  14.374  0.1301  0.2157  0.0783
11161W        W24575   9.325   8.588  11.515  0.0675 -0.0688  0.0110
11162W        W24576  15.760   0.040  11.919  0.4005 -0.3034 -0.0686
11163W        W24577  10.419   1.897  16.462  0.2265 -0.1316  0.1942
11164W        W24578   7.498  16.217   3.764 -0.0854  0.3121  0.1098
11165W        W24579  11.607   7.784   0.949  0.1518  0.3621 -0.3099
11166W        W24580   5.899   7.803   0.565 -0.1479 -0.1638  0.1172
11167W        W24581   8.670   7.338   5.630  0.1899  0.1329  0.0767
11168W        W24582   3.332  13.411  12.824 -0.2859 -0.0538 -0.1333
11169W        W24583   7.810   4.936  13.628 -0.0933 -0.1870  0.0763
11170W        W24584  17.355   8.752   4.723 -0.1604 -0.0583  0.1541
11171W        W24585   9.985   2.800   4.109  0.0142  0.3435  0.1637
11172W        W24586   5.892   5.648   4.097 -0.1019 -0.0562  0.0171
11173W        W24587   5.269   4.406  16.518 -0.0813  0.3658  0.1214
11174W        W24588  10.794  11.113   2.422  0.2057 -0.1617  0.0372
11175W        W24589   2.188   6.006  16.192 -0.0669 -0.1125  0.1623
11176W        W24590   7.676   6.713  11.764  0.2251 -0.0926  0.2796
11177W        W24591  13.723   9.647  12.045  0.1391 -0.0234  0.1081
11178W        W24592   4.947  18.074  11.319 -0.2497 -0.1655  0.0017
11179W        W24593  16.797   8.178  13.295 -0.1839 -0.0373  0.2050
11180W        W24594   8.342  14.249  11.232 -0.1770  0.2956 -0.2350
11181W        W24595   2.733  18.068   0.970  0.4011  0.3179  0.0728
11182W        W24596   3.794   6.208   6.051  0.0147  0.2100 -0.0367
11183W        W24597   8.548   0.438  11.534 -0.1302 -0.2025  0.0463
11184W        W24598   3.736   9.062  13.851 -0.0621 -0.0286  0.1200
11185W        W24599  10.064   4.197  13.212 -0.2463 -0.0599  0.0810
11186W        W24600   5.888   9.292   3.208 -0.0862  0.0736  0.1326
11187W        W24601  14.985   2.387  11.874 -0.1898 -0.2140 -0.0010
11188W        W24602   6.205  16.244  16.156  0.1930  0.2208 -0.0290
11189W        W24603   7.054   5.286   3.967 -0.0123 -0.0848  0.2624
11190W        W24604   5.680  11.547   4.338 -0.1041 -0.0861 -0.1968
11191W        W24605  11.488   4.805  14.716 -0.1159 -0.2114 -0.0343
11192W        W24606  11.788  10.237   2.096 -0.0733  0.0654  0.3375
11193W        W24607   3.874  12.075   2.653  0.1007 -0.0226 -0.1800
11194W        W24608  12.548  10.529  13.066  0.1450 -0.2153  0.0590
11195W        W24609  14.110   8.855   3.904 -0.0420 -0.3385  0.2767
11196W        W24610   8.631  14.629   3.085  0.1027  0.0749 -0.1295
11197W        W24611   3.134   2.912   0.177  0.1066  0.0792 -0.2537
11198W        W24612   6.838   4.623   4.314  0.2142  0.1061 -0.1634
11199W        W24613  10.144   4.586  14.190  0.2735  0.1496  0.0457
11200W        W24614  11.286   5.051   4.540 -0.2040 -0.1213 -0.0525
11201W        W24615  18.147  10.069   0.348  0.0581 -0.1783 -0.1561
11202W        W24616   7.601   4.195   4.776  0.1372 -0.1547 -0.1432
11203W        W24617  17.761   7.349   4.272 -0.2161 -0.1360  0.2216
11204W        W24618   6.099   8.182  10.827 -0.1048  0.1151  0.1138
11205W        W24619  11.637  13.046   4.245  0.0707  0.1485  0.1963
11206W        W24620   7.024  13.978   5.445  0.1015 -0.0111  0.1325
11207W        W24621  15.107  16.422   1.871 -0.1261  0.1848 -0.0400
11208W        W24622   3.943   6.057  10.185 -0.0627 -0.2782 -0.0129
11209W        W24623   3.635   3.170   0.711 -0.0528  0.1713  0.2512
11210W        W24624   9.434  16.793  12.155  0.0793  0.4305 -0.1407
11211W        W24625  15.635   7.368   5.395  0.1786  0.2664 -0.3089
11212W        W24626   5.804   8.569  13.897 -0.0961  0.1981  0.0548
11213W        W24627  12.984  18.232  13.620  0.2707  0.1425  0.1093
11214W        W24628  15.571   0.131   2.808  0.0854  0.0367  0.0153
11215W        W24629   1.595  10.413   0.219 -0.1039 -0.1144 -0.3884
11216W        W24630  12.396   2.772  11.945 -0.2460 -0.0824 -0.0318
11217W        W24631  12.740   6.578  15.659 -0.0792  0.0367  0.2329
11218W        W24632   8.272  11.758  14.224 -0.1159 -0.0155 -0.1037
11219W        W24633  16.029  17.587  10.225  0.2400 -0.2369  0.1273
11220W        W24634   8.177  17.048   2.818 -0.0490 -0.0791  0.0959
11221W        W24635   5.531   5.743  11.929  0.0608 -0.3294  0.1875
11222W        W24636   2.815   0.856  13.822 -0.0576  0.1076 -0.0331
11223W        W24637   9.456   9.194  14.583  0.0624  0.0534 -0.1823
11224W        W24638  12.041  12.208  15.372  0.1973  0.4383 -0.0908
11225W        W24639  17.736   3.904  12.147 -0.1380  0.1364 -0.1221
11226W        W24640  14.337   8.166  11.345  0.2365  0.2120  0.3088
11227W        W24641   8.160   0.040   0.588 -0.1963  0.0259 -0.1269
11228W        W24642  17.841  16.897  14.423 -0.0800  0.1408 -0.1273
11229W        W24643   5.145  13.695  12.262  0.1508  0.2587 -0.1423
11230W        W24644   8.432  17.556   1.152  0.1142  0.1613 -0.2596
11231W        W24645  12.935  17.355  15.869 -0.0227  0.2174 -0.1593
11232W        W24646  15.381  13.942  11.480  0.2119 -0.0327 -0.0610
11233W        W24647   8.315   5.461   3.569 -0.1409  0.0729  0.0918
11234W        W24648   8.938   8.022   6.468  0.3316 -0.1561 -0.1347
11235W        W24649   8.504   7.689   4.889  0.0685 -0.5810 -0.0989
11236W        W24650   6.709  14.937  13.482 -0.2588 -0.0328 -0.2379
11237W        W24651   1.685   1.257  13.419  0.0746  0.3184 -0.1079
11238W        W24652   4.937   5.346   2.360 -0.2078  0.2419 -0.0360
11239W        W24653  10.160   3.168   1.777  0.1648  0.3514  0.0979
11240W        W24654  16.404   0.850  15.634 -0.1111  0.1145 -0.1567
11241W        W24655   9.250   7.568  10.949  0.1119  0.0137 -0.1668
11242W        W24656  13.227   7.088   3.381 -0.2034  0.1273  0.1018
11243W        W24657   9.736   0.049   2.782 -0.0982  0.0995 -0.1417
11244W        W24658   7.638  12.294  13.101 -0.1300  0.0661  0.2532
11245W        W24659   8.076   4.706   5.305 -0.2418  0.0763 -0.0336
11246W        W24660   7.853  16.106  11.676 -0.1757  0.3224  0.2592
11247W        W24661  13.435  11.189  10.952 -0.2595 -0.1390 -0.0520
11248W        W24662  11.438  10.095   4.433  0.2202 -0.0517  0.4161
11249W        W24663  10.312   5.540  13.689  0.3398  0.0893  0.2285
11250W        W24664   8.963   7.207   2.736  0.1755  0.2228 -0.1887
11251W        W24665   8.059   9.802   3.033 -0.1036 -0.2165  0.0420
11252W        W24666   5.448   1.884  14.978  0.3580 -0.1558  0.1823
11253W        W24667  10.768   5.337  14.747  0.1106  0.2245 -0.0291
11254W        W24668  13.605  12.923   4.063  0.1327  0.0486 -0.2725
11255W        W24669   1.219   6.618  11.296 -0.2525 -0.0669  0.0984
11256W        W24670   9.854   3.721   1.232 -0.2961 -0.0043  0.0883
11257W        W24671   7.570  10.506   4.137 -0.2941  0.1081  0.3783
11258W        W24672   6.591  14.437  11.210  0.0874 -0.1810 -0.1126
11259W        W24673   2.473  11.535  12.660  0.1035  0.1576 -0.1634
11260W        W24674  16.827   7.126  13.619  0.1048 -0.1316 -0.0219
11261W        W24675  14.789   8.124   3.360 -0.2413 -0.2600 -0.0931
11262W        W24676   4.615   8.385  11.680 -0.0079  0.1119 -0.1795
11263W        W24677   1.000   4.945  12.659  0.0560  0.0199 -0.0321
11264W        W24678  11.997  12.345   6.343 -0.3341  0.1207 -0.0594
11265W        W24679   5.642  14.140  11.597  0.0043 -0.1684  0.1222
11266W        W24680   2.581  10.770  11.894  0.1832 -0.3341 -0.1173
11267W        W24681  18.081  15.688   3.507 -0.1506 -0.1360 -0.2974
11268W        W24682  15.647   5.755   3.112  0.2685 -0.2674  0.1811
11269W        W24683   2.499   6.233   1.709 -0.1238  0.2701  0.0391
11270W        W24684   3.143   5.123   3.126  0.2012  0.0425 -0.2090
11271W        W24685  16.583  13.205   3.907 -0.2832 -0.3983  0.1774
11272W        W24686  13.155  12.814  13.154 -0.3208 -0.0456  0.0491
11273W        W24687   7.163  10.290  15.968  0.3470  0.1424 -0.0553
11274W        W24688  15.662   2.009  10.968  0.0453  0.0115  0.3299
11275W        W24689   2.503  12.468   6.012 -0.0062 -0.3016  0.1200
11276W        W24690   8.599   8.953  13.708 -0.0708  0.3427  0.0178
11277W        W24691  16.280  15.632   1.427 -0.5142  0.1116 -0.2569
11278W        W24692  17.928   7.336   1.828 -0.1296 -0.3540  0.1581
11279W        W24693  16.509  10.812  13.434 -0.0032  0.1787  0.2966
11280W        W24694   1.142  10.169  15.089 -0.3146 -0.3124  0.3632
11281W        W24695   7.622   8.153   3.226 -0.2944 -0.2381 -0.0607
11282W        W24696   3.040   5.100   4.171 -0.2637  0.1454  0.2956
11283W        W24697  17.777  13.498  11.783 -0.0783 -0.0445 -0.1815
11284W        W24698  18.258   4.794   4.868  0.1381 -0.3255  0.2042
11285W        W24699  15.602  12.247   3.515 -0.0808  0.2509 -0.0270
11286W        W24700  10.640   5.175   0.308 -0.0903 -0.2857  0.2173
11287W        W24701   5.895   5.586   5.495 -0.2177 -0.2253 -0.0287
11288W        W24702  11.585  13.337   5.490  0.0692  0.0544 -0.0172
11289W        W24703  16.594  18.171   4.606 -0.2205  0.0218 -0.1597
11290W        W24704   1.019   3.851   1.433 -0.2184  0.2985 -0.0940
11291W        W24705   2.899   8.416   3.929  0.5227 -0.2573 -0.0533
11292W        W24706  10.025   9.840  16.246 -0.0086  0.0485 -0.1205
11293W        W24707  12.386  15.654   6.297  0.3178 -0.0157  0.0037
11294W        W24708   5.450   1.799  13.200  0.0877 -0.1596  0.1825
11295W        W24709   6.657  13.916   4.136  0.0810  0.1407  0.1945
11296W        W24710  15.329   3.876   2.640 -0.0315  0.1362 -0.1241
11297W        W24711  10.170  16.427  11.228 -0.2482 -0.1060  0.0966
11298W        W24712  11.465   2.951   0.790  0.1704 -0.0508  0.2120
11299W        W24713  14.266  11.635   5.381  0.0198 -0.1010  0.2145
11300W        W24714   8.115   5.652  11.037  0.2341 -0.0376  0.2390
11301W        W24715  16.165  15.371  12.765 -0.0837 -0.0629  0.0973
11302W        W24716  17.656   8.676  15.410  0.0674  0.0385 -0.0313
11303W        W24717  15.607   6.595  10.268  0.0818  0.1837  0.2103
11304W        W24718  14.593  13.416   4.768  0.3625 -0.1294 -0.1132
11305W        W24719  10.729   9.191  13.839  0.0330  0.2966 -0.0811
11306W        W24720   7.014   2.610  11.027  0.1464  0.0001  0.3653
11307W        W24721  15.949   1.976   0.986 -0.3488 -0.1362  0.3041
11308W        W24722   9.934   4.949  13.867  0.0239 -0.0307  0.1868
11309W        W24723   1.086   6.323   2.580 -0.1057  0.0805 -0.1383
11310W        W24724  12.127   3.405  12.734  0.0391  0.0516  0.0218
11311W        W24725  18.097  11.084  13.786  0.1895  0.3915 -0.0405
11312W        W24726   7.454   5.354   2.099 -0.1875  0.3432 -0.1171
11313W        W24727  18.003  16.330  15.802  0.0510  0.0160  0.1858
11314W        W24728  10.259  13.348  12.025  0.1078 -0.0110  0.0816
11315W        W24729   9.827   5.733  11.641  0.0821 -0.1491  0.2190
11316W        W24730   4.784  15.954   0.831 -0.3165  0.4536  0.0737
11317W        W24731   2.583  10.785  16.547  0.1283  0.1953 -0.0137
11318W        W24732  17.414  15.234   2.144 -0.1800 -0.1272 -0.0363
11319W        W24733  15.865  17.000   2.374 -0.2429 -0.2148  0.1060
11320W        W24734  11.313  13.085   5.086 -0.0988 -0.0926  0.0457
11321W        W24735   2.140   8.306  16.066 -0.0271  0.5427 -0.1001
11322W        W24736  12.327  16.088   0.600 -0.1167  0.0598  0.0820
11323W        W24737   1.291  13.424   5.436  0.1808 -0.1199 -0.2466
11324W        W24738  17.100   3.712  16.446  0.6441  0.2154 -0.1207
11325W        W24739  14.615   1.667   5.628 -0.2979 -0.1555  0.0688
11326W        W24740  15.223   9.537   1.588 -0.0112  0.2753  0.0223
11327W        W24741   8.892  12.137  10.854 -0.1318  0.2298 -0.1318
11328W        W24742   8.016   4.177  16.312  0.0264 -0.1702  0.2930
11329W        W24743   1.592  12.611   2.400  0.0262  0.2381 -0.0788
11330W        W24744   7.525  10.248  13.720 -0.1621 -0.1356  0.1077
11331W        W24745  15.432  12.735  14.796  0.4030 -0.0365  0.3809
11332W        W24746   3.136   6.111  13.739 -0.0111  0.0557  0.0540
11333W        W24747  13.542   7.741  12.424 -0.2439 -0.1617  0.0558
11334W        W24748  10.033   0.098   2.348  0.2131 -0.0171  0.1343
11335W        W24749  14.024   5.241  10.160 -0.1337 -0.3510 -0.2497
11336W        W24750   9.047  13.059   5.584  0.2353 -0.1057  0.2326
11337W        W24751  16.601  18.260  14.254  0.0604 -0.1099 -0.1931
11338W        W24752   1.534   2.466  13.432 -0.0805 -0.2652  0.2392
11339W        W24753  18.273  15.848  16.305 -0.0589  0.0857 -0.1369
11340W        W24754  13.608   3.743  14.983  0.1328 -0.0067  0.6549
11341W        W24755   2.912   4.913  14.981  0.0335  0.1488 -0.2845
11342W        W24756  13.976  12.355   5.367 -0.0518  0.1596 -0.2739
11343W        W24757  11.941   0.489  12.656  0.0570 -0.1435  0.1140
11344W        W24758   9.205   2.176   3.842  0.0054 -0.0327 -0.2296
11345W        W24759   1.315  14.756   4.329  0.0969  0.1504 -0.2069
11346W        W24760   5.390  10.827   5.535 -0.1386 -0.1632 -0.1929
11347W        W24761  15.386  14.399   3.884 -0.2823  0.0509 -0.2739
11348W        W24762  16.595  12.212   5.789  0.3038 -0.1258  0.3304
11349W        W24763  13.578   2.108   1.529  0.1096  0.0918 -0.1389
11350W        W24764   2.953   2.285   3.033 -0.3425  0.3084 -0.1071
11351W        W24765  11.103  12.039  11.915  0.1454 -0.1702 -0.1201
11352W        W24766   5.154  12.727  11.854 -0.1731  0.0754  0.4364
11353W        W24767   9.999   3.315   4.055 -0.0816 -0.0795 -0.0419
11354W        W24768   6.741  13.038  14.391 -0.2459 -0.0664  0.1273
11355W        W24769  17.257   1.671   3.416 -0.2266 -0.2047  0.0147
11356W        W24770  12.005   6.601  12.116 -0.0041  0.0210 -0.3292
11357W        W24771  17.149  18.073  11.358 -0.0064 -0.3837  0.2622
11358W        W24772   6.383  16.993  12.388 -0.1705 -0.1589 -0.0928
11359W        W24773   8.132  12.116  12.454  0.0901 -0.1964  0.0570
11360W        W24774  11.298   8.262  15.684  0.0255  0.2178 -0.3488
11361W        W24775  17.852   7.146  16.085 -0.2601 -0.0556 -0.1700
11362W        W24776  18.054  10.597   0.352 -0.2965 -0.1510 -0.1651
11363W        W24777  16.042  12.279   2.937  0.1906 -0.2521 -0.3032
11364W        W24778   6.793  15.779   5.386 -0.2011 -0.0613 -0.1603
11365W        W24779   1.653   3.309   4.623  0.0812 -0.0948 -0.0248
11366W        W24780  16.803  11.809   1.868 -0.3503 -0.2745 -0.1781
11367W        W24781  14.655   8.327   5.066 -0.0071 -0.2976  0.2757
11368W        W24782  12.089  17.957   6.013  0.4217  0.0069 -0.2052
11369W        W24783   2.481   7.654  12.906  0.4227  0.0814 -0.2171
11370W        W24784   6.149   8.386  13.598  0.1048 -0.0361  0.1573
11371W        W24785  18.258  10.737   4.785 -0.1968 -0.0781 -0.0608
11372W        W24786  15.575   7.414   1.897  0.0448  0.0207  0.0428
11373W        W24787   4.814   6.507  16.554 -0.2129 -0.4546  0.0372
11374W        W24788  14.531   2.572  16.062  0.2362 -0.0093 -0.0132
11375W        W24789   6.117  14.367  15.152 -0.1648 -0.1484  0.3096
11376W        W24790  12.513  10.476  15.131  0.0463  0.2167  0.1786
11377W        W24791   6.400   6.930  10.555 -0.2220 -0.1004 -0.1129
11378W        W24792   3.106   6.315  10.601 -0.0496 -0.1334  0.1448
11379W        W24793   2.831  14.257   2.257  0.0842 -0.0245 -0.0288
11380W        W24794  17.030  14.864   2.968 -0.0473  0.0270 -0.0155
11381W        W24795  17.742  14.490   5.278 -0.1089 -0.0563 -0.2242
11382W        W24796   2.255   1.049   2.367  0.0746 -0.2108  0.0011
11383W        W24797   6.779   1.099  13.497  0.1022  0.1247  0.0894
11384W        W24798   9.798   2.195   2.862  0.2162 -0.1467 -0.1112
11385W        W24799   5.527  15.042   5.276 -0.4125  0.0924  0.3796
11386W        W24800   6.015   8.132   2.327 -0.1782  0.0251  0.2550
11387W        W24801   1.375  11.192   2.993  0.0134  0.1246 -0.3298
11388W        W24802   8.617   3.166   2.703  0.4086 -0.0684  0.2034
11389W        W24803   2.378   0.739   5.884 -0.0282  0.1659 -0.2132
11390W        W24804   5.263   3.726   6.127  0.1609  0.1722  0.1640
11391W        W24805   5.697   3.531   6.012  0.1300  0.2856  0.1088
11392W        W24806   2.068   4.613  12.471 -0.1666  0.1966  0.0729
11393W        W24807  16.619   0.424  15.416 -0.0077 -0.1381  0.5663
11394W        W24808   9.589   5.217   2.038 -0.1840  0.1065  0.1281
11395W        W24809  12.367   4.330  14.798 -0.3692  0.2817  0.1160
11396W        W24810  10.465  15.493   3.345 -0.1248 -0.2748  0.2721
11397W        W24811  11.005   1.493   5.897 -0.1760  0.0138 -0.2949
11398W        W24812  10.727   3.464   5.051 -0.1998  0.0813  0.1548
11399W        W24813  15.795   3.593   2.349 -0.1850 -0.1938 -0.2182
11400W        W24814  17.120   6.891   0.138 -0.0090 -0.3203 -0.4384
11401W        W24815   2.248   8.316  14.388 -0.0889  0.2047  0.1477
11402W        W24816   3.816   1.983   1.592  0.2108 -0.2088 -0.4760
11403W        W24817   2.857   9.196   3.990  0.3544  0.1270  0.2799
11404W        W24818  11.332  11.775   3.153  0.0517  0.1973 -0.1599
11405W        W24819  14.896  15.676   2.796  0.2579  0.3480  0.0085
11406W        W24820  13.003   1.830  11.185 -0.1391 -0.0232 -0.2193
11407W        W24821  10.885  12.299  11.475 -0.1559  0.1311 -0.2267
11408W        W24822   9.277   2.902  16.095  0.5062 -0.0614  0.0830
11409W        W24823   7.042  15.496  15.833 -0.2085 -0.0926 -0.0902
11410W        W24824   3.812  14.947   4.756  0.1096  0.0805 -0.0232
11411W        W24825  17.615   9.974  12.713 -0.1044  0.2026  0.3265
11412W        W24826  15.601  13.139   5.170 -0.0039 -0.0366 -0.5190
11413W        W24827   5.665  10.897  16.561 -0.2585  0.0389  0.1322
11414W        W24828   8.269  12.046   1.140  0.0633  0.2584 -0.2135
11415W        W24829  15.798   9.314   2.878  0.1475  0.1002  0.0749
11416W        W24830   2.092   7.620   4.590  0.1336  0.4249 -0.0047
11417W        W24831   9.955   8.989  12.364 -0.4473 -0.1388  0.1349
11418W        W24832   3.914   3.361   4.454 -0.1180 -0.3076 -0.0756
11419W        W24833  17.655   9.924   9.942  0.0073 -0.0361 -0.2911
11420W        W24834  17.200  14.751   2.153 -0.0597  0.0884  0.1109
11421W        W24835   2.677   7.219  16.546  0.3207 -0.0372  0.2223
11422W        W24836  11.047   9.278  10.581 -0.1234  0.0565  0.0651
11423W        W24837   1.387   0.042   4.246 -0.1616 -0.1097 -0.3995
11424W        W24838   0.370  11.042  11.977  0.5809 -0.1380  0.0342
11425W        W24839  11.551  13.363   2.896  0.2536 -0.0654 -0.0065
11426W        W24840  11.191   5.555  14.953  0.3277 -0.0807 -0.0535
11427W        W24841   6.622   5.211  10.864  0.1442 -0.4043 -0.2570
11428W        W24842  18.128  15.878   2.296  0.2766 -0.1321  0.0522
11429W        W24843  14.772   4.216   5.895 -0.0329  0.3043  0.0255
11430W        W24844   6.289  17.145   4.529  0.3125 -0.0935 -0.1479
11431W        W24845   9.520  17.290   4.560 -0.2011 -0.0082  0.0913
11432W        W24846   8.162   4.465  14.189 -0.4784  0.2610  0.1001
11433W        W24847  11.849   4.926   3.142  0.0612  0.1279 -0.3058
11434W        W24848  17.391   7.701   6.102 -0.0121  0.2715  0.0636
11435W        W24849  17.130   2.403  10.804  0.0745 -0.1307  0.0623
11436W        W24850  13.692   5.530   3.366 -0.0684  0.0866  0.1562
11437W        W24851  10.517  11.975   5.201 -0.1772  0.0349 -0.1029
11438W        W24852   1.569  10.919  13.375  0.4355 -0.0685 -0.1082
11439W        W24853  18.184  11.191  14.270  0.1033  0.2250  0.0745
11440W        W24854   9.807   9.045  10.799 -0.1302 -0.2332  0.1188
11441W        W24855   9.057  12.163   1.697 -0.3090  0.1676 -0.3184
11442W        W24856  12.448  14.323   4.449  0.1149 -0.1877 -0.2165
11443W        W24857  14.185   9.630   0.626 -0.0671 -0.0929  0.2268
11444W        W24858   2.216  15.153  11.687  0.1179 -0.0243 -0.0497
11445W        W24859   0.776   7.253  14.674 -0.2121  0.2653 -0.1295
11446W        W24860  17.925  13.525  11.183 -0.2967 -0.1382 -0.1494
11447W        W24861   0.867   4.850   0.613  0.0824 -0.2571 -0.0578
11448W        W24862  16.789  16.691   5.622 -0.0375  0.3459  0.0381
11449W        W24863   6.973   7.302  15.903 -0.3940  0.0255 -0.1850
11450W        W24864   4.959   1.480  13.985  0.0941 -0.0378 -0.2907
11451W        W24865  11.858  15.473   1.132 -0.1476  0.2106  0.1273
11452W        W24866   6.772   0.545  11.206 -0.0379  0.0625  0.0341
11453W        W24867   3.742  13.471  12.407 -0.2238  0.2033  0.1468
11454W        W24868   7.083  12.440   4.524 -0.2614  0.0937 -0.3960
11455W        W24869  10.478  10.224  15.361 -0.2594  0.1286  0.0186
11456W        W24870  11.572   1.208   1.450  0.2258 -0.1601  0.0777
11457W        W24871  15.945  14.072  10.243 -0.2207  0.0796 -0.0038
11458W        W24872   0.165   6.286   3.536 -0.1041 -0.3665  0.2463
11459W        W24873  12.678  14.122   0.435 -0.0158  0.0102  0.0024
11460W        W24874   4.166  16.268   1.507  0.4188 -0.1935  0.1511
11461W        W24875  12.535   5.985  13.425  0.0292 -0.0162  0.3192
11462W        W24876  14.527   5.085  13.292  0.0883  0.1608  0.0736
11463W        W24877   4.384   6.709  16.376 -0.1259 -0.0442  0.0791
11464W        W24878  11.515  17.983  13.779  0.4818 -0.0985  0.2697
11465W        W24879   5.852  15.993   3.985  0.1642  0.1758 -0.1155
11466W        W24880   3.797   3.467  13.671 -0.0487  0.2481 -0.0256
11467W        W24881  12.325  13.374  13.118  0.1432  0.0230  0.2494
11468W        W24882  12.020   0.651  14.854  0.2075  0.0442  0.3132
11469W        W24883  13.468   3.965  14.447 -0.3653 -0.0487  0.0335
11470W        W24884  12.552   0.330   3.482 -0.3073  0.0721  0.1718
11471W        W24885   5.932   1.070  13.457  0.0542 -0.1468 -0.1145
11472W        W24886  13.769   5.994  11.851 -0.0946  0.1207  0.0351
11473W        W24887   1.897  14.704   1.205  0.1820 -0.0287 -0.0044
11474W        W24888  11.575  13.892   2.724 -0.1363 -0.2938  0.0026
11475W        W24889   2.973   7.488   2.419  0.1565 -0.0999  0.1742
11476W        W24890  15.280  14.405  12.535 -0.1272  0.2948 -0.0557
11477W        W24891  13.755   2.630   6.088 -0.0201 -0.2452 -0.3512
11478W        W24892   5.335  12.711   0.109  0.3319 -0.2796  0.0668
11479W        W24893   9.553   8.437  13.982 -0.1067 -0.0990  0.1012
11480W        W24894  15.325   6.544  14.202  0.0390 -0.0720  0.2074
11481W        W24895  13.319  17.750  13.579 -0.0672  0.3232  0.1409
11482W        W24896   6.864   8.092  14.655  0.3580 -0.0732  0.0155
11483W        W24897   0.374   3.109  15.302 -0.1639  0.1987 -0.1899
11484W        W24898   4.148   0.007   3.353 -0.2411 -0.4302  0.0296
11485W        W24899  16.151   4.234   5.292  0.1934  0.2666 -0.1276
11486W        W24900   9.591  12.937   1.775 -0.0622  0.1292  0.0981
11487W        W24901  16.739   1.685  14.401 -0.2127 -0.3262  0.0102
11488W        W24902  11.706  16.976   4.919 -0.2934  0.0718 -0.1747
11489W        W24903  12.756   8.289   3.350 -0.0570 -0.0802  0.0277
11490W        W24904  14.180  15.377  13.393  0.2284 -0.0880  0.1509
11491W        W24905  16.394   1.439   1.940  0.0389  0.1942  0.0056
11492W        W24906  15.054   4.288   3.347 -0.2640  0.0751 -0.0822
11493W        W24907   9.546   4.211   5.606  0.2043  0.0249  0.0670
11494W        W24908  11.207   9.130   2.906  0.3704 -0.0713 -0.1740
11495W        W24909   4.798  12.052   1.169 -0.1599 -0.1992  0.1260
11496W        W24910   0.023  11.856   3.093  0.0406  0.0390  0.2684
11497W        W24911   0.872   4.579  11.912  0.2852  0.0428  0.0045
11498W        W24912   5.515   3.386  12.551 -0.1063 -0.1061  0.0253
11499W        W24913  17.317  15.817   4.781  0.1079  0.2851 -0.2901
11500W        W24914  16.772  12.377  15.282  0.1493  0.2790 -0.3383
11501W        W24915  11.534   0.952  15.765 -0.1050 -0.3427  0.0303
11502W        W24916   7.602   1.438   4.180 -0.3092 -0.1769 -0.1611
11503W        W24917  16.129   5.862  16.035  0.0511  0.0972 -0.1045
11504W        W24918   0.468  16.818  11.148 -0.0326  0.1870  0.0807
11505W        W24919  12.585  16.976   6.907  0.1625  0.1249  0.0716
11506W        W24920   4.951   7.818   5.508 -0.1561  0.1486  0.2057
11507W        W24921   9.021   5.853  11.267  0.0532 -0.0066  0.2086
11508W        W24922  17.999   0.336  13.797 -0.0999 -0.1274  0.0259
11509W        W24923   6.311   0.955   2.717 -0.3025 -0.1001  0.5026
11510W        W24924  13.265  18.242   3.542  0.0721 -0.0435  0.2013
11511W        W24925  17.149  11.494   5.978  0.4186 -0.0350 -0.2211
11512W        W24926   4.212  12.542   2.861  0.0708 -0.0115  0.0062
11513W        W24927   4.509   2.914  12.611  0.0208  0.1803 -0.2550
11514W        W24928  11.713   1.142   0.031 -0.4640  0.0715  0.0137
11515W        W24929  14.031   5.201  11.456  0.0139 -0.0926  0.1335
11516W        W24930  16.054   4.102  12.170  0.2395  0.5323  0.3192
11517W        W24931   8.298   9.356  10.214  0.3135  0.1709 -0.2028
11518W        W24932   5.262   7.022   5.126 -0.2633  0.2428  0.2174
11519W        W24933   0.801   9.036   0.992  0.1224  0.0954  0.0874
11520W        W24934   3.332   4.168   5.278 -0.1968  0.3763  0.0503
11521W        W24935   3.529  16.845  10.037  0.0352 -0.0373 -0.1322
11522W        W24936   9.220  16.430   6.329 -0.1738  0.1291 -0.2407
11523W        W24937   7.498   9.696   4.135  0.0767  0.1448 -0.0114
11524W        W24938  15.280   5.422  11.669  0.0550 -0.3720  0.2848
11525W        W24939   1.288   6.021   2.168  0.0959 -0.1865  0.0177
11526W        W24940  15.742  14.682   2.650 -0.1300  0.1024 -0.0777
11527W        W24941   0.044   7.690  14.049  0.2603 -0.3346 -0.1517
11528W        W24942  14.959   3.108   1.464 -0.1835  0.1030  0.0395
11529W        W24943   0.431   9.651   1.981  0.2203 -0.0276  0.0646
11530W        W24944   8.563   3.624  10.430  0.0601 -0.2753 -0.2197
11531W        W24945   1.600   1.351  12.849 -0.5180 -0.2665 -0.0802
11532W        W24946   4.230   9.764   1.052  0.3607 -0.1017 -0.0214
11533W        W24947  17.871  11.658   2.891  0.1226 -0.3624 -0.2448
11534W        W24948  11.310  11.387   5.469  0.0614 -0.0936  0.0904
11535W        W24949  15.680  13.700   3.376 -0.4361 -0.2244  0.0585
11536W        W24950   4.220  16.700  11.408  0.2955 -0.4053 -0.0094
11537W        W24951   4.078   0.575   5.546 -0.0855  0.1287  0.2010
11538W        W24952   2.890   7.370   3.254  0.2378  0.0317 -0.0048
11539W        W24953  14.525  12.007   1.617  0.1288  0.1642 -0.3121
11540W        W24954   8.184   4.006  12.392  0.1409  0.3255  0.1209
11541W        W24955   1.924  16.824   0.324  0.1034  0.2175 -0.0271
11542W        W24956  11.850   3.721  15.448  0.0635 -0.0861  0.1770
11543W        W24957   6.391   4.934   5.133  0.1645 -0.0295  0.1561
11544W        W24958  14.412  17.315   4.997 -0.0135 -0.2607 -0.1821
11545W        W24959   9.812  13.070  16.501 -0.0021 -0.0207  0.2923
11546W        W24960   4.408   6.399  13.152 -0.0777 -0.0060 -0.2299
11547W        W24961  17.805   8.664   5.262  0.2364 -0.0565 -0.1384
11548W        W24962   7.834   2.478   4.673  0.1253  0.1445  0.1196
11549W        W24963   1.056   1.272   1.052 -0.1159 -0.1778  0.3838
11550W        W24964   0.710  14.871   0.668 -0.3161  0.3086  0.0320
11551W        W24965   6.032  15.010   4.600  0.0116  0.2429  0.1462
11552W        W24966   8.212   5.350  14.958  0.0858 -0.1476  0.1742
11553W        W24967  18.268   9.615   6.301  0.0567  0.2383  0.1101
11554W        W24968  14.931   9.382  10.425  0.0936  0.2479  0.1639
11555W        W24969  16.489   4.836  11.766 -0.1041 -0.0245 -0.0026
11556W        W24970  14.114   1.982  11.689 -0.0125 -0.2916 -0.3160
11557W        W24971   2.369   9.215   4.222  0.1719 -0.0701  0.3077
11558W        W24972   7.166  15.569  10.049  0.1543  0.0395 -0.1726
11559W        W24973  17.787  12.166   3.956  0.1585  0.0672  0.0520
11560W        W24974  17.985   6.386   2.334 -0.1622 -0.0493  0.1643
11561W        W24975  10.831  16.790   2.788  0.0277  0.2242 -0.0404
11562W        W24976  14.082  16.785  16.393  0.3312  0.2377 -0.0695
11563W        W24977  17.673   3.082   3.503  0.3141  0.1752  0.0961
11564W        W24978   8.296  10.484   5.751  0.2130  0.0242  0.0932
11565W        W24979   3.067   3.259  13.920  0.0563 -0.1519 -0.0154
11566W        W24980   3.208  17.510   5.758  0.1025 -0.0875  0.1867
11567W        W24981  10.060   2.654   6.193  0.1206  0.2273  0.2523
11568W        W24982  10.589   2.541  13.034 -0.1385  0.0969 -0.0181
11569W        W24983   0.140  14.313   0.326 -0.0146  0.0521 -0.3422
11570W        W24984  10.409  11.232   6.745  0.0964 -0.0417  0.0095
11571W        W24985  14.040  17.646   6.243  0.1544  0.2066 -0.1384
11572W        W24986   9.362   0.582  11.248  0.2696 -0.1255 -0.2399
11573W        W24987   4.418   7.165   4.846 -0.0786  0.0010 -0.2033
11574W        W24988  13.492  10.284  13.549 -0.0514 -0.5331  0.0338
11575W        W24989   9.312   9.341  12.485 -0.1516  0.1661 -0.3020
11576W        W24990  12.532   9.758  13.456 -0.1242 -0.5065  0.2839
11577W        W24991   2.382  10.331  16.422  0.1112 -0.0576  0.1266
11578W        W24992  16.800   3.886  10.574 -0.2588  0.0993  0.1739
11579W        W24993  17.678   4.662   4.584 -0.2156  0.0576 -0.2478
11580W        W24994  10.598  16.865   0.374 -0.1510  0.0898  0.0785
11581W        W24995  14.976   9.434   2.026 -0.2791 -0.2944 -0.2515
11582W        W24996   2.668  15.082  16.026  0.0059 -0.3929 -0.1804
11583W        W24997  13.634  13.515  16.489 -0.3155 -0.0462  0.2561
11584W        W24998   4.105   1.930   2.348 -0.0080  0.1419  0.1200
11585W        W24999   7.442   7.356  12.291 -0.3948  0.1562 -0.0766
11586W        W25000  13.956   3.467   2.015 -0.2376 -0.1525 -0.0470
11587W        W25001   6.975  11.995  15.402 -0.1474  0.0910  0.0055
11588W        W25002   0.432  17.531  15.780 -0.2504  0.2344  0.0973
11589W        W25003   4.276  10.131   0.023 -0.0443 -0.2048  0.1525
11590W        W25004   6.050   3.170   1.470 -0.0796  0.1785  0.0921
11591W        W25005  14.775   3.478  11.059 -0.2623  0.0732 -0.1277
11592W        W25006   5.092  17.943   1.105  0.2184  0.1446  0.1573
11593W        W25007  17.666   2.781  10.151  0.0526 -0.1692  0.1605
11594W        W25008  12.615  10.603  12.492 -0.2045  0.2586  0.0486
11595W        W25009  13.847  17.193   0.616 -0.2486 -0.1066 -0.4255
11596W        W25010   4.349  15.118  13.337  0.0466  0.2755 -0.1095
11597W        W25011   6.226   8.858   0.903 -0.4309 -0.0149  0.1269
11598W        W25012  14.472   6.534  13.752  0.1151 -0.0598 -0.0799
11599W        W25013   4.299  10.614   4.216 -0.1751 -0.0529 -0.2257
11600W        W25014  14.658   1.969  10.662  0.0223 -0.1007 -0.1975
11601W        W25015  14.676  10.836  11.010  0.3194 -0.1635 -0.1146
11602W        W25016   6.515   3.032   6.454 -0.1316  0.0539  0.3313
11603W        W25017   3.432   6.541  13.867  0.0799 -0.2459  0.0358
11604W        W25018  14.040   1.140  13.565  0.2121 -0.0916  0.1286
11605W        W25019  11.712  12.758  14.701 -0.1943 -0.0096 -0.0426
11606W        W25020   6.977  13.966  13.230 -0.2043  0.0334 -0.0292
11607W        W25021   4.186  17.900  12.758  0.3993 -0.4304 -0.0675
11608W        W25022  10.188   2.461   2.841 -0.1397 -0.2030  0.0185
11609W        W25023   2.848   4.366  16.421  0.1560 -0.2078  0.3065
11610W        W25024  10.863  13.676  13.120  0.0762 -0.2145 -0.0763
11611W        W25025   4.944   1.089   5.948  0.1784  0.1615  0.1474
11612W        W25026  18.190  18.143   4.670  0.0198  0.1036 -0.3383
11613W        W25027  15.690   4.198  14.037 -0.0454  0.2733 -0.0413
11614W        W25028   5.455   3.595  13.781  0.0628  0.0911 -0.1595
11615W        W25029  11.682  14.889   3.201 -0.0937 -0.0993 -0.0157
11616W        W25030  12.841   2.894  16.308  0.2496 -0.3593 -0.1570
11617W        W25031   6.758   4.799   2.367  0.3336 -0.3022  0.2505
11618W        W25032   3.927   9.168  11.199  0.0555 -0.0063 -0.2028
11619W        W25033  12.903   4.492  11.072 -0.0402  0.2227 -0.1794
11620W        W25034  17.944   0.285   0.968  0.1828  0.0996 -0.0631
11621W        W25035   4.289   2.356   2.633  0.0762  0.2710 -0.3036
11622W        W25036   9.406   0.251  15.333  0.2472 -0.1126 -0.3114
11623W        W25037   5.697   6.270  10.074  0.2369 -0.0812 -0.0254
11624W        W25038  17.359   5.454   4.852 -0.2273 -0.0662  0.3754
11625W        W25039  11.305  16.407   1.067  0.0453 -0.0089 -0.0766
11626W        W25040   6.918  15.342  11.458  0.1710  0.0540 -0.0603
11627W        W25041  17.260  12.792  14.543 -0.1751  0.1755 -0.0530
11628W        W25042  17.201  16.542  14.373 -0.1442 -0.0743 -0.1335
11629W        W25043  10.862  15.896   6.018 -0.0396  0.3588  0.0756
11630W        W25044  11.561  10.870   3.463  0.0155 -0.1441 -0.2730
11631W        W25045  14.538  11.263  14.159 -0.2327  0.1602 -0.0860
11632W        W25046  13.362  16.479   1.967 -0.0045  0.1518  0.1262
11633W        W25047  18.024   0.873   0.975  0.0552  0.0476  0.1073
11634W        W25048   7.210   4.345   1.612 -0.0827 -0.2888 -0.2114
11635W        W25049  15.945  16.961  14.118 -0.2042 -0.2701 -0.1053
11636W        W25050   5.802  16.508  11.916  0.2530 -0.2075  0.0915
11637W        W25051  13.833  12.336  11.463  0.1178 -0.2173 -0.0290
11638W        W25052   5.288   8.532  13.985  0.3847 -0.0282 -0.2095
11639W        W25053  16.230   9.885   0.375  0.0196 -0.1965 -0.0900
11640W        W25054   9.978   9.038  15.279  0.1060 -0.0798  0.1045
11641W        W25055   5.452  14.869  11.135 -0.0573  0.0977 -0.0177
11642W        W25056  11.080  11.336   2.796 -0.1513  0.0263 -0.1747
11643W        W25057   8.268   6.196   4.022  0.1756 -0.1016  0.1563
11644W        W25058  14.619   4.917  15.974  0.1864 -0.1081  0.0506
11645W        W25059   5.918  16.373  13.493  0.1002  0.2468  0.2329
11646W        W25060   8.191   3.219  12.875  0.2470  0.2299  0.1096
11647W        W25061  16.394   6.637  11.255 -0.2506  0.1026  0.3481
11648W        W25062   6.306  15.231   2.802  0.0262 -0.1060  0.2968
11649W        W25063   8.243   7.227  14.984 -0.0075 -0.0062  0.1075
11650W        W25064  12.581   1.955  11.557 -0.1234  0.0929  0.0352
11651W        W25065  13.536  14.272  15.767  0.2235 -0.3277  0.0173
11652W        W25066  15.951  10.014   1.211 -0.4064  0.1129 -0.2819
11653W        W25067   1.716  11.978   2.428  0.2148 -0.0936  0.0921
11654W        W25068  16.306   6.042  12.678 -0.0850  0.0274 -0.1019
11655W        W25069   5.063   5.045   3.392 -0.3172  0.1218  0.1385
11656W        W25070  10.252  11.400   3.465 -0.3837  0.2910  0.0143
11657W        W25071   4.893  11.259   5.903  0.2717 -0.1677  0.1110
11658W        W25072   1.821   7.156  14.067  0.0978  0.1361  0.1156
11659W        W25073   4.000  14.286  14.631 -0.0059  0.5539  0.1677
11660W        W25074   4.891   9.966   2.322  0.0124  0.1816 -0.1349
11661W        W25075  17.119  12.620  15.044  0.1813  0.0141  0.0798
11662W        W25076   3.579   6.250  16.165 -0.0816  0.1079  0.0931
11663W        W25077  10.501  15.582   0.374  0.1411 -0.0669 -0.0637
11664W        W25078   3.550  12.589  12.107 -0.0097  0.1375 -0.1232
11665W        W25079   0.324   4.644   4.477  0.0891 -0.0954 -0.0987
11666W        W25080   6.018  17.325  13.782 -0.1330 -0.0634  0.0153
11667W        W25081  12.808  17.247  12.778  0.5105  0.3541  0.1129
11668W        W25082  14.447   5.908   2.841 -0.1607  0.1331 -0.0409
11669W        W25083  12.497   6.254   5.231 -0.1694  0.4469 -0.1409
11670W        W25084  14.913   6.456  16.394  0.1817 -0.0416  0.1716
11671W        W25085   8.257   2.714   1.377  0.0255  0.0263 -0.0176
11672W        W25086  17.120  18.020   4.557  0.0420  0.3322  0.1551
11673W        W25087   2.515  12.883   2.035 -0.0189  0.2120 -0.0098
11674W        W25088  12.880   8.931   4.440  0.1307 -0.2268 -0.1940
11675W        W25089  15.149   2.909   0.161  0.3022  0.0568 -0.1554
11676W        W25090   6.178   2.927   5.964 -0.0704 -0.1441  0.2418
11677W        W25091   2.908   1.235  12.044 -0.0343 -0.2562  0.0801
11678W        W25092   2.050  14.306  11.754 -0.2080  0.1462  0.0175
11679W        W25093  11.152  13.723   2.250 -0.0189  0.1510 -0.1606
11680W        W25094  15.035  12.655  15.271 -0.0558 -0.0841  0.0522
11681W        W25095  14.945  17.757  15.741  0.2758  0.2024  0.1180
11682W        W25096   2.201   3.580  11.138  0.0046 -0.0080  0.0238
11683W        W25097   8.539  13.397   5.554 -0.1555 -0.0402 -0.0337
11684W        W25098  14.969   0.634   5.842 -0.0402 -0.1187  0.2974
11685W        W25099   7.465   5.441  10.888  0.2580  0.0382 -0.2731
11686W        W25100  17.272   7.601  12.480  0.2015  0.1670 -0.0509
11687W        W25101   3.070   1.555   4.292 -0.0423  0.2188  0.1603
11688W        W25102   2.672  12.580  11.919  0.2582  0.2150  0.2230
11689W        W25103   3.483   9.650   3.695 -0.0883 -0.4004 -0.0270
11690W        W25104   6.054   5.937   2.717 -0.0023  0.0400  0.1466
11691W        W25105   2.717   7.005   4.923 -0.0703 -0.0055  0.1224
11692W        W25106   9.803  14.937   3.590  0.2827 -0.0081  0.0470
11693W        W25107  11.013   3.347   4.026  0.1302 -0.0052 -0.1097
11694W        W25108   0.622   6.451  13.833 -0.0825 -0.0964 -0.1653
11695W        W25109   3.572   9.062  14.398 -0.0746  0.0060 -0.3177
11696W        W25110   7.835   4.550  13.261 -0.1475 -0.1407  0.0468
11697W        W25111   9.699   1.900   6.612 -0.1074 -0.1424 -0.0532
11698W        W25112  11.890   1.570   4.413 -0.2407 -0.0559 -0.0900
11699W        W25113  18.237  15.366  15.300  0.1010  0.0120 -0.0833
11700W        W25114   1.081   8.043  13.284  0.2054 -0.2274  0.0515
11701W        W25115   9.039   3.737   3.232 -0.3244 -0.0671  0.0446
11702W        W25116  14.184   8.206  15.118  0.1557 -0.4255  0.0241
11703W        W25117  18.149   2.535  11.955 -0.2668 -0.1252  0.0782
11704W        W25118  15.087   0.596  16.131  0.0557 -0.2043 -0.0874
11705W        W25119  12.755  12.407  11.016  0.3056 -0.2784 -0.2389
11706W        W25120  17.268   2.330   1.839  0.3960  0.0045  0.0525
11707W        W25121  17.000   5.903  15.463  0.3239  0.3952  0.2353
11708W        W25122   0.060   5.087   3.292  0.1088 -0.1099  0.0095
11709W        W25123   9.607   0.724  15.310  0.1735 -0.0868  0.0187
11710W        W25124   0.691   0.048   2.750  0.0717 -0.2349  0.0206
11711W        W25125   7.053  17.899   5.291 -0.1411  0.5571  0.1606
11712W        W25126   7.707   2.562   4.022 -0.2703 -0.0134  0.0747
11713W        W25127  18.263  14.916   2.599 -0.0742  0.1938  0.0558
11714W        W25128   1.851   3.923  11.354 -0.0193  0.1231  0.0106
11715W        W25129  14.644   4.729   4.004  0.3812  0.2685 -0.1216
11716W        W25130  14.102  10.666  13.650  0.0305 -0.2951 -0.1208
11717W        W25131  11.063   5.268  12.991  0.2070  0.2638  0.2168
11718W        W25132  17.646  15.750  13.791  0.1102 -0.1066 -0.0619
11719W        W25133   7.339  14.780  14.827  0.1780  0.1657 -0.1002
11720W        W25134   9.368   4.719  16.214  0.2042 -0.0833 -0.4127
11721W        W25135   0.535  15.083  10.897 -0.3305  0.2525  0.1700
11722W        W25136  16.678   7.892   9.745 -0.3625  0.1241 -0.1608
11723W        W25137   5.140  11.495  11.235  0.1014  0.1684 -0.1607
11724W        W25138  14.270  12.429   5.822 -0.3161 -0.0930  0.0740
11725W        W25139   2.163   8.324   3.709 -0.3625 -0.0018  0.1572
11726W        W25140   2.524   0.273   1.012  0.0957 -0.1605 -0.0761
11727W        W25141  12.702   0.579  15.136 -0.0529  0.0614 -0.1402
11728W        W25142   7.597   4.357  16.413 -0.0319 -0.0104 -0.0871
11729W        W25143   6.599   2.469  14.374 -0.1951 -0.1114  0.0288
11730W        W25144   1.953   9.733  10.786 -0.1411 -0.2172  0.1655
11731W        W25145  16.946   3.456   3.555  0.0900 -0.1332 -0.2533
11732W        W25146   6.076   0.559   0.989  0.0213 -0.0534  0.0739
11733W        W25147   6.011  17.764   2.347  0.2395  0.3123 -0.4816
11734W        W25148   5.663   0.910   1.044  0.1039 -0.1766  0.0891
11735W        W25149   2.084   4.566  13.845  0.1941 -0.0647 -0.0550
11736W        W25150   8.337  10.445   3.022 -0.1595  0.1377 -0.1332
11737W        W25151  17.572   3.551   2.499  0.3758 -0.1345  0.1279
11738W        W25152   3.443   9.675  14.342 -0.2105 -0.1707 -0.0528
11739W        W25153  14.690  12.867  12.499 -0.0484  0.1835 -0.0960
11740W        W25154  12.881  17.373   0.929  0.2995  0.0015  0.5521
11741W        W25155   7.281  18.284   3.779  0.2288  0.1150  0.1258
11742W        W25156   6.202  14.212  12.282  0.0698 -0.1483  0.2507
11743W        W25157   6.659   0.331   3.295  0.0821 -0.0608 -0.1064
11744W        W25158   2.889  14.855   4.843  0.0361 -0.1722 -0.0536
11745W        W25159  15.540  15.730   5.163  0.1545 -0.1701 -0.2117
11746W        W25160   8.500  16.043   5.505  0.1610  0.0699  0.0008
11747W        W25161   7.464  15.948  11.360 -0.0214  0.0372 -0.0016
11748W        W25162  15.277  10.613   1.465 -0.3469  0.0710  0.2589
11749W        W25163   6.942  16.608  15.779 -0.0324  0.4578 -0.1722
11750W        W25164   9.566   5.513  11.982 -0.0243  0.0716  0.0713
11751W        W25165   7.070   5.424   1.779 -0.1487  0.3058 -0.1507
11752W        W25166   3.303   3.935   1.879  0.0239  0.6211  0.2092
11753W        W25167  13.219   2.349  15.429  0.0362  0.1280 -0.0900
11754W        W25168   1.384  15.756   5.326 -0.3116 -0.1251  0.0270
11755W        W25169   4.055  15.698  12.726  0.1736 -0.0310  0.2968
11756W        W25170   9.399   0.369  11.756  0.1760  0.0447 -0.0562
11757W        W25171  16.729   5.058   4.441 -0.0488 -0.0566 -0.0817
11758W        W25172   6.787  12.444   3.224  0.1050  0.0744  0.0702
11759W        W25173  14.379   5.921   1.901  0.1134  0.1820 -0.2344
11760W        W25174  15.147   8.126   0.142 -0.1101 -0.1286 -0.1297
11761W        W25175   3.166  16.131  13.016  0.0089  0.3544 -0.2859
11762W        W25176  11.536   1.257   0.897  0.1898 -0.0465  0.2857
11763W        W25177   5.206  17.628   4.272 -0.0582 -0.4495 -0.1714
11764W        W25178   6.826   6.994   4.333  0.0090  0.0391 -0.0149
11765W        W25179  13.786  12.827  12.328  0.2594 -0.0180  0.1459
11766W        W25180  13.380   5.614   4.208 -0.2315 -0.2357  0.3381
11767W        W25181  11.273   6.256  10.756 -0.1105 -0.0889 -0.1299
11768W        W25182   1.040   4.830  11.184 -0.2858 -0.0765 -0.0442
11769W        W25183  11.267   8.194   3.334 -0.1727  0.1926 -0.0106
11770W        W25184  10.494  10.101   5.282  0.2674  0.1409  0.1475
11771W        W25185   5.924  13.836   1.595  0.0310 -0.2804  0.2530
11772W        W25186   1.685   2.376   1.530  0.0639  0.0587  0.5159
11773W        W25187  14.091  12.320   6.376  0.0348  0.0130  0.4160
11774W        W25188  15.679   1.977   0.431 -0.0152  0.2455 -0.2836
11775W        W25189   2.435   9.620   3.490  0.2007 -0.0248  0.2198
11776W        W25190  13.525   0.637  12.151  0.1173  0.2983 -0.0108
11777W        W25191  11.073   2.216   1.721  0.1628 -0.0417  0.2793
11778W        W25192  16.364  13.662   0.095  0.0881  0.0189  0.0824
11779W        W25193  18.102   0.955  14.547  0.0986 -0.1751  0.2544
11780W        W25194   1.097   4.507   3.088  0.2394  0.0158  0.1215
11781W        W25195  13.274  10.597   0.234 -0.0922 -0.1461 -0.4083
11782W        W25196  11.802  13.427   1.467  0.0531 -0.2532  0.0334
11783W        W25197  17.758   9.123   4.770  0.3833 -0.3724 -0.0098
11784W        W25198  10.867   4.062  13.208 -0.0401 -0.0452  0.0419
11785W        W25199  13.108   9.481   1.714  0.1818  0.0851  0.2979
11786W        W25200   7.894  17.171   1.428 -0.1527  0.1315  0.0476
11787W        W25201   2.393  14.321   3.059 -0.0316 -0.0394 -0.1599
11788W        W25202   1.517   9.828  10.542  0.0812 -0.1486  0.1106
11789W        W25203   1.412  16.034  12.893  0.0959 -0.1449 -0.3451
11790W        W25204   2.682   3.611  11.164  0.0489 -0.0759  0.0597
11791W        W25205  12.181  16.890   5.982 -0.1377  0.1261 -0.1003
11792W        W25206  10.772   7.551  12.721  0.2355  0.1272 -0.0587
11793W        W25207  11.633  13.340   0.941  0.0570  0.1167  0.0531
11794W        W25208  16.083   2.169  15.030 -0.0294  0.2933  0.0095
11795W        W25209  10.021   7.792   2.110  0.0554  0.4408  0.0940
11796W        W25210   9.174   8.646  13.623  0.0150  0.0255 -0.1757
11797W        W25211   4.514   0.551  15.838  0.4874 -0.3958  0.2521
11798W        W25212   1.715   0.830   4.708 -0.2156 -0.0737 -0.1078
11799W        W25213   8.745   5.357   3.857 -0.0312 -0.2347  0.1693
11800W        W25214  10.336   3.590  14.686 -0.1661  0.0509  0.0828
11801W        W25215   1.549   2.893   1.824  0.0062  0.0289 -0.1398
11802W        W25216  17.820   0.234   6.163  0.0470 -0.1056  0.0313
11803W        W25217   0.443   7.995   0.292  0.0819 -0.0694  0.0540
11804W        W25218  14.674  14.203   4.162  0.0798  0.1139 -0.2120
11805W        W25219  10.039   0.983   4.910 -0.0702 -0.1427  0.2001
11806W        W25220   9.568  17.352   5.051  0.2031 -0.1607 -0.0769
11807W        W25221  17.875   0.820  10.182  0.2388 -0.1529  0.2256
11808W        W25222   1.643  13.509   4.245  0.1546 -0.1703 -0.3183
11809W        W25223   0.537   6.473  10.705 -0.1149 -0.1475  0.0377
11810W        W25224   5.744   9.045  15.697  0.0294  0.1363 -0.2774
11811W        W25225  11.696   3.415   5.976  0.0082  0.2017  0.0594
11812W        W25226  11.559   9.035   0.600 -0.1777  0.0234 -0.2983
11813W        W25227   8.097  12.623  11.373  0.2602 -0.1798 -0.1712
11814W        W25228   3.847   7.730   1.420  0.1337 -0.3450 -0.2734
11815W        W25229   6.736   8.764  11.408 -0.1470  0.0364 -0.0470
11816W        W25230  11.763   0.392  13.213  0.2539 -0.0220 -0.0410
11817W        W25231  17.393  10.991   3.183  0.1735  0.2893  0.2179
11818W        W25232  16.208   1.573  16.240  0.1379  0.1807 -0.1045
11819W        W25233   7.845   5.204   2.427  0.0156  0.0162  0.3634
11820W        W25234   5.099   1.446   6.219 -0.0650  0.0802 -0.0132
11821W        W25235   9.197  17.436  16.500  0.0850 -0.2428 -0.0221
11822W        W25236   6.070  14.686  14.276  0.1574 -0.0823  0.1098
11823W        W25237  16.305   3.785   2.699  0.2721 -0.0984  0.0963
11824W        W25238  15.528   3.175  16.438  0.0611 -0.4731 -0.4384
11825W        W25239   5.348   9.834   4.443  0.0424  0.0037 -0.0186
11826W        W25240   8.235  12.963  12.805 -0.2412 -0.0856  0.2703
11827W        W25241  18.158   4.683   2.988  0.2320  0.0903  0.0642
11828W        W25242   4.326  13.208  12.044  0.0727  0.0577 -0.1796
11829W        W25243   2.046   0.576   0.146 -0.1337  0.0199  0.2363
11830W        W25244   3.014  13.388   4.285  0.0638  0.0162 -0.0552
11831W        W25245  13.436   0.974   9.988  0.0022  0.2941  0.1805
11832W        W25246   2.433  10.764   2.411  0.2528  0.0284  0.1990
11833W        W25247  17.088  14.409  16.245 -0.1951 -0.2655 -0.2439
11834W        W25248  10.694  13.420  12.359  0.1999 -0.0951  0.0904
11835W        W25249   3.953   3.916  14.004  0.0873 -0.1776 -0.1381
11836W        W25250   5.358  13.369  13.942  0.1337  0.2072 -0.0892
11837W        W25251  14.258   4.364  13.946 -0.4112  0.0205 -0.0237
11838W        W25252  13.435   5.886   5.169 -0.0388  0.1614 -0.1598
11839W        W25253  18.202   9.598   0.470  0.1705  0.2003 -0.0561
11840W        W25254  12.296   7.549   4.656  0.0348  0.0781 -0.1988
11841W        W25255  15.358  14.655   3.390  0.0544  0.1719  0.0123
11842W        W25256   4.658  18.236  15.500  0.0809  0.1350 -0.0455
11843W        W25257  14.943  15.495  14.288  0.0134 -0.3181  0.1000
11844W        W25258  14.489   1.662  15.213  0.3027  0.3298  0.0571
11845W        W25259  14.075  13.384   1.486  0.1763 -0.0325 -0.1992
11846W        W25260  16.532   1.609   2.936  0.0436  0.0776  0.3750
11847W        W25261   3.051   8.295   5.923  0.1491  0.2557 -0.3901
11848W        W25262   9.073   8.106   0.144 -0.1728  0.0208  0.2274
11849W        W25263  10.211   8.689   1.771  0.0963  0.0751 -0.0183
11850W        W25264   6.324   4.720   4.680 -0.4472  0.1352 -0.0711
11851W        W25265  10.810   6.653   1.163  0.1052  0.1508 -0.0776
11852W        W25266  11.160   0.205  13.792  0.1961  0.1486  0.0233
11853W        W25267   2.785   2.541   2.619 -0.0082  0.1188  0.0288
11854W        W25268   0.865   1.759  15.276 -0.2403  0.3818  0.1238
11855W        W25269   6.320   3.824  14.637 -0.0362  0.0650 -0.0312
11856W        W25270   5.900   9.439  13.772  0.2410 -0.2059 -0.1518
11857W        W25271  12.809  12.072   1.834  0.1612 -0.1559 -0.0975
11858W        W25272  13.033  16.345   0.009 -0.1248 -0.1877  0.4323
11859W        W25273   6.752   5.832   5.275  0.2742 -0.1737  0.1043
11860W        W25274   7.766   9.946   1.164  0.2612 -0.0683 -0.0703
11861W        W25275  10.310  16.914  12.675 -0.0489 -0.0242 -0.2718
11862W        W25276  12.180  17.401   5.877  0.2373 -0.0390 -0.0901
11863W        W25277   0.198  15.311   4.131  0.1119 -0.1135 -0.1563
11864W        W25278  15.826   7.847   1.745  0.1461 -0.0128 -0.0173
11865W        W25279  15.152   1.922   4.789  0.0959  0.0928 -0.2161
11866W        W25280   2.503   9.507  13.816 -0.0836 -0.1332  0.3256
11867W        W25281  15.415  13.642   4.190  0.0125 -0.0111 -0.0952
11868W        W25282   3.079  11.794   3.272 -0.2121  0.0748 -0.2552
11869W        W25283  12.332  15.686   0.953 -0.0607 -0.0373 -0.0363
11870W        W25284  11.041   2.809   4.069  0.1003 -0.0249  0.0651
11871W        W25285  17.799   8.199   1.664 -0.1466 -0.0850 -0.0657
11872W        W25286   4.475   9.978   5.020  0.1310  0.1637  0.1223
11873W        W25287   7.328   7.200  11.650 -0.1998  0.2381 -0.0149
11874W        W25288   1.090  12.614   1.251 -0.1785  0.3223  0.1089
11875W        W25289   5.719   8.834   0.603  0.1444  0.1066 -0.1055
11876W        W25290  12.516  17.189   2.609  0.0442 -0.2178  0.1421
11877W        W25291  17.593   2.111   4.189  0.1900 -0.2514 -0.3513
11878W        W25292   8.212  17.468   1.704  0.0167 -0.0202  0.1994
11879W        W25293   7.744   1.574  11.516  0.1690 -0.0304  0.1192
11880W        W25294   0.085  14.700   1.169  0.1106 -0.0302 -0.0822
11881W        W25295   6.349  17.301  14.281 -0.1075  0.2634  0.0794
11882W        W25296   6.630  14.398  13.132 -0.1499  0.3707 -0.2272
11883W        W25297  12.565   2.674   0.366 -0.1538 -0.0521 -0.0907
11884W        W25298  16.132  11.691   0.187  0.0128  0.3468  0.1560
11885W        W25299  17.969   9.960   5.993  0.3552  0.0955 -0.0557
11886W        W25300   0.476  12.271   3.254  0.0700  0.2813  0.2212
11887W        W25301   6.061  13.142  15.507  0.2044  0.0090 -0.1179
11888W        W25302   5.126   3.161   6.080  0.2303  0.2630  0.0131
11889W        W25303   5.147   9.278  11.903  0.1626  0.0753 -0.1166
11890W        W25304   9.165   9.442   0.822  0.0428  0.1686  0.0041
11891W        W25305  18.206   1.212  13.656 -0.0369  0.2005  0.2006
11892W        W25306  15.150   1.333  14.066 -0.3943  0.0347 -0.0128
11893W        W25307   3.144   2.967  11.317  0.1372 -0.1856 -0.0681
11894W        W25308   3.165  13.518  15.917  0.0437 -0.1675  0.1148
11895W        W25309  11.745   1.564  15.652  0.3305 -0.1742  0.2413
11896W        W25310  15.108   6.856   6.054  0.0707 -0.0732  0.0293
11897W        W25311   6.825   4.952  13.313  0.0901  0.0633 -0.1877
11898W        W25312   5.572   4.723   0.777  0.2386  0.0729 -0.0292
11899W        W25313  11.872   2.862   1.695  0.0109  0.0570 -0.2090
11900W        W25314   2.879  17.778   2.427 -0.0336  0.3153  0.0729
11901W        W25315  11.504  12.309  14.958  0.0741 -0.1456  0.1595
11902W        W25316  17.032  16.088   4.166 -0.0217 -0.1738 -0.2370
11903W        W25317   3.626  10.061  10.890 -0.3491 -0.1414  0.2577
11904W        W25318  11.130   4.744   3.494 -0.2491 -0.1993  0.0319
11905W        W25319  10.497  16.261   5.374 -0.0454  0.2179  0.1755
11906W        W25320  17.822   3.635  14.783 -0.3675  0.0771  0.1883
11907W        W25321  12.825  16.170  11.613  0.0687  0.0804 -0.3005
11908W        W25322  10.342  11.955  13.000  0.0405  0.0977  0.0362
11909W        W25323  17.941   8.034   2.604 -0.1462 -0.3594 -0.2470
11910W        W25324   7.923  15.909   0.017 -0.3138  0.2180  0.3404
11911W        W25325   5.893   6.615   1.309  0.1490  0.0014  0.2972
11912W        W25326  17.971   7.623   3.470  0.2905  0.0851  0.1389
11913W        W25327   6.128  18.028   3.030 -0.2855 -0.4636  0.2378
11914W        W25328  14.694   0.575   2.267 -0.2040 -0.2150 -0.1216
11915W        W25329  15.023  15.869   4.968 -0.0945 -0.2552 -0.0681
11916W        W25330   8.252   0.864  13.294 -0.2598 -0.2293  0.1961
11917W        W25331   5.149   1.596   4.536 -0.1867 -0.0287  0.0111
11918W        W25332  10.377   2.082  15.677 -0.1311  0.1761 -0.0159
11919W        W25333   2.596  13.444   1.836 -0.2506  0.0218  0.0402
11920W        W25334  15.119   8.036  14.568  0.1329  0.3931 -0.2195
11921W        W25335   4.320   6.447   0.249 -0.0306 -0.1665  0.2740
11922W        W25336  10.477  12.764  11.176 -0.4731  0.3224 -0.0026
11923W        W25337   3.211   0.079  13.874  0.0455  0.0558  0.0615
11924W        W25338   7.995  17.120  14.499  0.1988 -0.1486  0.0777
11925W        W25339   8.120  11.554  14.964  0.2536 -0.2914  0.0063
11926W        W25340   0.001   9.461   2.029 -0.0692 -0.0886  0.0602
11927W        W25341  10.213  11.195  15.829  0.2441  0.1895 -0.1049
11928W        W25342  10.780  10.667  16.373  0.1977 -0.0303  0.1197
11929W        W25343   4.284   2.504  12.858  0.1096 -0.1033  0.0844
11930W        W25344  16.977  17.345  14.836  0.1838 -0.0705  0.0415
11931W        W25345   8.835  14.158   5.283 -0.0406 -0.2900 -0.0085
11932W        W25346   3.097   7.341   5.707  0.0699 -0.1387  0.0398
11933W        W25347   1.091   7.295  14.292  0.1643 -0.0542  0.3067
11934W        W25348  15.600  12.416  15.202 -0.1897  0.2010 -0.2982
11935W        W25349   1.421   8.611  12.389  0.0151  0.3739  0.1751
11936W        W25350   9.230  10.491  13.220 -0.0126  0.1868 -0.0215
11937W        W25351  12.881   8.901  16.435 -0.2050  0.1517 -0.1794
11938W        W25352   0.249  17.951  13.138 -0.1770 -0.0582  0.1748
11939W        W25353   1.350   1.835  11.243 -0.0500 -0.0151  0.0389
11940W        W25354  11.534   8.438  15.080 -0.0702  0.0901 -0.0938
11941W        W25355   4.328  11.838  14.040  0.0567  0.2412  0.1329
11942W        W25356   7.328   4.701   3.304 -0.1692 -0.0384 -0.0197
11943W        W25357  16.631   0.878   4.377  0.0144 -0.0892 -0.0151
11944W        W25358  17.591   1.076   4.372 -0.1431 -0.0047 -0.1814
11945W        W25359   9.334   5.726   5.887  0.0580  0.0523  0.0126
11946W        W25360   3.702  16.508  12.381 -0.3930 -0.1595 -0.0346
11947W        W25361   8.180  15.486   4.261 -0.0890 -0.0838 -0.1069
11948W        W25362  16.142   0.081  13.910  0.1633  0.2019 -0.0749
11949W        W25363   3.832   3.406   1.891 -0.0371 -0.3060 -0.0632
11950W        W25364  15.649   0.854   5.502 -0.2644 -0.4012  0.2203
11951W        W25365  15.509  15.191  14.666  0.2194 -0.2612  0.0370
11952W        W25366  12.739   6.423   2.816  0.3083 -0.1629  0.1044
11953W        W25367  10.013  10.456   5.354  0.0645  0.1268 -0.2505
11954W        W25368   2.506   0.747  14.219  0.0626  0.2813  0.1723
11955W        W25369  11.215  14.376   1.617 -0.3558  0.0504  0.2604
11956W        W25370  12.412   6.279   5.806  0.3123  0.1570 -0.0904
11957W        W25371   0.871   7.620   3.132 -0.0623 -0.0546  0.1187
11958W        W25372   0.606   3.576  13.852  0.0233  0.2701  0.0656
11959W        W25373   4.347   1.421  15.076  0.1487  0.1693 -0.0725
11960W        W25374  15.538   2.312   3.293  0.2140 -0.1730 -0.1957
11961W        W25375   1.314   0.856   1.260  0.1497 -0.1775  0.1929
11962W        W25376   0.376   9.066  12.890 -0.1464 -0.0369  0.2811
11963W        W25377  14.722   3.393  16.056 -0.1603 -0.1047 -0.2269
11964W        W25378  15.496   6.219   0.155  0.1888  0.1788 -0.1386
11965W        W25379   7.449  15.321   1.201  0.0792 -0.2876 -0.1736
11966W        W25380   0.157  11.754  12.634  0.0275  0.0584  0.0234
11967W        W25381  10.838  17.388  12.069 -0.2152  0.1322  0.1815
11968W        W25382  13.929  18.033   6.473 -0.0172  0.0880  0.0214
11969W        W25383   1.793  17.972   2.300 -0.1353 -0.0127  0.1775
11970W        W25384   4.959   3.533  14.912  0.1190 -0.2486  0.0767
11971W        W25385   1.354   3.033   0.524 -0.0875  0.1548  0.0527
11972W        W25386   2.820   0.362   2.946  0.0167 -0.2468 -0.1023
11973W        W25387   6.389  17.597   1.656 -0.0245  0.1427 -0.0351
11974W        W25388   2.066  15.008   0.162  0.3300 -0.1598 -0.1355
11975W        W25389   9.054   3.169   5.447 -0.0584 -0.0597 -0.2198
11976W        W25390   1.792   2.161  10.977  0.0350 -0.2100 -0.1024
11977W        W25391  14.466  11.997  16.176 -0.2453 -0.4072 -0.3102
11978W        W25392   7.020   0.897   2.141  0.0411  0.3379 -0.1100
11979W        W25393   3.673  17.907  11.365  0.2575  0.2449 -0.0128
11980W        W25394   3.472  14.396   0.188 -0.0115  0.0194  0.1520
11981W        W25395  13.402  11.048   0.550 -0.0944  0.2448  0.1830
11982W        W25396  16.945  10.982   5.803 -0.2478 -0.2007 -0.1178
11983W        W25397   7.750   4.299   1.452 -0.2467  0.1827 -0.0420
11984W        W25398   2.933  16.779  11.451 -0.2469 -0.0575  0.2165
11985W        W25399  13.727  13.922  11.583 -0.1736 -0.2193 -0.0801
11986W        W25400   4.101  15.076   5.774  0.0945 -0.0972  0.2541
11987W        W25401   8.961   9.570  10.834 -0.2013 -0.2152 -0.0393
11988W        W25402  15.118   9.617  16.252 -0.2630 -0.1067  0.1315
11989W        W25403  14.560  17.838   0.850 -0.0321  0.1868 -0.0579
11990W        W25404  18.043   9.147  10.389  0.3002  0.0287 -0.0737
11991W        W25405   3.392  11.791   4.516  0.2370 -0.0004 -0.1501
11992W        W25406  14.762  13.259   2.461  0.0771  0.1647  0.1381
11993W        W25407   9.757  18.101  10.711  0.0834 -0.0928 -0.1094
11994W        W25408   0.681   4.253  10.993 -0.1739  0.1622  0.0526
11995W        W25409  12.001   4.010  14.665 -0.1275  0.0606 -0.3060
11996W        W25410   3.969   0.380  14.310 -0.0626  0.0479 -0.2585
11997W        W25411   0.533   0.636  12.620  0.1933  0.0911  0.2024
11998W        W25412   4.766  12.688   5.256 -0.5070 -0.0291 -0.0970
11999W        W25413   6.297   6.861  13.473 -0.0536  0.0779  0.1182
12000W        W25414  14.968  11.649  16.028  0.3838  0.0306  0.0268
12001W        W25415   6.812   9.462  13.549  0.1840 -0.1185  0.1282
12002W        W25416   7.567   1.401   4.767  0.0693  0.0207 -0.0002
12003W        W25417  11.417   9.970   4.886  0.1358  0.2172 -0.1007
12004W        W25418  16.762  11.865   6.123  0.0301 -0.1329 -0.2448
12005W        W25419   6.303   4.830  10.733 -0.1627 -0.0281  0.2862
12006W        W25420   5.536   9.520   1.337 -0.0543 -0.0058 -0.1634
12007W        W25421   8.634   5.398  13.146  0.2434  0.0569  0.1855
12008W        W25422   8.386   2.185  11.710 -0.2888 -0.1470 -0.2053
12009W        W25423  17.288  11.622  15.881  0.0396  0.0004 -0.0983
12010W        W25424   4.479   7.471  14.232  0.1048  0.1327  0.0881
12011W        W25425  15.072  15.660  14.804  0.3430  0.0028  0.0905
12012W        W25426   3.894   9.846   0.686  0.0743  0.0314  0.3029
12013W        W25427   0.706   0.159  11.567 -0.0269 -0.1011 -0.1515
12014W        W25428  17.436   8.196   6.135  0.1616 -0.0159 -0.0926
12015W        W25429  10.599  18.075  13.333 -0.0455  0.0194 -0.0198
12016W        W25430  11.829   3.693   4.863 -0.0228 -0.0281  0.0860
12017W        W25431   2.530   6.332  10.539 -0.0713 -0.3037 -0.3306
12018W        W25432   7.501   1.306  14.119  0.2988 -0.3041 -0.0976
12019W        W25433  11.807   4.463  12.064 -0.0394  0.0167 -0.3235
12020W        W25434   7.432  13.015   0.645  0.1138  0.1593 -0.1057
12021W        W25435  15.184  14.451  16.539 -0.1189  0.0512 -0.2062
12022W        W25436   1.792  14.068   4.365 -0.0073 -0.0088 -0.2020
12023W        W25437  15.767  12.306   2.482  0.2094 -0.1022  0.0077
12024W        W25438   0.575   7.570   4.253 -0.3392 -0.4228  0.3866
12025W        W25439   1.168  15.821   1.236  0.2179  0.2490  0.2502
12026W        W25440   5.063   2.604  16.123 -0.0954  0.0680 -0.0066
12027W        W25441   1.901   9.441  11.674  0.1267  0.1008 -0.1721
12028W        W25442   5.374   4.879  16.502  0.0514 -0.0849  0.0038
12029W        W25443  11.031   3.742   4.400  0.1216 -0.2723 -0.0269
12030W        W25444  12.424   5.682   1.531 -0.1864  0.0562  0.0513
12031W        W25445   5.302   3.458   0.407  0.0245 -0.0253 -0.0510
12032W        W25446   5.333  16.466  14.278  0.2353 -0.2298 -0.3085
12033W        W25447  10.009  17.278   4.828 -0.0134  0.1763 -0.1995
12034W        W25448   3.930  17.407   1.772 -0.0483 -0.0723 -0.1272
12035W        W25449  16.079   7.460   1.854  0.1015 -0.1445  0.0826
12036W        W25450  13.021   2.183  13.013 -0.2389  0.1010 -0.2942
12037W        W25451   6.291   0.440   0.559 -0.0665 -0.2045  0.2951
12038W        W25452   5.561   4.902  11.248  0.0231  0.1618  0.1755
12039W        W25453   9.217  18.202   2.753 -0.0526 -0.0751  0.0236
12040W        W25454   8.441  15.879  14.984 -0.1694 -0.2387  0.0605
12041W        W25455  14.780  13.064   6.613 -0.2902 -0.3280  0.0510
12042W        W25456   7.374  11.005   1.456 -0.3389  0.1492 -0.1091
12043W        W25457   0.645  12.675   5.637 -0.1999 -0.1406  0.1161
12044W        W25458  17.596   8.855   0.192  0.1309 -0.1298  0.4188
12045W        W25459  12.326  16.546  15.505  0.1714 -0.1464  0.0527
12046W        W25460   3.243   9.304  12.818  0.3007 -0.3877 -0.2007
12047W        W25461   9.753   6.902  13.611  0.0652  0.2979 -0.4483
12048W        W25462   2.896   8.015   2.443  0.1677  0.1487  0.0033
12049W        W25463   1.085   2.551   3.569 -0.1539 -0.3537  0.5269
12050W        W25464   5.157  12.696  15.278  0.0823  0.1586  0.1392
12051W        W25465   7.245   7.117  13.538 -0.1916 -0.0642  0.1324
12052W        W25466   6.109  17.410   5.855  0.0455 -0.0265 -0.0930
12053W        W25467  11.426  16.085   5.902  0.1131 -0.1288 -0.1061
12054W        W25468  12.580  14.300  15.651 -0.6017 -0.1702 -0.0029
12055W        W25469   7.793   4.961   3.379 -0.3953  0.0057 -0.5207
12056W        W25470  10.666  11.805  14.756 -0.3523 -0.0070 -0.1395
12057W        W25471   2.531  14.457   6.005  0.1051 -0.1783  0.0237
12058W        W25472   1.832  14.440  14.449 -0.0989  0.0114  0.2997
12059W        W25473   1.708  15.770  11.229  0.0543 -0.1368  0.1190
12060W        W25474  16.079   9.129  14.684  0.2137  0.1856 -0.0897
12061W        W25475  10.802   1.031   0.263 -0.1100  0.3098  0.0263
12062W        W25476   3.191  13.392  15.076 -0.0587  0.1661 -0.0374
12063W        W25477   3.804   3.881  15.170  0.2606 -0.3558 -0.0021
12064W        W25478  17.356  11.205  14.252  0.2292 -0.0315  0.1010
12065W        W25479   2.632   6.206  13.678  0.2451  0.1702  0.0354
12066W        W25480  12.054  10.571  14.242 -0.0828 -0.3475  0.1156
12067W        W25481  12.692  11.060  15.495  0.0792 -0.2159  0.1060
12068W        W25482  17.609   6.436   4.257  0.2229 -0.2822  0.0944
12069W        W25483  16.218  13.881  14.287  0.1828 -0.2200 -0.3581
12070W        W25484  11.752   4.871  12.737 -0.0866  0.2355  0.0457
12071W        W25485   0.042   7.850  15.523 -0.0193 -0.3214  0.1828
12072W        W25486  13.975   1.962   4.708 -0.1804 -0.2601 -0.1695
12073W        W25487  14.411   2.095   0.544  0.1619  0.1507 -0.3417
12074W        W25488   6.669   5.611   1.057  0.1983  0.1789  0.0796
12075W        W25489  15.333  16.383  15.659  0.0272 -0.1184  0.2228
12076W        W25490   7.492  11.518   4.146 -0.0544 -0.2353 -0.2022
12077W        W25491   6.259  17.682   0.602 -0.2485 -0.1534  0.1120
12078W        W25492  17.025   5.584  11.969 -0.0616 -0.0625 -0.2541
12079W        W25493  14.641   5.432   0.132 -0.0672  0.1370  0.0264
12080W        W25494   6.464   3.869  11.053 -0.1810  0.1452  0.0862
12081W        W25495   9.728   2.178  14.291  0.1609  0.1918  0.0426
12082W        W25496  12.436   7.759  15.924 -0.2416 -0.1149  0.3855
12083W        W25497   6.030  18.080  13.321  0.0555  0.3139  0.0732
12084W        W25498   0.818   5.646  12.205  0.0998 -0.2042  0.0746
12085W        W25499  18.141  17.579  13.259 -0.2221 -0.0407  0.3275
12086W        W25500   0.998   0.312   1.914  0.0907 -0.0519 -0.2420
12087W        W25501   4.463  11.516  16.307  0.0300  0.1543 -0.4939
12088W        W25502  10.570   2.499  13.910  0.0434 -0.0996  0.1676
12089W        W25503   1.633  16.981  13.229  0.1886  0.3116  0.2208
12090W        W25504  11.827   5.618  16.442  0.0007 -0.1752 -0.0092
12091W        W25505  11.874   4.977  15.582  0.0409  0.0814  0.1860
12092W        W25506  13.711   9.779  12.922 -0.2295  0.0593  0.1252
12093W        W25507  12.003  17.387   5.007 -0.0152 -0.3117 -0.0581
12094W        W25508  13.980   8.108  13.274 -0.4640 -0.1493 -0.0595
12095W        W25509   7.583   1.133  15.173 -0.5166 -0.1086  0.2601
12096W        W25510  14.715  17.142  11.251 -0.1502  0.2548 -0.1264
12097W        W25511  17.215  15.206  12.424 -0.1479 -0.2309 -0.1981
12098W        W25512  11.921  15.876   6.294  0.1495  0.2358 -0.1412
12099W        W25513  11.596  12.263   0.883 -0.1964 -0.1055 -0.0016
12100W        W25514   8.040  12.043   2.546  0.0404 -0.0741 -0.3309
12101W        W25515   9.237   1.948  14.198  0.2497 -0.0860 -0.2231
12102W        W25516   3.323   2.033  12.884  0.3699 -0.5284 -0.3816
12103W        W25517   4.189   1.093   2.131  0.1071  0.1509  0.2488
12104W        W25518   3.509  16.425   5.976 -0.0417 -0.0113 -0.1099
12105W        W25519   8.676   0.212   6.222 -0.0636 -0.0610 -0.0982
12106W        W25520  14.112   6.748  15.104 -0.2154  0.4451 -0.0725
12107W        W25521   8.903   5.233  12.313 -0.3362 -0.1308 -0.0532
12108W        W25522   2.290   6.747   1.116  0.1081 -0.0358 -0.1247
12109W        W25523   7.017   3.964   3.387 -0.1054  0.2511  0.0458
12110W        W25524  11.259   6.398   4.874 -0.3751  0.2729 -0.0285
12111W        W25525  10.532   4.691   4.060 -0.0971 -0.0747 -0.0396
12112W        W25526  13.070   2.979   4.993 -0.1783 -0.0126 -0.2107
12113W        W25527   1.659  10.805   2.155  0.1288 -0.2061  0.0466
12114W        W25528  17.700   9.746   3.945 -0.1477 -0.0947 -0.4822
12115W        W25529   2.565  13.217   5.046 -0.1377  0.0749  0.1591
12116W        W25530   0.327  11.122   1.700  0.0905  0.1648 -0.3336
12117W        W25531   2.344   7.807  14.280 -0.0216  0.1358  0.1314
12118W        W25532   1.943   7.832   3.621 -0.0263 -0.3342 -0.2307
12119W        W25533   0.108  12.139   3.991  0.0576 -0.2053 -0.1746
12120W        W25534   2.914   8.832   5.191  0.1896  0.0225  0.1138
12121W        W25535   4.510   7.213  11.929 -0.0313  0.0319 -0.2898
12122W        W25536   2.617   9.745   5.427 -0.0294 -0.2041  0.0543
12123W        W25537   5.489  16.441   4.182 -0.1128 -0.1972  0.1582
12124W        W25538  14.864   1.674   1.622 -0.0952 -0.1995 -0.3314
12125W        W25539  14.440   8.279   2.835  0.1036 -0.2825  0.1071
12126W        W25540  10.497  12.525  15.817 -0.2263  0.0090  0.1151
12127W        W25541   7.429  13.496   2.166  0.0946 -0.2528  0.0110
12128W        W25542   8.258   7.084   3.974 -0.0864 -0.0765 -0.0330
12129W        W25543   0.037   3.598   0.536  0.1520  0.0102  0.3520
12130W        W25544   4.783  10.164  11.648 -0.0082 -0.0917 -0.2316
12131W        W25545  10.689   3.855  15.021 -0.0288 -0.0359 -0.2455
12132W        W25546   7.028   7.432  15.450 -0.1234  0.0984  0.1560
12133W        W25547   2.593  15.434   4.651  0.2613  0.1185 -0.1660
12134W        W25548  18.065  11.742   3.978 -0.0905 -0.0445 -0.1889
12135W        W25549   1.110   3.156  10.529  0.0262 -0.3065  0.1768
12136W        W25550  17.325  15.353  12.965 -0.0812  0.0766 -0.0304
12137W        W25551  13.004   7.103  13.409 -0.2618 -0.2541 -0.0151
12138W        W25552  12.848  13.460  16.125 -0.2201 -0.1308 -0.2558
12139W        W25553  11.114   9.343  11.465 -0.0351  0.1659 -0.0371
12140W        W25554   0.656  11.477  11.796  0.0558 -0.1793 -0.1766
12141W        W25555   1.887   6.993  13.105  0.3123 -0.1292  0.1932
12142W        W25556  11.709   3.242   5.073 -0.1297 -0.4702  0.1413
12143W        W25557   9.870  17.287  16.302  0.3423 -0.2271 -0.2074
12144W        W25558   8.987  15.861  15.928 -0.3131 -0.1059 -0.1016
12145W        W25559   4.459   4.974  10.335  0.2058  0.0884 -0.2546
12146W        W25560  11.367  13.085   1.565 -0.2149  0.2623 -0.2637
12147W        W25561   0.288  14.930   7.020 -0.0557 -0.0961 -0.1953
12148W        W25562   1.697  18.163   3.110 -0.1443 -0.1041 -0.1203
12149W        W25563   5.028   6.620   3.337  0.0400  0.1783  0.0241
12150W        W25564   7.888  12.343   0.896 -0.1962  0.1175 -0.3497
12151W        W25565  16.218   9.955  13.155  0.3908 -0.1159  0.3306
12152W        W25566   7.764   7.366  14.057  0.0508 -0.0079 -0.0546
12153W        W25567  13.062   5.565  12.958  0.3171 -0.0493 -0.0346
12154W        W25568   7.520   7.796   4.204  0.4328 -0.0673 -0.0217
12155W        W25569   5.079  17.507   0.767 -0.2914 -0.2041  0.1149
12156W        W25570  10.631   8.518  13.056 -0.3263 -0.0819 -0.0225
12157W        W25571  11.732  11.389   0.504 -0.0002 -0.1815 -0.1429
12158W        W25572  12.345   4.827   2.341  0.3229 -0.0333  0.0616
12159W        W25573  13.677  12.219   1.452 -0.1019 -0.2618 -0.0229
12160W        W25574   4.172  13.385  13.428  0.0533 -0.3860  0.1398
12161W        W25575   5.717  14.556  13.375  0.1182  0.0142 -0.0905
12162W        W25576   7.969  13.161  10.455 -0.0357  0.0073 -0.2042
12163W        W25577  16.295  11.963   0.747 -0.0604  0.3149  0.2289
12164W        W25578  10.826   8.337  15.380  0.0330  0.1175  0.1657
12165W        W25579  13.613   8.068   5.056  0.3991  0.1070 -0.1288
12166W        W25580  14.638  15.870   4.161  0.2018 -0.0630 -0.0387
12167W        W25581   8.519   4.276   3.395  0.2168 -0.0681 -0.2667
12168W        W25582   8.054  15.888   2.107  0.0808 -0.1103 -0.1218
12169W        W25583  12.067   1.901   1.555 -0.0307 -0.1392  0.1549
12170W        W25584  13.244   7.613  10.908 -0.0408  0.0680 -0.2415
12171W        W25585   4.231   1.052   0.275 -0.2239 -0.0672 -0.3022
12172W        W25586  18.186  14.746  15.388 -0.1679  0.1591  0.2063
12173W        W25587   9.094  16.966   1.553 -0.0710 -0.0053 -0.2257
12174W        W25588   4.134   1.900   2.846  0.0941 -0.1022 -0.0905
12175W        W25589   8.635  15.212   4.474 -0.1306  0.3833 -0.1166
12176W        W25590  13.257   2.878  15.973 -0.0396 -0.1116  0.3339
12177W        W25591  18.101  12.393   1.464 -0.0308  0.2323 -0.0362
12178W        W25592  17.252  16.218   0.240 -0.1217  0.2564 -0.0745
12179W        W25593   9.809  12.084   0.804  0.0784  0.1417  0.1851
12180W        W25594  14.660  17.134  13.546  0.0988 -0.0737  0.0248
12181W        W25595  14.467  16.745  11.009  0.2758 -0.0539  0.1406
12182W        W25596   7.427   5.789   1.674  0.0528  0.1341  0.0661
12183W        W25597   8.723   5.111   4.779  0.1907 -0.0026  0.0051
12184W        W25598   3.604  18.167   1.288  0.0618  0.1042 -0.2352
12185W        W25599   2.283   3.428   2.641 -0.0515 -0.0418 -0.1706
12186W        W25600   8.062   9.580   6.074  0.0102 -0.0917  0.3655
12187W        W25601  17.948  14.141  13.182 -0.3356  0.0660 -0.2885
12188W        W25602   3.021  12.153   4.489 -0.1827 -0.0136  0.0784
12189W        W25603  18.004  11.994  13.780 -0.1820  0.2401 -0.2368
12190W        W25604   2.667  11.732  12.254  0.0597  0.1417 -0.1197
12191W        W25605   5.806   9.891  15.918 -0.0627 -0.2621 -0.2166
12192W        W25606   9.713  17.283  15.840 -0.2278 -0.1884  0.2796
12193W        W25607  13.197   2.196   0.231 -0.1494  0.0268  0.1737
12194W        W25608   4.213   0.494   0.164  0.3104  0.1096  0.1211
12195W        W25609  16.152  12.347   2.041  0.1897 -0.2886 -0.1254
12196W        W25610  13.453   6.215   5.534 -0.0256  0.0761  0.2199
12197W        W25611  10.569   3.906  15.631  0.1373  0.1797  0.0883
12198W        W25612  16.834   4.121  11.556  0.3477  0.0314 -0.1895
12199W        W25613   1.191   3.379  11.219 -0.0147  0.1969  0.0849
12200W        W25614   9.989  12.623  12.622 -0.1457 -0.3059  0.1239
12201W        W25615  12.263   0.863   3.772  0.1199 -0.0298 -0.1614
12202W        W25616   0.089   4.465  10.238 -0.3539  0.2477  0.0454
12203W        W25617   2.185  16.563  10.936 -0.0116  0.5010 -0.0301
12204W        W25618  16.907  10.681   5.405 -0.1081 -0.1720 -0.0014
12205W        W25619  17.559   9.368  12.265  0.1855  0.0034  0.1274
12206W        W25620  12.860   4.100   2.092  0.1509  0.1305 -0.1090
12207W        W25621  12.253  11.953  11.440  0.2141 -0.1596  0.0775
12208W        W25622   7.972   7.987   2.511  0.0269  0.2131 -0.2722
12209W        W25623  12.153   5.924   4.977  0.0024  0.2223 -0.3344
12210W        W25624  16.589  12.439  15.925  0.1342  0.1129 -0.1423
12211W        W25625  12.228  11.514  10.739  0.0624 -0.2898 -0.1613
12212W        W25626   9.391   7.964  12.293  0.4050  0.0607  0.1155
12213W        W25627   4.500   8.854  16.325 -0.0686  0.3230 -0.0204
12214W        W25628  11.022   7.844   2.951  0.1844 -0.1359  0.5037
12215W        W25629  13.577  17.248  10.743  0.0582  0.0414  0.1690
12216W        W25630   8.642  13.737  16.515 -0.0211 -0.0473 -0.1509
12217W        W25631  16.697   2.031   2.673  0.0322  0.0837  0.1068
12218W        W25632   8.695  11.431  12.767 -0.0037 -0.0200  0.1439
12219W        W25633   5.420  15.024  15.300  0.1749  0.0087 -0.0750
12220W        W25634   8.320  17.489   0.626 -0.1212 -0.1400  0.1804
12221W        W25635  14.543   1.080   3.829 -0.1902 -0.0401  0.1209
12222W        W25636   9.167   3.670   2.380 -0.0767  0.1048  0.5159
12223W        W25637  16.303   1.229  14.877  0.1809 -0.3578 -0.0455
12224W        W25638   6.818  14.996   0.404  0.0285 -0.2524  0.1560
12225W        W25639  14.024   1.806   4.224 -0.0519 -0.3137  0.3886
12226W        W25640  17.882  11.841   5.257  0.0109 -0.0915 -0.2991
12227W        W25641   3.103   9.888   5.215 -0.2252 -0.0828 -0.1210
12228W        W25642   4.050  16.532   5.269 -0.3664 -0.1941 -0.1886
12229W        W25643   5.150  13.163  15.491 -0.1201  0.1418  0.0637
12230W        W25644  15.355  10.018   2.778 -0.3615 -0.2703 -0.1902
12231W        W25645   2.840   7.556   0.759  0.0074  0.0146 -0.0958
12232W        W25646   1.026   2.330   1.120 -0.0438  0.0282 -0.0080
12233W        W25647   9.900   3.848  12.544 -0.0779 -0.3342 -0.2356
12234W        W25648   6.632  13.990   2.427 -0.2943  0.0256 -0.0021
12235W        W25649  16.128   2.830  13.803  0.0022  0.1159  0.1743
12236W        W25650  16.832   8.855  13.802 -0.2794 -0.0584 -0.2693
12237W        W25651   3.195  10.537   0.097  0.2632 -0.0068 -0.1430
12238W        W25652   9.698   0.192   4.870  0.0547 -0.1069  0.2059
12239W        W25653   8.883   5.320   1.402  0.0046  0.1478 -0.1402
12240W        W25654  10.645   4.039   4.175  0.2270 -0.1052  0.2880
12241W        W25655   4.846  16.962  15.041 -0.1764 -0.0587 -0.1060
12242W        W25656  14.993   4.925   5.203 -0.1044 -0.4703 -0.2477
12243W        W25657  14.744   9.085  11.773 -0.2246  0.2905 -0.1716
12244W        W25658   4.152  17.236  15.023 -0.3055  0.2281 -0.3177
12245W        W25659   4.888  12.474   1.392  0.1346 -0.1352  0.3678
12246W        W25660   5.170   2.965  12.647 -0.3190  0.2311 -0.0827
12247W        W25661  18.046  11.429   0.725  0.0357 -0.0186 -0.1529
12248W        W25662   1.738  13.693   4.745 -0.3435 -0.2274  0.0239
12249W        W25663  10.701  16.463   4.411 -0.0931 -0.0460  0.0083
12250W        W25664   2.629  12.881  11.033 -0.1112  0.3420  0.1620
12251W        W25665  16.170  15.614  13.198 -0.2750 -0.0887  0.3860
12252W        W25666   8.544   5.750   6.378 -0.0850  0.2451  0.1703
12253W        W25667   3.114   7.789  15.911  0.1782  0.0351  0.2427
12254W        W25668   0.674  15.760   1.319  0.1598 -0.4732  0.1855
12255W        W25669  12.097   4.942   0.538 -0.1289  0.3751  0.0547
12256W        W25670  17.037  13.901   2.279  0.0132 -0.1263 -0.1735
12257W        W25671   7.686  10.345  15.548  0.3320  0.0375  0.2065
12258W        W25672  13.147   9.242   3.199  0.1515 -0.0756  0.2919
12259W        W25673   0.722  12.232   2.146  0.2423 -0.1724  0.0732
12260W        W25674   8.151   4.911  14.406  0.1205 -0.1613 -0.0447
12261W        W25675  17.260  13.998   2.733  0.3026  0.2573  0.3521
12262W        W25676   1.106  17.818  12.647  0.0951 -0.0602  0.3144
12263W        W25677   2.124  17.184   2.199  0.4730 -0.0763  0.1362
12264W        W25678  13.985  15.338   6.187  0.1202  0.0015  0.3332
12265W        W25679   6.076  12.781  16.020 -0.1654  0.0194  0.0213
12266W        W25680   8.468  10.168   4.038 -0.1317 -0.0076  0.2745
12267W        W25681   1.503   1.529   0.412 -0.0177 -0.1029 -0.0323
12268W        W25682   2.769  16.510   0.777 -0.0406 -0.1020 -0.0072
12269W        W25683  15.448  13.389   4.648  0.1832 -0.0117 -0.0763
12270W        W25684   4.303  15.827   0.338  0.0086  0.0182 -0.0493
12271W        W25685   7.204  12.840  14.287 -0.2452 -0.2276  0.0328
12272W        W25686  14.670   0.805  12.187 -0.1697 -0.1933 -0.2147
12273W        W25687   5.712   2.523   6.378 -0.4268  0.0516 -0.2299
12274W        W25688  15.698   6.559   2.042 -0.2496 -0.0256 -0.0389
12275W        W25689  11.237   0.939  16.205  0.0975  0.0178 -0.0697
12276W        W25690   6.952  13.002  15.262  0.2102  0.0882 -0.0941
12277W        W25691  10.431  13.306  13.882  0.0408 -0.0051 -0.1322
12278W        W25692   4.869   9.308  10.682  0.0777 -0.2340  0.0544
12279W        W25693  10.248  14.221  11.951  0.3466 -0.0432  0.1028
12280W        W25694   3.080   8.030  15.048  0.0842 -0.0483  0.0559
12281W        W25695   5.234   8.260   3.809  0.1540 -0.2014 -0.1552
12282W        W25696  15.381   4.071   1.490  0.2760 -0.1879 -0.1187
12283W        W25697  10.595  14.486   0.047  0.0981  0.0369  0.1739
12284W        W25698  12.776  16.032   1.898  0.2114  0.2326  0.2982
12285W        W25699   9.865   0.427   3.665  0.1406 -0.2166 -0.0996
12286W        W25700  16.835  15.526   4.001 -0.0401 -0.2083 -0.0384
12287W        W25701   7.412  12.710  12.898  0.1956  0.0116  0.0090
12288W        W25702   1.370  16.601   1.564  0.0893 -0.0388 -0.0095
12289W        W25703   5.944   7.500  11.491  0.2709  0.1067 -0.1906
12290W        W25704  10.750   4.793   5.502  0.0468  0.0920  0.3384
12291W        W25705  18.173   8.509   4.382 -0.0479 -0.1456  0.3294
12292W        W25706   1.623   9.716   2.912 -0.0865  0.1525  0.1107
12293W        W25707  15.710   5.901  13.547 -0.1738  0.1165  0.1889
12294W        W25708  11.211   4.426   0.452 -0.1723  0.3310  0.1270
12295W        W25709   8.863   4.494  11.466 -0.4073 -0.1376 -0.0987
12296W        W25710  11.560   2.755   0.234  0.0800  0.3887 -0.0317
12297W        W25711   7.371  16.120  13.616 -0.3184  0.2118 -0.1179
12298W        W25712   2.917   0.328   6.495 -0.0703 -0.1239  0.2510
12299W        W25713   7.958  14.439  13.415  0.0957 -0.2779  0.3859
12300W        W25714   9.612   2.822  12.138 -0.0957  0.0705 -0.1555
12301W        W25715  18.047  13.806  11.555 -0.2154  0.0648 -0.1138
12302W        W25716   4.261  12.579   3.364  0.3587 -0.1586  0.1311
12303W        W25717   3.105   8.873  14.501  0.0610  0.1695 -0.0830
12304W        W25718   6.186  12.034   0.673 -0.0460 -0.1885  0.0331
12305W        W25719   3.716   6.652   2.479  0.1052 -0.3258 -0.0886
12306W        W25720   6.878   5.124  14.170 -0.3206  0.3895  0.1089
12307W        W25721   3.764  17.172  13.404 -0.0561  0.1220  0.0215
12308W        W25722   2.919   1.711  14.889  0.1420  0.3057 -0.1015
12309W        W25723   9.979  14.662  12.074  0.1069 -0.1225 -0.0103
12310W        W25724   5.389   3.839   0.837 -0.2873 -0.1168  0.1339
12311W        W25725   5.798  14.719  14.678 -0.1751 -0.1232 -0.0273
12312W        W25726   2.204   1.965  11.191  0.1838  0.1878 -0.0326
12313W        W25727   9.747  16.336  12.748  0.2341  0.0680 -0.0870
12314W        W25728   3.962  12.608  14.467  0.2664 -0.0029 -0.1240
12315W        W25729  10.026   9.961  15.393 -0.0283 -0.1100  0.0730
12316W        W25730  11.366   6.303   3.799  0.1939 -0.0909  0.1591
12317W        W25731  10.389   8.619  16.001 -0.0686 -0.0534 -0.0216
12318W        W25732  15.140  10.327  11.531 -0.0299 -0.2094 -0.2034
12319W        W25733   6.550  10.384  12.224 -0.1988  0.2822  0.0892
12320W        W25734  13.100   4.273   4.359 -0.2063 -0.0595  0.0342
12321W        W25735  11.558   0.783  12.933  0.0357 -0.2495 -0.0135
12322W        W25736   7.049   9.875   5.312  0.1590  0.0622 -0.0092
12323W        W25737   7.512   5.270   1.585  0.1142  0.0477 -0.0378
12324W        W25738   5.698   6.698  16.376 -0.3087  0.3804 -0.0095
12325W        W25739   8.829  10.807  13.442  0.1181  0.2438  0.0363
12326W        W25740   2.106  10.419  12.012  0.2512 -0.0473 -0.2169
12327W        W25741  14.293   2.019   3.842 -0.0493 -0.3656  0.0839
12328W        W25742   6.867  17.327  14.305 -0.4161  0.0678 -0.2496
12329W        W25743   6.556   3.452  12.320 -0.2898 -0.2485  0.3172
12330W        W25744  13.471   1.394  10.545  0.0298  0.0242  0.0923
12331W        W25745  12.804   8.601  14.297  0.2270  0.1812 -0.2728
12332W        W25746  14.445  16.921   1.907  0.0836  0.1614 -0.1200
12333W        W25747  17.035  13.856   3.193 -0.0767  0.2486 -0.3732
12334W        W25748  16.748   2.740   0.312  0.0616  0.1263  0.1072
12335W        W25749  14.208  10.825   4.740  0.0245 -0.2662  0.5675
12336W        W25750  10.868   2.749  13.574  0.0697 -0.2121 -0.2187
12337W        W25751  16.454  17.151  12.296 -0.2568  0.1330 -0.2011
12338W        W25752   7.133   1.594   4.094 -0.1013  0.2450 -0.0991
12339W        W25753   1.013  12.582   1.756  0.0781 -0.0563 -0.1391
12340W        W25754   0.939  11.116   9.999  0.1369  0.3019  0.1736
12341W        W25755  10.612   8.035  11.132  0.0368 -0.2072 -0.2720
12342W        W25756  17.855  11.963   2.158  0.0124  0.1441  0.2013
12343W        W25757   2.149   3.097   0.825  0.0490  0.5512 -0.1980
12344W        W25758   5.215  15.162  13.383 -0.0481  0.3117 -0.1896
12345W        W25759   0.658  10.534   1.326  0.0275 -0.0592  0.2216
12346W        W25760  16.534   7.391   3.706  0.1587 -0.5061 -0.0319
12347W        W25761   0.319  11.312  16.192 -0.1928  0.4635 -0.0663
12348W        W25762  15.001  15.195  11.482 -0.3458 -0.0373  0.1585
12349W        W25763  15.033  10.559  11.011  0.0295  0.0643 -0.1614
12350W        W25764   8.839  12.731   2.385 -0.3575 -0.0397 -0.4884
12351W        W25765  16.061   6.997  12.267 -0.3046 -0.0502 -0.2071
12352W        W25766   0.343  14.439   6.043  0.0022 -0.2671  0.0721
12353W        W25767   0.652   9.702  15.932 -0.0629  0.0953  0.0619
12354W        W25768   0.746   1.607  12.545 -0.2657  0.0288  0.1092
12355W        W25769  14.448   6.539   3.189 -0.0240  0.0594 -0.0990
12356W        W25770   7.923   3.281   4.532 -0.1299  0.1094  0.0151
12357W        W25771   4.193   8.044   1.154 -0.1520  0.1173  0.4293
12358W        W25772   7.703   6.190  15.550  0.0129  0.1240  0.0070
12359W        W25773  14.907   4.744  11.159  0.3004 -0.0216 -0.2038
12360W        W25774   4.507  17.906   3.472 -0.0963  0.0263 -0.6171
12361W        W25775  12.928   8.654   4.050 -0.3091  0.1299 -0.1062
12362W        W25776   4.944   6.045  10.555  0.2705 -0.0621 -0.0652
12363W        W25777   7.459   3.332   3.689  0.0733 -0.1669  0.3143
12364W        W25778  14.684  15.976   2.452  0.0139  0.0164 -0.2315
12365W        W25779   3.799   2.030   4.504 -0.0721 -0.0757  0.3426
12366W        W25780   3.152   7.753   2.887  0.1146  0.0546  0.0803
12367W        W25781  12.685   8.025   0.704 -0.2098  0.1595 -0.1579
12368W        W25782   0.214   5.753   1.761  0.4001 -0.0325 -0.2453
12369W        W25783  15.621   2.829  12.994  0.0650  0.1002 -0.0965
12370W        W25784  15.153  11.360   0.866  0.0545  0.0827  0.1438
12371W        W25785   5.488   5.268  13.570 -0.1239  0.2690  0.0263
12372W        W25786  12.005  15.823  13.593  0.0076 -0.2543 -0.2380
12373W        W25787  13.598   4.133  15.508  0.0977  0.2563 -0.2261
12374W        W25788  16.442   5.298  15.517  0.0495 -0.4334 -0.1097
12375W        W25789  11.931   5.463  12.253  0.1431 -0.1123 -0.1683
12376W        W25790   0.145   8.781   3.081  0.0464  0.3184 -0.0508
12377W        W25791   5.797  13.902  11.149  0.1589  0.0643 -0.2174
12378W        W25792   1.697   6.589  13.967 -0.0595  0.0031  0.0125
12379W        W25793   7.718   1.538   2.089  0.0027 -0.2154 -0.0135
12380W        W25794   1.289   4.099  10.725 -0.1645  0.0154 -0.0961
12381W        W25795   1.085   4.271   1.721  0.1957 -0.2058  0.1120
12382W        W25796   7.584   9.841   3.225 -0.0521  0.1980 -0.3634
12383W        W25797   2.237  15.021   1.347  0.3572  0.0751 -0.0505
12384W        W25798   4.846   0.481   0.817 -0.0865 -0.0612  0.2153
12385W        W25799  15.274  15.835   1.769 -0.1111 -0.0919  0.0863
12386W        W25800   1.879  12.596  10.405  0.0713  0.4511  0.2932
12387W        W25801  13.871   6.836  11.400  0.1652 -0.0301 -0.1307
12388W        W25802  11.333   1.880   2.609  0.2230  0.1492  0.2259
12389W        W25803   8.632  16.556  11.648  0.1216  0.1375  0.0388
12390W        W25804  15.465  13.205  13.212  0.3954 -0.0818 -0.0390
12391W        W25805  11.664   5.991  11.852 -0.1493 -0.1942 -0.3112
12392W        W25806  11.491  13.507   1.860  0.0378 -0.0528  0.4123
12393W        W25807  11.496  12.406  12.559 -0.3323 -0.1051 -0.0522
12394W        W25808   2.692  13.609  11.465  0.0093 -0.0731 -0.1276
12395W        W25809  11.851  15.693   2.071  0.1373 -0.0299 -0.2302
12396W        W25810   8.396   5.828  13.346 -0.2387 -0.1276  0.0123
12397W        W25811   6.655  10.164   5.268  0.1409 -0.0336  0.1917
12398W        W25812   2.649   7.409  13.334 -0.2392  0.3176  0.1083
12399W        W25813   4.957  14.667   2.812 -0.1874 -0.0278 -0.3454
12400W        W25814  16.721   2.925   3.619 -0.0964  0.3002 -0.0659
12401W        W25815   0.952  15.052   4.033 -0.0125  0.0326 -0.0016
12402W        W25816  14.515   7.673  11.234 -0.2533  0.0769 -0.0546
12403W        W25817   8.070   5.620   1.029  0.4431 -0.2033  0.1007
12404W        W25818  13.294  11.699  15.723  0.1794  0.2446  0.1667
12405W        W25819  15.474  12.692   0.282  0.1228 -0.0373  0.1772
12406W        W25820  14.992  16.574  16.550  0.0230  0.1679  0.0920
12407W        W25821   6.561  11.558   1.223 -0.1193  0.0044 -0.1917
12408W        W25822   7.239   1.290   5.791  0.0391 -0.2796 -0.2981
12409W        W25823  14.936   4.534   0.996  0.0150  0.0014  0.1167
12410W        W25824   3.786  17.107   0.421  0.1589 -0.3103 -0.1459
12411W        W25825   2.683   7.919  11.176 -0.1351 -0.1833 -0.0714
12412W        W25826  11.158   6.006  15.096 -0.0116  0.1926  0.1993
12413W        W25827   3.179  14.751   6.274  0.2072  0.1640  0.0661
12414W        W25828   1.525  12.257  12.999  0.0493  0.2195  0.0867
12415W        W25829  14.190   6.412  14.128  0.0126 -0.1662  0.0248
12416W        W25830  17.047   3.209   9.702 -0.0931  0.0190  0.0258
12417W        W25831   8.319  15.171  15.691 -0.2965  0.0550  0.0298
12418W        W25832  13.613   3.530   2.997 -0.1190  0.0942  0.2079
12419W        W25833   6.151  12.850  14.104  0.2352  0.1978 -0.2206
12420W        W25834  10.293   4.380  16.523  0.1856 -0.0599 -0.2983
12421W        W25835  12.461   5.048  13.405 -0.0533 -0.1427  0.1130
12422W        W25836  14.069  11.010  12.327  0.1142  0.2330 -0.1445
12423W        W25837   7.319  10.305   2.514 -0.0422 -0.0649  0.1258
12424W        W25838  16.757   1.119   1.551 -0.1900  0.0325  0.1412
12425W        W25839  15.828   4.262   1.559  0.2111  0.2175 -0.1421
12426W        W25840   3.742  11.622   1.142 -0.0907  0.0813 -0.1768
12427W        W25841   1.808   2.586  14.464 -0.2314 -0.2024 -0.1673
12428W        W25842   0.790   3.235  15.084 -0.0659 -0.1088  0.0674
12429W        W25843   4.588  10.058  12.791 -0.1899  0.1325  0.4080
12430W        W25844   0.031  11.616  16.463 -0.0474 -0.1708 -0.3079
12431W        W25845  14.707  17.936   5.841  0.3375  0.0665 -0.0808
12432W        W25846  14.405  13.972   5.245  0.1650 -0.1273 -0.2659
12433W        W25847   3.138  15.329   4.742  0.0119 -0.0228  0.1251
12434W        W25848   1.715  14.671   5.675  0.2241 -0.3829 -0.0731
12435W        W25849   2.937   0.562  12.806  0.0066  0.3244 -0.5098
12436W        W25850  17.133   2.350  12.104 -0.0499  0.2383  0.3664
12437W        W25851  13.059   0.329  16.134 -0.2015  0.1275  0.0638
12438W        W25852   2.533   3.863   1.149  0.0355 -0.0528  0.3534
12439W        W25853   4.037  16.680   2.698  0.2763 -0.1561 -0.0232
12440W        W25854   4.666  11.781   2.385 -0.0927 -0.1555  0.0800
12441W        W25855   6.990  12.780  15.823  0.0960 -0.5532  0.0532
12442W        W25856  11.415  13.834   3.203  0.5515  0.0701 -0.0362
12443W        W25857  15.537  17.148   4.099  0.0436  0.3101  0.2989
12444W        W25858   9.232   8.993  11.778 -0.1009  0.2481 -0.2672
12445W        W25859  14.487   3.048   1.221 -0.1211 -0.1509 -0.2766
12446W        W25860   5.421   7.260  11.654  0.0888  0.1329 -0.1456
12447W        W25861  17.397  13.655  14.690 -0.1810 -0.0637  0.1720
12448W        W25862   7.079  13.359  13.493  0.1874 -0.0089  0.2175
12449W        W25863   8.202   3.626   0.692 -0.2102  0.2448 -0.1530
12450W        W25864  12.560  17.377  15.568 -0.2266 -0.2095 -0.0626
12451W        W25865  12.150  14.233   3.622  0.1517  0.3489 -0.4369
12452W        W25866  15.802  16.802   4.401 -0.2320  0.0012  0.1453
12453W        W25867   3.164   1.918   5.318 -0.3647 -0.1351 -0.4322
12454W        W25868   2.930  17.073   0.031  0.0345 -0.1259  0.1019
12455W        W25869   5.195  14.244  13.921  0.0018 -0.0366  0.1363
12456W        W25870   3.334   8.540  12.895 -0.0364 -0.1302  0.1537
12457W        W25871  15.943   5.000  13.292 -0.0277 -0.0384  0.3141
12458W        W25872   3.828  12.289  15.564  0.0710 -0.0260 -0.0364
12459W        W25873   3.684   0.010  11.073  0.0136  0.0320 -0.0879
12460W        W25874   7.117  14.955   3.909  0.1097 -0.2408  0.0610
12461W        W25875  15.477   0.460   4.958  0.0138 -0.1237  0.0653
12462W        W25876   6.568  13.859   0.847 -0.4406  0.2170 -0.4169
12463W        W25877   2.626   0.787   4.361 -0.0842  0.1080  0.1303
12464W        W25878  11.032  10.666  15.543 -0.2320 -0.1489  0.0054
12465W        W25879   6.820   8.819  15.735 -0.3511 -0.0655  0.0977
12466W        W25880  10.282  11.818  12.077 -0.0556  0.0941 -0.5599
12467W        W25881  10.136   7.325   3.658 -0.2629 -0.2668  0.1272
12468W        W25882   6.139  12.394   2.118 -0.1567  0.1282  0.1519
12469W        W25883  12.635  16.804   4.072  0.0435 -0.0500 -0.1381
12470W        W25884   6.661  12.876   0.681  0.1430 -0.0800 -0.1659
12471W        W25885  14.806  12.451  13.497 -0.0566 -0.1367 -0.0821
12472W        W25886  14.007  15.073  15.818 -0.2330 -0.0279  0.2783
12473W        W25887   5.859   6.066   5.791  0.0281 -0.2304 -0.4069
12474W        W25888   4.995  16.523   2.025 -0.0294  0.1665 -0.2176
12475W        W25889   4.251  13.767   5.527  0.0671 -0.0486  0.1436
12476W        W25890   9.637  18.203  16.324  0.0185 -0.1504  0.1042
12477W        W25891  18.272  15.615   6.296 -0.2025 -0.2571  0.0361
12478W        W25892  13.181   4.918   4.966  0.0845  0.2999  0.3684
12479W        W25893  12.533   6.700  16.146 -0.0749 -0.0713  0.2037
12480W        W25894  18.110  14.809   3.073  0.1647  0.0698  0.0079
12481W        W25895   9.708   4.845   3.090 -0.2894  0.5161 -0.1204
12482W        W25896   8.507   3.843   4.070  0.1831  0.0651  0.1608
12483W        W25897   0.198  12.248  11.597  0.2222  0.1752  0.1478
12484W        W25898  12.728  11.180   4.453  0.0938 -0.2439  0.0105
12485W        W25899   6.688  16.177  12.042  0.2272 -0.0137 -0.0357
12486W        W25900   2.126  17.609  13.032 -0.0149 -0.1023 -0.2387
12487W        W25901   2.121  17.078  13.103  0.5233 -0.1257  0.0879
12488W        W25902   3.286  11.741   0.271 -0.0391 -0.2176  0.0255
12489W        W25903   2.456  13.413   4.358  0.0329  0.0854  0.1056
12490W        W25904   5.739  17.717   2.803  0.1631 -0.0782  0.0841
12491W        W25905  14.520  10.604   4.410 -0.1486 -0.0759 -0.1674
12492W        W25906  11.303  11.713  13.278  0.2699  0.1916  0.5035
12493W        W25907   6.430   2.257  14.812  0.0676 -0.2946  0.0803
12494W        W25908   9.958  11.252   2.073  0.1408 -0.1069  0.2681
12495W        W25909   5.557  14.080   5.890  0.1411  0.0870  0.0878
12496W        W25910   7.027   7.257   5.404 -0.0576 -0.2075  0.2470
12497W        W25911   2.872   4.186   3.624 -0.1818  0.3892 -0.1014
12498W        W25912  10.624   1.222   5.242  0.0939 -0.1037 -0.2475
12499W        W25913   5.452  14.492  14.373 -0.1498 -0.2044  0.1114
12500W        W25914   2.731  15.623   0.177 -0.2151  0.6692 -0.1745
12501W        W25915   1.338  17.378   1.154 -0.2670  0.1558  0.0764
12502W        W25916   3.931   9.933   4.545 -0.2434 -0.4616  0.4070
12503W        W25917   4.796   8.837  10.522 -0.1653  0.1721 -0.0381
12504W        W25918  15.626   1.321   0.139  0.3309  0.0531 -0.0361
12505W        W25919   9.844  18.085   4.486 -0.1215  0.1614  0.2222
12506W        W25920   2.557  12.190   0.468 -0.1548 -0.1318 -0.0010
12507W        W25921  10.452   3.365  14.222 -0.3880  0.2210 -0.3135
12508W        W25922   1.241  16.395   4.768 -0.0072 -0.0659 -0.0064
12509W        W25923  11.492  11.438   1.594 -0.1502  0.1512 -0.0183
12510W        W25924   5.252  11.382  13.062  0.2361  0.1471 -0.0295
12511W        W25925  15.033   5.205  15.090  0.2404  0.1164  0.1329
12512W        W25926   2.144   8.519  12.821 -0.1990 -0.3788  0.3359
12513W        W25927   2.476   4.349   2.112 -0.0406  0.3186 -0.0987
12514W        W25928  10.147   5.305   4.898  0.2153 -0.0904  0.1837
12515W        W25929   5.149   8.722  14.748 -0.2714 -0.0113  0.0653
12516W        W25930  11.710  17.376   1.069  0.0588 -0.0940  0.2593
12517W        W25931   5.152  18.038   0.118 -0.2087 -0.3138  0.1286
12518W        W25932  11.555  14.994  15.422 -0.2748 -0.2596  0.0872
12519W        W25933   8.881   0.418  11.943 -0.0663 -0.2123  0.0180
12520W        W25934  13.973  14.680   4.933  0.2922 -0.0893  0.2218
12521W        W25935   2.877  11.772  14.758 -0.2443  0.0548 -0.0789
12522W        W25936   1.584  17.457  11.074 -0.1314  0.1184  0.1357
12523W        W25937   0.662  10.101  15.663  0.0370 -0.2817  0.1153
12524W        W25938  12.952  14.287  10.471  0.0406 -0.0300 -0.2080
12525W        W25939   9.456  11.241   5.018 -0.1476  0.1523 -0.2421
12526W        W25940  16.033   0.183   3.052  0.3089  0.0678 -0.1752
12527W        W25941  17.433   7.819  14.053 -0.2245 -0.0552  0.0817
12528W        W25942   7.967   2.932  13.776 -0.2587  0.0905  0.1758
12529W        W25943   7.848  15.427   0.828  0.0850 -0.1121 -0.0071
12530W        W25944   6.425   2.068   4.506 -0.1697 -0.0459  0.0379
12531W        W25945   9.609  16.324  12.308 -0.1910  0.2478  0.4638
12532W        W25946   1.142  17.461  13.039 -0.5050 -0.1362  0.1329
12533W        W25947   1.929   7.246   4.906  0.1500  0.0809  0.4766
12534W        W25948   7.256   9.861  14.393 -0.0082 -0.0439  0.1458
12535W        W25949  17.668   1.064  10.528  0.0252  0.0417  0.0712
12536W        W25950   8.394   5.519   5.813 -0.1101  0.0457 -0.1471
12537W        W25951   6.868  15.788   0.129  0.1312  0.1578  0.0133
12538W        W25952   5.886   2.303  12.780 -0.0387 -0.0885  0.0876
12539W        W25953  12.860   4.980  11.242 -0.2370 -0.2294 -0.1252
12540W        W25954  10.058   9.906   1.155  0.2363 -0.2655 -0.1908
12541W        W25955   7.530   1.384   3.189 -0.0997  0.3292  0.0371
12542W        W25956   8.663  12.319   3.521 -0.2458  0.2062  0.0075
12543W        W25957  13.844   1.486   2.128  0.2673  0.0376 -0.0198
12544W        W25958   9.456  18.130  14.790 -0.1985  0.0257 -0.1905
12545W        W25959  14.158  12.397  12.237  0.0044 -0.2832 -0.0338
12546W        W25960   0.007  12.716  12.165  0.4390 -0.0381 -0.0191
12547W        W25961  15.492  16.342   4.403 -0.3358 -0.0894  0.1927
12548W        W25962  10.526  15.770   1.524  0.2523  0.2792 -0.0607
12549W        W25963   9.490  10.002  13.165 -0.0233  0.0920 -0.1718
12550W        W25964   7.428   1.058   4.443  0.1475 -0.0387  0.2612
12551W        W25965   2.401  13.926   0.559 -0.2853  0.0022  0.0799
12552W        W25966  14.683   7.919   0.189  0.1567  0.0832 -0.1394
12553W        W25967   0.646  12.298  14.868 -0.1254 -0.1586  0.1282
12554W        W25968   8.331   5.359   2.212  0.0874 -0.1291  0.0011
12555W        W25969   4.923  15.157  13.823 -0.0221 -0.3176 -0.1356
12556W        W25970  16.070  13.826   6.128 -0.0645  0.4905 -0.4968
12557W        W25971   5.267   3.098   2.897  0.2197  0.1618  0.1397
12558W        W25972  14.966  12.980  14.775 -0.2417 -0.2867 -0.0513
12559W        W25973  10.974  14.332   3.071  0.1366  0.1973 -0.2182
12560W        W25974   2.664  14.598  11.982 -0.1833 -0.3304 -0.2154
12561W        W25975   9.023  16.630  13.642  0.0706  0.0424 -0.1141
12562W        W25976   1.035   0.281  11.139  0.0162  0.0114  0.0260
12563W        W25977  13.756   3.715  15.908  0.0317 -0.2161  0.0202
12564W        W25978   4.073  16.183  12.496  0.0008 -0.0014 -0.0227
12565W        W25979   5.532  15.459  12.464  0.2626  0.3342 -0.1523
12566W        W25980   6.277  10.670   4.723  0.1945 -0.1815  0.1997
12567W        W25981   9.883   2.768  14.825  0.3552  0.1772 -0.3870
12568W        W25982   1.661  12.095  15.834 -0.0804 -0.2426 -0.1236
12569W        W25983   0.072  10.363   5.136  0.2499  0.1194 -0.3623
12570W        W25984   6.809   4.867   1.865  0.3037  0.2780 -0.0965
12571W        W25985   6.452   2.705   0.826  0.0315  0.1127 -0.1612
12572W        W25986  11.035   3.876  16.231  0.0657  0.2492  0.2362
12573W        W25987  17.062   0.833  10.631  0.0241 -0.2131  0.0634
12574W        W25988  16.761   3.252  11.125  0.1807 -0.0682 -0.4822
12575W        W25989   3.060   4.642  12.570 -0.0834 -0.0905  0.0024
12576W        W25990   0.263  14.413   1.498  0.3281 -0.0611  0.1654
12577W        W25991  17.529  15.872   2.329 -0.0661  0.2237  0.1013
12578W        W25992   9.583  11.855  15.610 -0.1378 -0.2159 -0.0512
12579W        W25993  15.485   9.621  12.594 -0.0828  0.0414  0.0201
12580W        W25994   7.099  13.590   4.611  0.0655 -0.2521 -0.1069
12581W        W25995   3.483  14.799  15.860 -0.1369  0.1555 -0.0011
12582W        W25996   6.135  17.942  13.764 -0.0955 -0.1303  0.4289
12583W        W25997   2.413  13.314  13.003 -0.0731  0.1222  0.2181
12584W        W25998  10.337  12.179  12.515  0.0939  0.1150  0.3720
12585W        W25999  17.195   8.374  14.621  0.2025  0.1580 -0.0672
12586W        W26000  13.846   2.711  13.310  0.2563 -0.2468  0.0829
12587W        W26001   2.713  15.871  13.950  0.0422 -0.1428  0.2687
12588W        W26002   0.383   6.126   4.523 -0.0817  0.3195  0.4921
12589W        W26003   7.621   1.804   5.082 -0.1810 -0.0036 -0.1173
12590W        W26004   7.035  13.048  16.300 -0.1210  0.0604  0.2081
12591W        W26005   1.190   2.200   0.645 -0.2320  0.0781  0.2128
12592W        W26006   2.699  10.499  12.861  0.0505  0.1404  0.0991
12593W        W26007  17.284  16.459   5.885  0.2910 -0.0095  0.0007
12594W        W26008  15.162   8.522  12.864 -0.0119  0.1111  0.1227
12595W        W26009   8.237  16.061  12.396  0.2384 -0.1209 -0.0623
12596W        W26010   5.766   5.719   2.295 -0.0013  0.0575  0.0702
12597W        W26011   5.121  11.049  10.883 -0.2409 -0.1678 -0.1185
12598W        W26012   8.113   2.891   3.344 -0.3672 -0.0622 -0.0593
12599W        W26013  13.626  16.269   0.722 -0.1925  0.0777 -0.1684
12600W        W26014   1.040   3.044  15.500 -0.0526  0.4580 -0.2059
12601W        W26015  14.452   5.886   3.924  0.1382  0.0561 -0.2906
12602W        W26016   1.273  12.173   1.567 -0.0368 -0.1673 -0.2499
12603W        W26017   3.031   3.794   5.563  0.1762  0.0236 -0.3083
12604W        W26018  10.711  17.478  14.127 -0.0835  0.0748  0.0116
12605W        W26019   3.977  14.348  10.232  0.0454  0.1066  0.0008
12606W        W26020  17.005   2.811  11.859  0.3204  0.1404 -0.4052
12607W        W26021   0.123  17.815  10.101  0.1057 -0.1050 -0.0676
12608W        W26022   5.597  12.548   4.371  0.0664 -0.0187  0.1469
12609W        W26023  11.423   4.129   6.031  0.1392  0.1070 -0.0195
12610W        W26024  11.013   6.201   5.573 -0.0685 -0.1192 -0.2048
12611W        W26025   4.993   0.321   5.170  0.1987  0.1861  0.0279
12612W        W26026   1.597   2.042  12.312 -0.0204 -0.2436 -0.0873
12613W        W26027   2.883  17.207  15.338  0.5254 -0.3731  0.2117
12614W        W26028  18.129  13.486   4.360  0.2309 -0.0319 -0.2711
12615W        W26029  11.985  18.213   1.081  0.0172 -0.2299 -0.3862
12616W        W26030   8.870   5.608   5.128 -0.2022 -0.0135  0.3170
12617W        W26031  10.354   0.989  12.661  0.0485  0.2925 -0.0793
12618W        W26032  11.174   9.723  10.828 -0.1526  0.1640  0.0376
12619W        W26033   4.289   1.675  16.016 -0.1093  0.0922 -0.2185
12620W        W26034   6.077  10.260  13.479 -0.1134  0.4095  0.0706
12621W        W26035   1.676  10.827   4.246 -0.0259  0.0139  0.1506
12622W        W26036   7.605  12.546   0.511  0.0203 -0.0102  0.1616
12623W        W26037   4.060   7.860  15.787 -0.0407 -0.0115  0.0753
12624W        W26038   9.940  11.022  11.728 -0.1354 -0.0198  0.0507
12625W        W26039  12.401   9.039   0.845  0.2617 -0.4794 -0.0393
12626W        W26040   0.643  17.516  12.385  0.0072  0.3219  0.0917
12627W        W26041  12.704  13.164  12.361 -0.0642 -0.0589  0.2434
12628W        W26042  11.911   4.513   3.766  0.0257  0.2720 -0.1301
12629W        W26043  17.137  14.420  14.809 -0.2037  0.3672  0.3631
12630W        W26044  10.833  17.476  12.676 -0.0769  0.1713  0.0630
12631W        W26045  17.068  16.752  16.305  0.0423  0.1185  0.1440
12632W        W26046  17.271   4.872  15.562 -0.0437 -0.3221  0.1451
12633W        W26047  14.529   7.431  11.844 -0.1074 -0.1607 -0.0636
12634W        W26048  16.933   7.859  15.417 -0.0357  0.1577  0.0288
12635W        W26049  16.563   3.639   5.650  0.1531 -0.1162 -0.4083
12636W        W26050  11.830   3.060  16.541  0.0340  0.1498  0.2282
12637W        W26051   8.487   5.380   0.650  0.0668 -0.1154 -0.3207
12638W        W26052  12.276   7.168  11.295  0.0931 -0.4207 -0.1210
12639W        W26053   9.201   1.450  15.953 -0.1440  0.1275 -0.0497
12640W        W26054  15.007   2.450  15.416  0.0057 -0.1248 -0.0537
12641W        W26055   9.788  14.272   2.319  0.0459  0.0541  0.4354
12642W        W26056  15.191   8.935   5.000 -0.2262  0.2595 -0.5218
12643W        W26057  14.832   1.040  15.838 -0.0288  0.1319 -0.1508
12644W        W26058   2.976   4.820  13.464  0.2423  0.0549  0.0656
12645W        W26059  10.461   6.990  14.352 -0.0719 -0.0216  0.0454
12646W        W26060   0.914   8.570   2.533 -0.4245 -0.1308 -0.1834
12647W        W26061   4.627  17.809  12.502 -0.0360 -0.3496 -0.1075
12648W        W26062  13.752   7.764  11.963  0.2497 -0.0093 -0.1568
12649W        W26063  17.936   9.575  15.691  0.0025  0.2820  0.0692
12650W        W26064  11.508  16.100   3.678 -0.1994  0.2079 -0.1662
12651W        W26065  17.495  15.821   2.831  0.0676  0.1210  0.1448
12652W        W26066  16.535   4.285   3.820  0.0760 -0.1862  0.1338
12653W        W26067   2.205  12.991   1.117  0.1422 -0.0339 -0.2630
12654W        W26068  16.816   5.116  13.647 -0.0985 -0.1828  0.2085
12655W        W26069   0.771  12.452  12.798  0.1367 -0.1029  0.2098
12656W        W26070   1.810   4.684   1.962 -0.0071 -0.0435  0.0429
12657W        W26071  11.375   8.302   2.865 -0.0045 -0.0548 -0.0336
12658W        W26072   9.244  13.508  14.781  0.1219 -0.0298  0.0023
12659W        W26073  14.212  14.873  13.562 -0.2742 -0.3419  0.1055
12660W        W26074  15.152   4.804   4.704  0.1119 -0.1787 -0.3368
12661W        W26075   3.261   9.239   1.836  0.0249 -0.0621 -0.0487
12662W        W26076  13.469   5.728   1.526  0.0329  0.0995  0.1327
12663W        W26077  15.114  11.725   1.626 -0.1880  0.0577  0.0617
12664W        W26078  14.500  16.331   1.296 -0.0706  0.0588 -0.0355
12665W        W26079  11.657   2.520  10.768 -0.4301 -0.0741 -0.2119
12666W        W26080   1.609  17.660  12.103  0.1897  0.2945  0.3481
12667W        W26081  15.701   9.928  12.924  0.2942 -0.2066  0.1843
12668W        W26082   2.741  13.317   3.807 -0.1050  0.0037 -0.4332
12669W        W26083   4.103   2.726   1.475  0.0329  0.0655  0.0869
12670W        W26084   1.017   3.247  13.054  0.0682 -0.4976 -0.1073
12671W        W26085  10.716  18.272  14.996  0.1393 -0.0244 -0.2042
12672W        W26086  15.347  15.779  10.899  0.1935 -0.1883 -0.1938
12673W        W26087   8.222   7.317  16.056 -0.5341  0.0413  0.5724
12674W        W26088  16.094   8.157   1.368  0.2862  0.0399 -0.1853
12675W        W26089   3.971  10.210   5.545  0.1077  0.0860  0.3536
12676W        W26090  18.005   5.359  16.173 -0.2023  0.1109  0.0484
12677W        W26091   2.329   2.643  14.136  0.0508 -0.0528  0.1455
12678W        W26092  18.086   9.823  12.973 -0.1585  0.0164  0.1570
12679W        W26093   0.454  12.814   3.034  0.1428  0.1900  0.0890
12680W        W26094   8.414  17.971   1.831 -0.1628  0.1831  0.2099
12681W        W26095   3.802   4.564   2.440  0.0204 -0.0531 -0.2039
12682W        W26096   7.385   3.614  10.671 -0.0232  0.0206  0.0288
12683W        W26097   4.185   9.654   2.892 -0.1260 -0.2897 -0.3705
12684W        W26098  15.109  17.812  14.103 -0.0563  0.1143 -0.1093
12685W        W26099  13.293   0.925   0.943  0.1595  0.0424 -0.1327
12686W        W26100  16.542  17.314   2.778 -0.0618 -0.0361  0.0693
12687W        W26101   0.704  15.072  13.027  0.1586 -0.0568  0.0754
12688W        W26102   9.736  15.764   2.682  0.1140  0.0606 -0.1059
12689W        W26103   0.130  16.842  10.736  0.1136  0.1466  0.1133
12690W        W26104  14.382  12.521   2.851 -0.0268  0.1859  0.1142
12691W        W26105   7.437  11.738  14.014  0.0330 -0.0360  0.0342
12692W        W26106  12.394   7.920  12.510 -0.1229  0.0425 -0.1377
12693W        W26107  12.087  11.892   5.328  0.4328 -0.3083 -0.1249
12694W        W26108   3.232   0.368   0.302  0.0392  0.2531  0.1727
12695W        W26109   2.960   1.227   4.886 -0.0733 -0.0490  0.3699
12696W        W26110  12.161  10.136   0.321  0.1634  0.0021  0.2112
12697W        W26111  14.810   0.117   4.502  0.2451  0.2653 -0.1529
12698W        W26112   0.203  15.949   2.647 -0.0588 -0.1485 -0.0164
12699W        W26113   0.931  14.218  13.496  0.1482 -0.0192 -0.5286
12700W        W26114  10.322   5.192  14.940 -0.1888 -0.1850  0.2618
12701W        W26115   7.480   1.335  16.074  0.1482  0.2291  0.0262
12702W        W26116  14.456  14.604   2.074  0.1009  0.0683 -0.1901
12703W        W26117   8.211  11.172  14.042  0.1352  0.0965  0.1084
12704W        W26118   5.974   3.852  16.328 -0.1780  0.0151  0.2744
12705W        W26119   9.330   6.845  13.820 -0.0334 -0.0289  0.2461
12706W        W26120   9.141  16.594   2.565  0.0044 -0.0042  0.1393
12707W        W26121  14.787  17.934  14.493  0.0563  0.2400  0.1093
12708W        W26122   6.261  12.968   0.958 -0.1362  0.1198  0.3280
12709W        W26123   5.442  13.451   2.200 -0.2230  0.1168 -0.1861
12710W        W26124  17.826  16.263   2.263 -0.1164 -0.1549 -0.0833
12711W        W26125   5.195   9.946  13.677  0.1620 -0.0445  0.1370
12712W        W26126  12.832  12.612   3.590 -0.2453  0.0054 -0.1903
12713W        W26127   7.378   8.512  13.141 -0.2503 -0.1307 -0.3160
12714W        W26128  12.381  15.179   2.553  0.0728 -0.2638 -0.1480
12715W        W26129   8.141   9.835  12.041 -0.1194 -0.1813  0.1896
12716W        W26130  17.785   2.978  13.278  0.3615  0.1385  0.2977
12717W        W26131   2.473  13.797   3.767  0.0896 -0.0719 -0.2022
12718W        W26132   5.590  11.361  13.560 -0.5712 -0.0139 -0.0674
12719W        W26133   9.100   6.572   5.692  0.1789  0.4013  0.0002
12720W        W26134  14.676   1.983   4.719 -0.0695 -0.1280 -0.1904
12721W        W26135   5.567   5.953   4.320 -0.0546 -0.0058  0.2089
12722W        W26136  11.455  12.796  15.770  0.0338 -0.0213 -0.1180
12723W        W26137   7.433   4.169   2.516 -0.0652 -0.0766 -0.0801
12724W        W26138  12.959   8.539   2.548  0.0187  0.0928  0.0348
12725W        W26139   7.588   9.515  14.347 -0.0067  0.0026  0.3004
12726W        W26140  12.746   8.696  13.073  0.0778  0.3785 -0.0635
12727W        W26141  12.628   0.137  16.082  0.3062  0.0394 -0.1154
12728W        W26142   9.511   0.072   3.599 -0.0254  0.2493  0.2468
12729W        W26143   8.925   8.418  11.281  0.2171  0.0257 -0.0610
12730W        W26144   3.009  13.875   2.499 -0.1776  0.0902  0.0985
12731W        W26145   9.883   4.258   1.371 -0.2362 -0.0270  0.1026
12732W        W26146  10.110   8.540  12.064 -0.1699 -0.0222  0.1540
12733W        W26147   7.349   6.604  13.137  0.3869 -0.1707 -0.0567
12734W        W26148   3.834   0.672   2.805  0.1682 -0.1317  0.2524
12735W        W26149  10.911   2.353   0.981  0.0234  0.2578 -0.1111
12736W        W26150  12.968   1.551  14.128  0.1280 -0.0849 -0.0707
12737W        W26151   0.575   4.564   3.940  0.0628  0.0732 -0.2464
12738W        W26152  14.894   1.343  11.913 -0.2389  0.1651  0.1147
12739W        W26153  11.805   7.609   4.691  0.1594  0.2273 -0.2419
12740W        W26154  11.523   5.222  16.380  0.0495  0.1144  0.1141
12741W        W26155   1.941   9.948  11.929 -0.3832  0.2078 -0.3797
12742W        W26156   2.802   5.155   1.211 -0.0603 -0.2383 -0.0515
12743W        W26157   1.929   6.924  12.636 -0.1018 -0.1059  0.2738
12744W        W26158  14.395  17.279  11.907  0.0016 -0.2035  0.4128
12745W        W26159  15.159   0.069  16.481 -0.1790  0.3127 -0.2821
12746W        W26160  12.668   5.810  10.751 -0.1740  0.1318 -0.1082
12747W        W26161  18.141   8.435  11.649 -0.0078  0.0636 -0.1388
12748W        W26162   8.204  15.368  15.161 -0.3324 -0.3539  0.0424
12749W        W26163   6.222  15.712   2.278  0.4571 -0.1417  0.1257
12750W        W26164   7.655   2.229   2.942 -0.1640  0.1249  0.0132
12751W        W26165   8.154   2.145  12.603 -0.0136 -0.1459  0.1261
12752W        W26166  11.097  13.977   5.305  0.0705  0.1146 -0.0508
12753W        W26167   9.277   3.387   1.931 -0.1443 -0.1130 -0.0536
12754W        W26168  11.820  10.432   3.834  0.3319 -0.0498  0.2964
12755W        W26169  16.764   8.262   4.027 -0.2867  0.1285  0.0526
12756W        W26170  13.581   0.328   3.215  0.0178 -0.0784 -0.1486
12757W        W26171   5.045   7.355  15.269 -0.2215 -0.1825  0.0230
12758W        W26172   7.654   3.513   4.153 -0.2581 -0.1393  0.0833
12759W        W26173   7.470   3.675  13.135 -0.1085 -0.1477 -0.0607
12760W        W26174  18.016   4.306  15.336  0.0438 -0.0044 -0.1750
12761W        W26175  11.787  17.143  14.046 -0.0783 -0.1368  0.0780
12762W        W26176   2.108  14.157   0.187  0.3806  0.0942 -0.1233
12763W        W26177  10.986   3.714   5.426 -0.1945  0.0243  0.2478
12764W        W26178   7.311  11.602  15.089  0.0959  0.1288 -0.2588
12765W        W26179  17.552  16.586  16.438  0.3340  0.2562 -0.1831
12766W        W26180  14.887   5.746  11.428  0.0131  0.1867 -0.0550
12767W        W26181   6.092  14.349  15.942  0.2073 -0.1358 -0.2501
12768W        W26182  15.715   1.465  11.602 -0.0015  0.0909 -0.0632
12769W        W26183  10.310   1.649  14.772 -0.0627 -0.0240  0.1958
12770W        W26184   8.134   9.105  15.199  0.1589 -0.1042 -0.0832
12771W        W26185   9.549   0.305   0.162 -0.0523  0.2109  0.1013
12772W        W26186  10.440  17.951   3.223 -0.2580  0.1073 -0.0882
12773W        W26187   8.473   1.296   4.820  0.2048  0.5425  0.1568
12774W        W26188  12.928   6.385   1.837 -0.2482 -0.0180  0.1895
12775W        W26189   1.692   7.087   0.794 -0.2491  0.3736 -0.2668
12776W        W26190  13.296   3.252   3.236  0.1634 -0.2243  0.0602
12777W        W26191  16.034  10.969   2.924  0.2339  0.0702  0.0227
12778W        W26192  13.893   0.351  14.527 -0.1535 -0.2235 -0.1712
12779W        W26193   3.324   6.663   1.209 -0.1337  0.0782 -0.3228
12780W        W26194  16.669   1.701  12.677 -0.2198  0.0111 -0.0310
12781W        W26195   3.764   7.157  12.548  0.3615 -0.4492 -0.0592
12782W        W26196  14.534  15.264   0.465  0.1819 -0.1376  0.1823
12783W        W26197   7.190   7.761   5.909 -0.1928  0.0230 -0.1767
12784W        W26198   3.921  15.736   3.993 -0.1716 -0.0076  0.1889
12785W        W26199  16.250   4.847  15.368 -0.2516  0.1720  0.3861
12786W        W26200  13.706  12.505  16.457  0.0485 -0.1907 -0.2477
12787W        W26201   5.460   7.643   1.835 -0.1356 -0.1908  0.5216
12788W        W26202   1.348  13.248   0.025 -0.0167  0.1989  0.2830
12789W        W26203   7.212  12.605  11.494 -0.1301 -0.1556 -0.0211
12790W        W26204  13.936  17.616   3.548 -0.0521 -0.3646  0.2427
12791W        W26205  12.135   0.333  16.550 -0.3959  0.1293  0.1123
12792W        W26206  12.733  13.097  12.997  0.0516 -0.0761 -0.2857
12793W        W26207  16.979  17.539   2.591 -0.0238  0.2242  0.0846
12794W        W26208   5.781   2.773   2.722  0.0313  0.2866  0.2052
12795W        W26209   9.022  17.486   4.394 -0.0307 -0.1613 -0.2535
12796W        W26210  17.770  12.627  14.586 -0.1041 -0.2243  0.0794
12797W        W26211   6.706  10.148  15.671  0.1164  0.1800  0.0373
12798W        W26212  10.623   5.532   6.109  0.1027 -0.0460 -0.1335
12799W        W26213   8.230  10.195  13.192  0.1068  0.0719 -0.2075
12800W        W26214   4.357   1.407  13.469  0.0094  0.2069  0.0307
12801W        W26215   6.223  12.379  14.176  0.0875  0.1654 -0.3197
12802W        W26216   8.754  11.181   6.539 -0.1040  0.0350  0.0420
12803W        W26217   4.567   6.462   1.653  0.0643 -0.2340 -0.1195
12804W        W26218   8.476  12.933   3.720 -0.3434  0.2169 -0.4117
12805W        W26219   5.291  16.138   2.239 -0.1318  0.0373  0.3997
12806W        W26220   3.929   4.709   3.426  0.1274 -0.0892  0.3361
12807W        W26221   7.801  12.928   4.912 -0.0238 -0.0062 -0.1722
12808W        W26222   5.352   7.769  15.207  0.4505  0.0034 -0.2238
12809W        W26223  16.312  16.132  12.364  0.2147  0.0902  0.0759
12810W        W26224   5.089  14.237  10.721  0.0522  0.0134 -0.0351
12811W        W26225   9.692   8.564  13.467  0.0772  0.0969  0.0629
12812W        W26226   0.400  12.828  14.206 -0.3124  0.1897  0.0999
12813W        W26227   4.059   7.950  15.033 -0.0797  0.0277 -0.0737
12814W        W26228  15.391   5.182  15.476  0.1918  0.0018 -0.3027
12815W        W26229  13.337   1.669  14.645  0.0324  0.1939  0.0168
12816W        W26230   1.474  11.254   4.448  0.0743  0.1614 -0.0530
12817W        W26231  11.890   9.522  13.579 -0.1773  0.0139 -0.0682
12818W        W26232   9.878   0.122   1.794  0.2713 -0.2214 -0.0013
12819W        W26233   7.401   6.187  13.452  0.3035  0.0227  0.2013
12820W        W26234  15.537  17.888  15.408  0.2033  0.1354  0.0607
12821W        W26235  10.797   3.429   3.414  0.0123 -0.2649  0.2559
12822W        W26236  12.227   6.316  12.509 -0.1149 -0.0825 -0.0793
12823W        W26237   4.369   6.513   0.890  0.0893  0.0473  0.4026
12824W        W26238  15.961   0.949  14.086 -0.1245  0.0378 -0.1265
12825W        W26239  10.567  11.648  15.321 -0.3059  0.0333  0.1271
12826W        W26240   5.615   6.540   2.857 -0.1911 -0.3072 -0.0917
12827W        W26241   1.471   0.297   1.408  0.1199  0.0982 -0.1565
12828W        W26242   0.386   7.806   5.576  0.0163 -0.0125 -0.1064
12829W        W26243   6.425   9.458  13.799 -0.1502  0.1175  0.0500
12830W        W26244  14.623  18.179  15.738  0.1009  0.2060 -0.0295
12831W        W26245  16.918   6.050  16.295 -0.2427 -0.2889  0.0290
12832W        W26246  16.620   5.898  14.095 -0.0240  0.2647  0.0319
12833W        W26247  10.818   5.608  16.521  0.0559  0.0518 -0.0182
12834W        W26248   0.827  10.928   1.602 -0.0092  0.0100 -0.0795
12835W        W26249   3.345   7.820  12.330 -0.2666 -0.3894 -0.1208
12836W        W26250   5.751  11.801   0.772 -0.3892 -0.0480 -0.2465
12837W        W26251   5.327   8.371   3.331  0.1091  0.0321 -0.0249
12838W        W26252  17.687   4.551  15.680  0.3785  0.2135  0.0768
12839W        W26253  13.167  16.976   4.785 -0.1213 -0.0300  0.2488
12840W        W26254  10.819   1.891   0.886  0.0223  0.1183  0.2931
12841W        W26255   7.976  13.305   3.962  0.3001  0.2132 -0.0568
12842W        W26256  12.948  15.129   4.383  0.0063 -0.1094 -0.1275
12843W        W26257   2.330   9.990   6.080  0.1707  0.0144 -0.1364
12844W        W26258  12.261  10.582   4.126 -0.1784  0.2738  0.0255
12845W        W26259  16.016   5.559   0.573 -0.2051 -0.3186  0.0397
12846W        W26260   4.650  14.386  14.669  0.0864  0.5342  0.1703
12847W        W26261   4.800  17.728   3.092  0.1390 -0.0096 -0.0995
12848W        W26262   6.596  14.360  12.062  0.0919 -0.3625  0.1021
12849W        W26263  14.838  11.222  15.854  0.0036  0.6400 -0.2748
12850W        W26264  15.730  11.927  14.566 -0.3337 -0.1214  0.1033
12851W        W26265  17.315   6.987  13.769 -0.0100  0.2637 -0.3702
12852W        W26266  10.685   4.375  10.241 -0.1941  0.0555 -0.0680
12853W        W26267   0.464   6.555  14.329  0.0892 -0.0539  0.2594
12854W        W26268  15.113   1.565   5.674  0.1239 -0.2600 -0.2729
12855W        W26269  14.667   7.117   5.947 -0.3780  0.1282 -0.1598
12856W        W26270   0.814   0.566  11.974 -0.1776  0.0479  0.3389
12857W        W26271  15.498  15.623  13.866 -0.1668  0.2090  0.1108
12858W        W26272   0.336   6.582  13.319 -0.0438 -0.0036 -0.0442
12859W        W26273  11.443   2.562   1.771  0.1847 -0.0970  0.3528
12860W        W26274  15.638  10.112  10.816 -0.0295 -0.1184  0.4326
12861W        W26275  15.982  12.452   0.019 -0.2932 -0.0771 -0.0017
12862W        W26276  18.127   7.834   1.573  0.5299 -0.1818  0.1689
12863W        W26277   8.472   8.506   3.668 -0.1948  0.1959 -0.0109
12864W        W26278   2.170  15.731  14.712  0.1175 -0.1028 -0.2165
12865W        W26279   8.888  14.592  11.781  0.0015  0.0799 -0.0541
12866W        W26280  14.223   8.652  10.521  0.1710 -0.1883 -0.2477
12867W        W26281   3.835   7.333  13.764  0.0202 -0.2993 -0.1203
12868W        W26282  18.272  16.580   2.493 -0.1788 -0.3129  0.0236
12869W        W26283   3.691   8.806   4.310  0.0490  0.1278 -0.1638
12870W        W26284   5.952   8.998   2.723 -0.0593  0.1913  0.0460
12871W        W26285  14.058   3.216   5.262  0.0663  0.2466 -0.3066
12872W        W26286   6.612  14.550  15.840  0.1844  0.1141  0.0674
12873W        W26287   0.475  14.706   4.824 -0.3090 -0.2595  0.3941
12874W        W26288   1.218   8.019   1.676 -0.1133 -0.2580  0.4310
12875W        W26289  13.391   9.998  13.952 -0.0079 -0.0462  0.2990
12876W        W26290   4.212   9.686   0.279 -0.1334 -0.0266 -0.0589
12877W        W26291   3.953  15.460  11.555  0.2413  0.0630 -0.0363
12878W        W26292  14.808   7.035   2.953 -0.0850  0.1579 -0.0292
12879W        W26293  10.086   7.918   0.602  0.0226 -0.0278  0.0407
12880W        W26294  13.279   1.528  16.460 -0.3225  0.1553 -0.0957
12881W        W26295   7.333  15.357   0.739  0.3984  0.0033 -0.0784
12882W        W26296   8.840   5.557  15.461  0.0609  0.2262 -0.3247
12883W        W26297   6.761   4.602   5.118 -0.3792 -0.2205  0.0966
12884W        W26298   8.788   0.209  16.170 -0.1555 -0.1480  0.0177
12885W        W26299   6.464  15.466   3.191  0.0402 -0.2188  0.0463
12886W        W26300   6.599  12.984   5.973  0.0693 -0.0874  0.0646
12887W        W26301   2.016  12.745   0.426  0.0766  0.2498 -0.1532
12888W        W26302   0.319  12.260  12.772 -0.3077 -0.0833  0.0496
12889W        W26303   2.947  11.272  10.610  0.2558 -0.1031  0.1074
12890W        W26304   2.409  15.933  11.157  0.5197 -0.0377  0.1066
12891W        W26305  12.255   1.078   6.336  0.1546 -0.0857 -0.3873
12892W        W26306   8.695  11.434   2.638 -0.0649  0.1698  0.0140
12893W        W26307  10.863   4.761   2.238 -0.0600  0.1166 -0.1581
12894W        W26308  15.446  12.611  11.481 -0.0732  0.0645  0.2772
12895W        W26309   8.578  16.690  13.907 -0.1385 -0.3651  0.0155
12896W        W26310   3.983  13.181  12.829  0.2275 -0.0273 -0.0652
12897W        W26311   1.682  14.918  12.202  0.0067 -0.0275 -0.1062
12898W        W26312  15.448   7.720  12.875 -0.2971 -0.0248 -0.0149
12899W        W26313  13.251   1.083   4.841 -0.1068  0.1083 -0.0896
12900W        W26314  15.418   6.758   4.156  0.0832  0.2746  0.0774
12901W        W26315  14.013  17.875   1.726 -0.2585  0.1984  0.0112
12902W        W26316   6.288   6.317   4.614 -0.1392 -0.2633 -0.2891
12903W        W26317   0.649  11.464  12.294  0.0277 -0.0764 -0.0060
12904W        W26318   0.365  13.315   2.247 -0.1166  0.2184  0.0345
12905W        W26319   2.791   1.388   1.240  0.0721 -0.1435  0.1867
12906W        W26320   5.691   4.041   4.572  0.0020  0.2223  0.0704
12907W        W26321  15.171   0.225  10.759  0.1093  0.1189 -0.1579
12908W        W26322  14.783  17.426   3.072  0.1281  0.3052 -0.2207
12909W        W26323   4.249   7.492  12.513  0.1572  0.0292 -0.0728
12910W        W26324   1.914   0.060   4.190  0.0551 -0.1093 -0.1326
12911W        W26325  16.074   7.277   5.146 -0.0418  0.2679  0.1210
12912W        W26326   5.370  16.713  16.243  0.2617 -0.1967 -0.1402
12913W        W26327  12.953  11.787  13.452  0.0728  0.3792  0.2469
12914W        W26328   1.206  15.925   2.169 -0.0634 -0.3342 -0.1146
12915W        W26329  13.708  17.838  11.948  0.0657 -0.0463  0.3969
12916W        W26330   1.202  14.787  14.921  0.3176  0.0843  0.0770
12917W        W26331   0.744   9.679  10.447  0.0469  0.1211  0.0913
12918W        W26332  11.037  15.418  11.837 -0.1399  0.2240  0.1116
12919W        W26333   6.428   6.337  12.172  0.0937  0.1911  0.1429
12920W        W26334  13.520  13.182  11.373 -0.1627 -0.1256  0.1684
12921W        W26335   5.652  16.037   1.883  0.0031  0.1931  0.3011
12922W        W26336   4.830  14.952  11.740 -0.1435 -0.0478 -0.1241
12923W        W26337   7.702   0.767  11.852  0.4076 -0.2030 -0.0030
12924W        W26338  12.206   8.308  13.607 -0.1234  0.0293 -0.3197
12925W        W26339  10.421   2.710  14.806 -0.2429  0.2104 -0.0173
12926W        W26340  11.290   1.182   6.307  0.0525  0.1669  0.1273
12927W        W26341  16.348   0.132   5.674  0.2731 -0.0469  0.1462
12928W        W26342  17.427   5.378   9.825  0.0788 -0.1754 -0.1525
12929W        W26343   8.010  12.051   1.955 -0.0313 -0.0981  0.1015
12930W        W26344  12.059   3.022   5.345 -0.0444  0.1069  0.2491
12931W        W26345  12.590  13.085  11.770  0.3205  0.2351 -0.1038
12932W        W26346   4.239   1.447   4.982  0.0050 -0.0833 -0.0108
12933W        W26347   3.990  17.170   2.699  0.1434 -0.0155 -0.0068
12934W        W26348   8.023  17.002   6.119  0.0879 -0.1706  0.0986
12935W        W26349   7.861   0.831  12.877  0.1538 -0.1089  0.1502
12936W        W26350   4.107   0.195  13.674  0.2561  0.0558 -0.0818
12937W        W26351  13.796   7.280   3.227  0.1075 -0.3312  0.1423
12938W        W26352   9.518  16.201  10.577  0.0110  0.2322 -0.1987
12939W        W26353   3.537   6.469  14.768 -0.1374 -0.2470 -0.0389
12940W        W26354   4.212   6.343  10.547 -0.2755  0.0477  0.0164
12941W        W26355   7.406  17.205  12.060 -0.1829  0.0245  0.0302
12942W        W26356   2.140  11.160  10.742  0.1521 -0.0472  0.4175
12943W        W26357   9.510   9.675   5.024  0.1714  0.1244 -0.1107
12944W        W26358  17.985  13.754  12.756  0.0245  0.0317 -0.2876
12945W        W26359  12.238   1.500   1.843  0.0694 -0.1342  0.0068
12946W        W26360  17.337   1.594  16.134 -0.0725 -0.2746  0.1599
12947W        W26361  11.555  13.491  13.513 -0.0786  0.1696 -0.1487
12948W        W26362  16.254  10.806   3.352 -0.0602 -0.1922  0.1397
12949W        W26363  12.021   4.184   5.839 -0.1212 -0.2731  0.1901
12950W        W26364   2.304  12.368  15.878 -0.1884  0.0525  0.0593
12951W        W26365  15.138   6.339   2.303  0.3192 -0.0009 -0.3359
12952W        W26366  12.244   6.210  13.004 -0.0127 -0.0603  0.2548
12953W        W26367   4.482  10.057   5.539  0.0339  0.4251 -0.1953
12954W        W26368   3.513  15.153   4.323 -0.2178 -0.0255  0.0609
12955W        W26369   6.132   1.100   3.229  0.0464 -0.3387  0.0058
12956W        W26370  10.476   8.917  11.985  0.2197 -0.0853 -0.1142
12957W        W26371   2.157   7.229  11.850 -0.1084  0.1704  0.2013
12958W        W26372   7.364   1.065  16.500  0.0624 -0.2840  0.1497
12959W        W26373  13.726   7.655  13.308 -0.1292 -0.1082 -0.1422
12960W        W26374   0.578   5.860  10.129 -0.1565 -0.3097 -0.2159
12961W        W26375   0.466  11.555   5.145 -0.0531 -0.0387  0.0770
12962W        W26376   0.837  17.339  10.341 -0.1761 -0.0054  0.0598
12963W        W26377  10.402  15.120  12.501 -0.1363 -0.1987 -0.1786
12964W        W26378   6.727   8.653  12.452 -0.0390  0.1564  0.0052
12965W        W26379  13.788  16.553  16.064  0.3897 -0.1653  0.0448
12966W        W26380  13.717  17.788   2.083  0.1822  0.0427  0.1776
12967W        W26381  15.567   6.801   0.966  0.0540  0.0153 -0.0539
12968W        W26382  10.545  16.337   2.559  0.1338  0.1879  0.1530
12969W        W26383   8.654   2.604   5.957 -0.0458 -0.0813 -0.2176
12970W        W26384   8.047   7.896   0.297 -0.0673 -0.1045  0.1028
12971W        W26385   5.294  12.849  15.921  0.2425  0.2111  0.2923
12972W        W26386  12.285  13.371   3.176 -0.0679  0.0435 -0.3234
12973W        W26387   9.738  15.956  15.948 -0.1883  0.1933 -0.0537
12974W        W26388   2.849   3.164  13.094 -0.1376 -0.3884 -0.0910
12975W        W26389   4.223   8.050   4.968 -0.2661 -0.1667  0.1522
12976W        W26390   9.085  13.030  11.449 -0.0018 -0.0283 -0.1372
12977W        W26391   7.641   7.262   2.936  0.0178 -0.2454 -0.0408
12978W        W26392  17.097  17.089  11.899  0.0356  0.0571  0.0941
12979W        W26393   9.375   3.835  14.590  0.1678 -0.1772 -0.1012
12980W        W26394  16.593   3.665  15.649 -0.1715  0.0062  0.3164
12981W        W26395  13.948   5.071   5.332 -0.1380  0.2698  0.2202
12982W        W26396  15.935   8.023  16.132 -0.1751  0.0219  0.2511
12983W        W26397   8.026   9.772   4.187 -0.0351  0.1580 -0.0602
12984W        W26398   4.333  11.276   6.626 -0.0639  0.0206 -0.0453
12985W        W26399   6.715  16.752  13.127  0.1363 -0.4607 -0.1018
12986W        W26400   8.082   9.542  12.460  0.1924 -0.2870 -0.2061
12987W        W26401  14.623   0.642   4.672  0.1880 -0.3956 -0.0277
12988W        W26402   8.978   3.077  15.053 -0.2807  0.2542 -0.0901
12989W        W26403  14.919   9.762   2.728  0.1558 -0.1554  0.2493
12990W        W26404   4.670   9.157  15.361  0.2245 -0.0100 -0.0055
12991W        W26405   8.757   4.072   2.310 -0.2694  0.0499 -0.1499
12992W        W26406   2.637   8.743  15.201  0.1669 -0.3309 -0.5466
12993W        W26407   2.217  14.624  10.620  0.0609  0.0556  0.1648
12994W        W26408   5.516   9.408   4.256 -0.0291  0.2672  0.1381
12995W        W26409   1.224  14.687  11.371  0.3272 -0.2606  0.1568
12996W        W26410   4.569   0.788  16.409 -0.0689  0.0695  0.2071
12997W        W26411   9.038   4.035   0.877 -0.0870  0.0958 -0.0854
12998W        W26412  14.782   4.780   0.565  0.2039  0.0855 -0.2783
12999W        W26413   7.828   2.242  12.165  0.1953  0.3089 -0.0356
13000W        W26414  13.839   4.984   1.185  0.1157  0.2332 -0.0313
13001W        W26415  14.235   8.809  13.928  0.1010  0.0709  0.2469
13002W        W26416  12.419   0.345  14.715  0.0174  0.1225  0.0244
13003W        W26417   5.758  17.873   5.027 -0.1699  0.1176 -0.4480
13004W        W26418  15.590  13.797  10.462  0.2121  0.4135 -0.0373
13005W        W26419   1.318   9.600   0.641  0.0317  0.1292 -0.1348
13006W        W26420   1.919  10.486  11.079  0.2405 -0.1791  0.1482
13007W        W26421  11.566   1.575  11.342  0.1620 -0.4284 -0.1353
13008W        W26422  14.066  11.071  13.933  0.1229 -0.1546 -0.2029
13009W        W26423  12.166   1.095  12.772  0.0177  0.0407  0.0975
13010W        W26424   9.699   1.133  13.410 -0.1047  0.1304 -0.1574
13011W        W26425  10.311   5.506  11.883  0.4211  0.2466  0.1437
13012W        W26426   6.085   3.497   3.309 -0.1823 -0.1714 -0.0086
13013W        W26427  17.961   3.899   2.474  0.1888  0.0398 -0.0576
13014W        W26428  18.096  10.404   1.469 -0.1953  0.3812 -0.1027
13015W        W26429  17.009  18.265   0.748  0.1345  0.1087 -0.0644
13016W        W26430   6.453   9.341  14.546 -0.1326 -0.2698 -0.1235
13017W        W26431   9.642   4.780  11.207  0.2780  0.1478  0.1384
13018W        W26432  10.996   6.342  12.105 -0.1067 -0.0148 -0.1863
13019W        W26433  16.306   7.786   5.074  0.0326  0.1304  0.1748
13020W        W26434   7.040  10.674  16.310  0.0199  0.2857  0.3479
13021W        W26435   0.815   0.131  12.567  0.0586 -0.1108  0.0011
13022W        W26436  17.448   8.847  16.274 -0.1356  0.0177  0.1552
13023W        W26437  13.134   7.868  12.784 -0.1774 -0.5040  0.0593
13024W        W26438  15.053   4.323  11.821 -0.1157  0.0631 -0.3377
13025W        W26439   8.717  11.927   3.204 -0.1525  0.1253  0.0577
13026W        W26440   8.294   6.823  13.049 -0.0062 -0.0813  0.1676
13027W        W26441   2.217   3.809  13.202  0.0352  0.1883  0.3981
13028W        W26442  11.520   3.657   2.403  0.1895 -0.0112  0.0536
13029W        W26443  10.077  13.710   0.771  0.2862  0.0637  0.0246
13030W        W26444   0.871   6.668  15.282  0.0243  0.2806 -0.0443
13031W        W26445  12.097  12.263   3.694  0.0709  0.0618  0.0641
13032W        W26446  14.602   1.169   4.879  0.1497 -0.2328 -0.3141
13033W        W26447   6.352   3.933   5.507 -0.4483 -0.0940 -0.0193
13034W        W26448   5.112  14.628  10.305 -0.1813 -0.1338  0.2126
13035W        W26449  10.001  11.277  16.255 -0.2305  0.2229  0.0016
13036W        W26450   0.696   3.661  12.669  0.0647 -0.1740 -0.1207
13037W        W26451   5.154  17.367  15.198  0.2744  0.1803 -0.0875
13038W        W26452   5.472  10.100  12.366  0.1754  0.0893  0.2573
13039W        W26453   0.945  15.101  13.471 -0.2028 -0.1233  0.0803
13040W        W26454   0.002  17.252   1.288 -0.1883 -0.0078 -0.3749
13041W        W26455   5.285   3.245  14.148  0.1158 -0.0082 -0.1509
13042W        W26456   8.579   0.433   5.782 -0.3355  0.1185 -0.2092
13043W        W26457  17.256   0.138   3.515  0.0484  0.1781 -0.0191
13044W        W26458   0.645  10.043  10.779 -0.3941 -0.3248  0.0203
13045W        W26459   9.247  11.879   5.683  0.0953  0.0768 -0.0472
13046W        W26460  17.246  13.722   3.649  0.0890 -0.0115  0.1340
13047W        W26461  12.094   6.019   1.436  0.3353 -0.3662  0.0596
13048W        W26462  10.760   3.686   1.985 -0.2045  0.1377 -0.1627
13049W        W26463  11.386   7.885   2.576  0.0167 -0.0536  0.0997
13050W        W26464   9.447  13.640  10.197  0.1974  0.0925 -0.0457
13051W        W26465   4.883  14.814  16.092  0.0539  0.0813 -0.1244
13052W        W26466   4.560  17.696  13.538  0.0633  0.0735  0.0692
13053W        W26467  16.818  13.127  15.700  0.1839 -0.0365 -0.1476
13054W        W26468   2.579  13.654   2.712 -0.1667  0.2325 -0.0740
13055W        W26469   5.431  18.266   1.891  0.1741 -0.0820 -0.0248
13056W        W26470  13.878   2.266  12.855 -0.1768  0.0666 -0.1012
13057W        W26471  15.561  14.217  13.577  0.0189 -0.1908 -0.2876
13058W        W26472   0.174  10.398   2.197 -0.0849 -0.0028  0.1130
13059W        W26473  11.180  10.817   3.087 -0.1427  0.5012 -0.0463
13060W        W26474  14.626  10.467  10.700  0.0500  0.0890  0.1008
13061W        W26475   4.288   4.391   3.799  0.2150  0.1953  0.1301
13062W        W26476  15.969   1.050  11.648 -0.2123 -0.0886 -0.1986
13063W        W26477   5.469  12.335  13.564 -0.0671 -0.0892 -0.1131
13064W        W26478  18.082   6.608   3.476  0.0106 -0.1214 -0.0427
13065W        W26479   4.276  12.794   0.030  0.0750 -0.1430  0.0058
13066W        W26480  13.310  16.142   1.599  0.1260  0.0972  0.0357
13067W        W26481   9.386   2.904   4.696  0.0256 -0.1896 -0.0275
13068W        W26482   5.521  11.885   0.004  0.1707  0.2204  0.1664
13069W        W26483   2.264   9.944   5.016  0.3917  0.0156 -0.2457
13070W        W26484   4.488  16.551   2.386  0.5468  0.1164 -0.0020
13071W        W26485   5.168   8.754   5.559  0.0794  0.3426 -0.0695
13072W        W26486  16.059  16.778  14.596 -0.2207  0.0705  0.2677
13073W        W26487   7.755  16.581  11.638 -0.3371  0.0591 -0.5198
13074W        W26488   7.964  13.034   4.405 -0.0156  0.0372 -0.0335
13075W        W26489  12.834  18.239   0.757  0.3557 -0.0218  0.1295
13076W        W26490   2.452   9.541  12.457  0.0853 -0.1441 -0.1762
13077W        W26491  12.328  17.024  14.228  0.1920  0.0519 -0.0204
13078W        W26492   1.979  16.082   1.230  0.1297  0.1499  0.2372
13079W        W26493  12.437  17.452  14.761  0.0582  0.1293 -0.0353
13080W        W26494   6.121  15.877  13.742 -0.1644  0.0670  0.1066
13081W        W26495   4.895   7.265  12.349 -0.4770 -0.0427 -0.0179
13082W        W26496  12.814  15.334   3.939  0.1967  0.0445 -0.0994
13083W        W26497  13.378  11.480  11.823  0.0423  0.1172  0.2308
13084W        W26498  14.050  18.084   0.706  0.1173  0.0418  0.1375
13085W        W26499   8.397   2.541  15.538  0.2498  0.0480  0.0536
13086W        W26500   1.512  17.405  13.488  0.2672 -0.0098 -0.0325
13087W        W26501   3.790  13.135  12.027  0.0244 -0.0085  0.3059
13088W        W26502   1.703   8.634  14.227 -0.1253 -0.0707  0.0559
13089W        W26503  14.341   5.567   1.507 -0.0543  0.3893  0.2874
13090W        W26504   5.371   1.375  14.967  0.0942  0.2302 -0.2633
13091W        W26505  16.597   0.401   5.142  0.2727  0.3578 -0.0512
13092W        W26506  12.073   6.854  16.165 -0.1020  0.0234  0.0865
13093W        W26507  12.195  12.754  11.790 -0.2897  0.1082  0.2560
13094W        W26508   9.059   5.258  14.358 -0.1489 -0.2104 -0.1728
13095W        W26509  11.174  17.639   6.204 -0.1325 -0.4104 -0.0159
13096W        W26510  16.875   4.231  11.053 -0.2062 -0.1456  0.1853
13097W        W26511  17.129   0.319  15.376 -0.5094 -0.1058 -0.0730
13098W        W26512   0.806  10.718   3.890  0.0866  0.0193  0.2797
13099W        W26513   1.862   3.943   3.139  0.0021  0.1634  0.1175
13100W        W26514   4.200   2.703  11.288  0.1728 -0.0944 -0.2436
13101W        W26515   2.231   5.473  16.277 -0.1076  0.2647 -0.3064
13102W        W26516  12.752   0.823   1.900 -0.1791  0.0071  0.1168
13103W        W26517  16.452   8.724  12.608 -0.1926  0.2316  0.1515
13104W        W26518   5.466   2.869  16.417  0.2441  0.2428  0.1385
13105W        W26519   4.277   3.146   1.898 -0.2125 -0.1199 -0.3978
13106W        W26520  17.277   8.260  13.123 -0.1823  0.1184 -0.0641
13107W        W26521  12.535   4.729   0.262 -0.0089  0.2332 -0.0793
13108W        W26522   4.143  17.748  14.387 -0.2505  0.1432  0.2609
13109W        W26523   1.507   8.241   1.984  0.2491 -0.0490  0.2873
13110W        W26524  13.855   0.292   0.768  0.1297 -0.1976  0.2271
13111W        W26525  17.255  17.203   2.862 -0.3095 -0.1459  0.0033
13112W        W26526  15.731  14.244  12.337 -0.2619 -0.0173  0.1276
13113W        W26527  18.187   9.079   5.036 -0.1081  0.0698 -0.1509
13114W        W26528  12.564   1.710   5.552 -0.1643  0.0201 -0.0482
13115W        W26529  18.152  11.343  12.592 -0.0429  0.1952 -0.0156
13116W        W26530   7.120  13.882   2.333 -0.0554  0.4109  0.2130
13117W        W26531  13.427   5.000   4.086 -0.0873  0.2674 -0.2089
13118W        W26532   8.317  17.898   5.844  0.1207 -0.3015  0.0217
13119W        W26533   6.394   8.369  16.453  0.1686 -0.4066  0.1509
13120W        W26534   0.569  11.789  14.720  0.2299 -0.1997 -0.0285
13121W        W26535  13.030  17.820   3.166 -0.1255  0.0906 -0.0290
13122W        W26536  17.695   3.307  12.870 -0.3571 -0.3706  0.0640
13123W        W26537   4.093  16.866  12.387 -0.1288 -0.1639  0.2368
13124W        W26538   0.408  10.112  13.162  0.0299 -0.0903  0.1815
13125W        W26539   8.471   7.473   4.420  0.0309 -0.0081 -0.0005
13126W        W26540  17.759  14.054   2.735 -0.2336  0.0620  0.2109
13127W        W26541   1.550   8.180  13.262  0.2237  0.1197  0.0971
13128W        W26542   2.998  15.564   1.096 -0.0045  0.0585  0.0818
13129W        W26543  13.824  18.132   3.279 -0.1109  0.0981 -0.2262
13130W        W26544  16.931  17.857  14.127  0.1487  0.4096  0.2405
13131W        W26545  13.748   9.512   4.957 -0.2625 -0.2122  0.0803
13132W        W26546  11.291  13.230  15.509  0.1001  0.0461 -0.0505
13133W        W26547   7.621  10.150  11.093 -0.3043 -0.1235  0.2094
13134W        W26548  11.174  17.169  15.940 -0.1203  0.3735  0.0903
13135W        W26549   6.413   8.649  11.847  0.0020  0.1009 -0.0027
13136W        W26550  11.411   1.377  14.314  0.2861  0.0244  0.0113
13137W        W26551  11.243   4.746  11.101 -0.1200  0.2913 -0.0692
13138W        W26552   6.148  10.727   3.575 -0.1402 -0.2563 -0.0835
13139W        W26553  17.205  15.619  13.329  0.0197 -0.4127 -0.2154
13140W        W26554  12.772  12.210   4.660 -0.2599  0.2398  0.1620
13141W        W26555   3.152   5.941  16.214  0.1469 -0.2051 -0.2882
13142W        W26556   2.429   6.078  15.051  0.1095  0.4028  0.1829
13143W        W26557   0.610   1.179   4.864 -0.0222  0.0036  0.3502
13144W        W26558   8.187   7.775  11.905  0.2620 -0.2170 -0.2478
13145W        W26559  12.269   8.614   1.138 -0.0310 -0.2167 -0.0585
13146W        W26560  10.636  10.279   2.628 -0.0292  0.3317  0.3785
13147W        W26561  17.391   2.585  11.684  0.3344  0.0442 -0.0925
13148W        W26562  13.435   1.116  10.957 -0.1324  0.0877  0.1083
13149W        W26563  11.385   7.409   2.316  0.2123 -0.0441 -0.0356
13150W        W26564   0.402  16.248  14.348  0.0498 -0.0746  0.1237
13151W        W26565  18.178   7.634  12.600 -0.0921  0.0175  0.2089
13152W        W26566  10.419   0.909   2.205 -0.0417  0.1549  0.1573
13153W        W26567  12.102  15.028  11.809  0.0483  0.2828  0.1680
13154W        W26568   7.224   6.749  11.876 -0.1213  0.1369 -0.1721
13155W        W26569   5.255   1.558   5.357 -0.0605 -0.0947  0.2373
13156W        W26570   0.236   6.771  10.971 -0.3231  0.3260 -0.1120
13157W        W26571  18.123   3.046   5.808  0.1120  0.0045 -0.3140
13158W        W26572   5.444  13.708  11.865 -0.1173 -0.0160  0.1606
13159W        W26573   7.694   2.325  16.202 -0.0872 -0.2055 -0.0660
13160W        W26574   0.726   7.205   4.938 -0.0065  0.0304  0.0284
13161W        W26575  12.290   6.507  15.339  0.0208  0.1550  0.0506
13162W        W26576   9.902   4.081  15.930  0.1967  0.0754 -0.0880
13163W        W26577   2.531   1.570  12.236  0.0241  0.0022  0.0279
13164W        W26578  12.759  14.702   3.864  0.0878 -0.1236  0.2838
13165W        W26579  12.228   8.037   2.586  0.0570 -0.0003 -0.0202
13166W        W26580   1.362  16.494  11.309 -0.2373 -0.1908  0.3546
13167W        W26581  16.914  17.146   5.380 -0.2342 -0.1271 -0.3392
13168W        W26582  18.112   7.574   2.309 -0.1730 -0.3455 -0.1645
13169W        W26583   4.420   0.583   5.881  0.0425 -0.0533 -0.0230
13170W        W26584  17.043  10.310  12.010  0.0378 -0.1645 -0.2552
13171W        W26585   2.080  10.213   4.476  0.1169  0.0354  0.0916
13172W        W26586  16.139   1.470  11.297  0.0068  0.0007 -0.0749
13173W        W26587   7.028  10.428  11.686 -0.0902  0.0666  0.0546
13174W        W26588   6.936  17.508  14.795  0.0221 -0.0511 -0.1928
13175W        W26589  16.344   3.434  16.064  0.2953 -0.0543  0.0179
13176W        W26590   1.310  14.345  13.136  0.1152 -0.1477  0.4148
13177W        W26591  16.518  16.275  11.372  0.1768 -0.0389  0.2235
13178W        W26592  16.924   4.860  12.686  0.0404 -0.0891  0.2433
13179W        W26593   9.705  14.697   1.578  0.3075 -0.2625 -0.0076
13180W        W26594   0.266   2.296   4.491 -0.0395  0.1271  0.3824
13181W        W26595  18.283   8.884  13.726 -0.1053 -0.1675 -0.1223
13182W        W26596   2.909   3.831  14.744  0.2503  0.1933  0.0712
13183W        W26597  13.933   2.377  11.127  0.2842  0.0200  0.0533
13184W        W26598   4.775  11.669  13.930 -0.1592 -0.0072  0.0726
13185W        W26599  11.426  14.145   4.872  0.3379 -0.0571 -0.2244
13186W        W26600  13.475   9.273   4.525 -0.1119 -0.0483 -0.0070
13187W        W26601   6.724   9.354   4.834 -0.0911 -0.2483  0.0279
13188W        W26602  18.019  14.623   1.523  0.0062 -0.0386 -0.3359
13189W        W26603  10.704  17.459  11.591 -0.0704  0.0161 -0.1832
13190W        W26604   5.986  10.924  15.204 -0.0067 -0.0278 -0.0165
13191W        W26605   9.903   2.946   1.434 -0.0980  0.3829 -0.1493
13192W        W26606  10.929  15.322  12.701  0.5399  0.0074 -0.4693
13193W        W26607  12.972   6.219  10.826  0.1626  0.0378 -0.0036
13194W        W26608   7.868  10.564   6.191 -0.0619 -0.0141  0.2429
13195W        W26609   0.110  14.432   4.198  0.0093 -0.1692 -0.1206
13196W        W26610   5.896   2.608  10.867  0.0339 -0.0030 -0.1423
13197W        W26611   5.330   9.230  10.859  0.0608 -0.0671  0.0897
13198W        W26612   8.316   4.846   9.932 -0.0208  0.1824 -0.2460
13199W        W26613   7.903  12.089  15.770 -0.1373 -0.3426 -0.0748
13200W        W26614   7.352   8.899   2.741  0.0958  0.0960  0.2416
13201W        W26615  11.669  10.589   5.484  0.0236  0.1203 -0.0337
13202W        W26616   5.585   2.880   0.656  0.2751  0.0979 -0.2518
13203W        W26617   5.957  11.191  15.617  0.0745  0.2017  0.2450
13204W        W26618   0.469   7.152  16.009  0.3685  0.2039 -0.0022
13205W        W26619   1.654   9.268  16.520 -0.1490 -0.0892 -0.3103
13206W        W26620   9.099  17.711   2.500 -0.0134  0.5134  0.2444
13207W        W26621  18.284   0.269  11.868 -0.0563 -0.2289  0.2271
13208W        W26622  14.249   2.313  12.434 -0.1084 -0.3576  0.3481
13209W        W26623  18.001   1.575  12.433 -0.1826  0.1396 -0.1411
13210W        W26624  16.877  11.153  11.554 -0.0189 -0.2395  0.1905
13211W        W26625  13.507  15.316   3.975  0.2855 -0.2684  0.0465
13212W        W26626   4.123   9.126  12.923 -0.0348 -0.1989 -0.0880
13213W        W26627   9.791   0.881   1.667 -0.0824  0.0023  0.3852
13214W        W26628  17.653  10.687   5.308 -0.1530 -0.1009  0.0665
13215W        W26629   6.692   1.230   1.294 -0.1370  0.1439  0.1858
13216W        W26630   0.146  17.179  11.820 -0.1063  0.2073 -0.1697
13217W        W26631   2.907   3.671  15.387 -0.0958  0.0107  0.3256
13218W        W26632  16.791   5.928  10.376 -0.1016  0.0769 -0.0342
13219W        W26633  10.552  15.624  13.613  0.1325 -0.0460  0.0190
13220W        W26634   6.116  14.551  12.881 -0.0309  0.0726 -0.1532
13221W        W26635   9.342   2.015   3.104 -0.1477 -0.1728  0.0422
13222W        W26636  12.194  17.795   3.075  0.0923  0.2435 -0.1095
13223W        W26637   7.261  11.831  12.355 -0.0030 -0.1962  0.2694
13224W        W26638  17.163   8.498  15.181 -0.1002 -0.2731 -0.2206
13225W        W26639  13.487  16.316  11.267 -0.1770 -0.1483  0.1159
13226W        W26640  14.929  14.685  11.630  0.0407  0.0286  0.1517
13227W        W26641  12.403  15.634   3.966  0.1332 -0.2284 -0.2461
13228W        W26642  16.866  17.844   4.013 -0.2408  0.2353  0.1142
13229W        W26643   9.068  11.101   2.776  0.1392 -0.0261 -0.1140
13230W        W26644  10.201   6.901  12.125  0.0715  0.3473  0.0960
13231W        W26645   8.130  17.433   4.486  0.0670  0.1148 -0.0362
13232W        W26646  10.761  11.474  14.194  0.0106 -0.2840  0.0551
13233W        W26647   9.966   3.129   5.927  0.0461  0.1517 -0.0249
13234W        W26648   6.977   8.560   5.124 -0.0351  0.1789  0.2462
13235W        W26649  17.308  15.757  11.696  0.2343  0.0658 -0.0535
13236W        W26650   2.986   6.279  15.173  0.1156  0.1051 -0.3640
13237W        W26651  10.591  12.614   1.529 -0.0649 -0.0563  0.0548
13238W        W26652  15.726   2.825  12.478  0.2689  0.1994  0.0225
13239W        W26653   4.562   3.216  15.019  0.2864 -0.0103 -0.0836
13240W        W26654   9.205  13.252  13.547  0.1321 -0.0764  0.1685
13241W        W26655   5.020  10.932  11.417  0.0580 -0.0081  0.0927
13242W        W26656  14.713   7.447   5.640 -0.1221 -0.1154 -0.1849
13243W        W26657  10.217   0.159  15.129 -0.2117 -0.0394  0.1475
13244W        W26658   2.166   0.273   0.612  0.0948 -0.1356 -0.0589
13245W        W26659   6.893   3.671  13.775  0.2560 -0.5747  0.0658
13246W        W26660  14.126   9.091  14.355  0.0472 -0.2083 -0.0932
13247W        W26661  17.366  17.768   2.952  0.2914  0.3293  0.0168
13248W        W26662   1.336  16.844  12.490  0.2954  0.0323  0.2248
13249W        W26663   9.154  13.188   1.629  0.2456 -0.0887  0.0866
13250W        W26664  16.270   5.130  10.013 -0.1264  0.0217 -0.2987
13251W        W26665  16.875  12.684   1.579  0.1890  0.0966 -0.0011
13252W        W26666  11.928   4.858   1.459  0.0946 -0.0371  0.0067
13253W        W26667   5.640   2.899  12.679  0.0302 -0.2447  0.1496
13254W        W26668   4.637  17.867   1.346  0.0489  0.0024 -0.1131
13255W        W26669   3.568  12.207   0.455  0.0731  0.0264  0.0562
13256W        W26670   3.914   6.973  11.055  0.1689  0.0218  0.1455
13257W        W26671  14.358   1.507   5.137  0.1628 -0.0080 -0.1031
13258W        W26672  16.965   8.237  10.014  0.0819 -0.0027 -0.1029
13259W        W26673  17.452  14.528   1.202 -0.1638 -0.0956 -0.0580
13260W        W26674   0.029   1.008  16.323  0.0535  0.0205 -0.3215
13261W        W26675   4.265  17.946  15.361 -0.2394 -0.1343 -0.0552
13262W        W26676  12.921  18.040   2.730  0.0604  0.3000 -0.0268
13263W        W26677   9.911   4.938  10.841 -0.0299 -0.3088 -0.0703
13264W        W26678  17.741   0.256  16.248 -0.1183 -0.2537 -0.1244
13265W        W26679  15.483   8.141  15.056  0.1958  0.2314  0.0038
13266W        W26680  12.348   8.169  15.162 -0.0795  0.1192  0.0215
13267W        W26681   0.574   3.944   4.716  0.0560  0.2855 -0.1687
13268W        W26682   7.571   0.076   4.309  0.0048  0.0090  0.1571
13269W        W26683   4.126   7.569   4.764 -0.3092  0.0279  0.0061
13270W        W26684   9.230   9.990   0.755  0.1488  0.0414  0.2352
13271W        W26685  14.675   3.929  12.989 -0.1637  0.0684 -0.0462
13272W        W26686  16.542   1.909   5.059 -0.1956 -0.0440 -0.0425
13273W        W26687  15.754  18.138   3.310 -0.0862 -0.0225 -0.0439
13274W        W26688   1.897  12.495  15.559 -0.0881  0.1983  0.0293
13275W        W26689  15.559   8.748  11.007 -0.0703  0.2324 -0.2107
13276W        W26690   7.326   8.850  15.710  0.1946  0.4142  0.2514
13277W        W26691  11.618   7.512  16.029 -0.1769  0.0824  0.0114
13278W        W26692   6.588   9.404   2.469 -0.4707 -0.1625 -0.2790
13279W        W26693  12.397   3.751  15.725 -0.1912  0.0887 -0.0106
13280W        W26694   2.487   2.477   3.921 -0.0584  0.0949 -0.2252
13281W        W26695  12.002  13.249  14.506 -0.0402 -0.1943  0.4714
13282W        W26696   0.598  10.613  13.385  0.3430 -0.1454 -0.0630
13283W        W26697   8.370   0.037   3.147 -0.1763 -0.0506  0.0948
13284W        W26698   6.608   3.133  15.835 -0.0206 -0.3290  0.1650
13285W        W26699   2.203   1.446  15.406 -0.1277  0.0165  0.0252
13286W        W26700  12.591   0.459   3.979 -0.2261 -0.2765  0.2309
13287W        W26701   9.204   6.653   9.966 -0.0367  0.0262  0.1159
13288W        W26702   5.640  17.698   4.561  0.0914 -0.0201  0.2614
13289W        W26703   0.923   5.331   3.541  0.0199 -0.1542 -0.0662
13290W        W26704  10.862  14.728  15.047 -0.1527  0.3357  0.2816
13291W        W26705   2.223   5.904  13.493 -0.0597  0.0552  0.0173
13292W        W26706  10.018  14.803  11.569  0.0199 -0.0033  0.2673
13293W        W26707   2.906   9.787  14.560 -0.1703  0.3784  0.0224
13294W        W26708   3.681   4.602   5.906  0.0835  0.0044 -0.1753
13295W        W26709   9.772  14.272  13.464 -0.0842  0.0626 -0.2741
13296W        W26710   3.375  14.319  16.278 -0.0937 -0.1063  0.1004
13297W        W26711  16.719  15.058   4.983  0.1657 -0.1513 -0.2477
13298W        W26712  11.667   4.524   0.552  0.2295 -0.2155 -0.0220
13299W        W26713  14.230  10.814  14.978 -0.2225 -0.2179  0.1466
13300W        W26714   6.726   3.004  10.987 -0.0756 -0.1528  0.1480
13301W        W26715  10.269  10.241   5.771 -0.1687 -0.1730 -0.1848
13302W        W26716  17.474  13.611  15.225  0.3162 -0.2036 -0.2722
13303W        W26717   0.900   9.586   4.491 -0.2765 -0.1527 -0.0852
13304W        W26718  17.692  15.403   1.216 -0.2848  0.2295  0.1139
13305W        W26719  14.937   6.907  10.735 -0.2406 -0.0022  0.2095
13306W        W26720   5.866   1.185   3.719 -0.0686  0.0509 -0.0847
13307W        W26721  11.410   2.180   3.788 -0.0961 -0.1289 -0.1362
13308W        W26722   7.311   1.569   5.397  0.0020  0.1154  0.0063
13309W        W26723  12.259   5.344  14.799  0.3340 -0.2717  0.0451
13310W        W26724   1.437  17.197   1.646  0.0745 -0.0901  0.1106
13311W        W26725   9.430   8.186  14.425  0.2253  0.0403  0.1966
13312W        W26726  14.596  15.367  11.282  0.0042 -0.3342 -0.2546
13313W        W26727   3.756   6.550   2.984 -0.0178 -0.3591  0.0641
13314W        W26728   3.900  11.853   2.133 -0.2416  0.0988 -0.0943
13315W        W26729  18.058  14.057   4.458  0.1768  0.0682 -0.0737
13316W        W26730  10.014  13.391  12.575  0.2921 -0.0407  0.5009
13317W        W26731  10.092  11.449  15.432 -0.1226 -0.2300  0.0508
13318W        W26732   0.028   3.153   1.950  0.3211 -0.3178  0.3071
13319W        W26733  14.643  12.930  13.495 -0.1248 -0.1246  0.0159
13320W        W26734   8.096   1.077   0.771  0.1480 -0.0093 -0.3026
13321W        W26735  16.534  15.722  12.781 -0.2739  0.1256 -0.1766
13322W        W26736  13.142   5.377  15.368 -0.3370  0.2446 -0.3914
13323W        W26737  13.000   6.149   3.078  0.0585  0.1853  0.3128
13324W        W26738   8.358  11.099   0.500  0.1775 -0.4297 -0.0881
13325W        W26739  16.275   8.811   3.046  0.0793  0.0944  0.1820
13326W        W26740   7.560   2.701  12.025 -0.0927  0.2954  0.0592
13327W        W26741  12.147   2.288   1.126  0.2404  0.2505  0.1313
13328W        W26742   8.810  12.988  13.531  0.1186  0.1973 -0.0134
13329W        W26743   1.878  15.697  15.144 -0.0174  0.1819  0.0904
13330W        W26744  14.646   8.626  14.158  0.1087 -0.0427  0.1676
13331W        W26745  18.254   2.583   4.730  0.1568  0.2839 -0.1207
13332W        W26746   6.590  13.989  13.484 -0.0310  0.2694  0.1521
13333W        W26747   3.032   3.246   3.427  0.0569 -0.3094  0.0193
13334W        W26748   1.868   6.234  13.172  0.1395  0.2446  0.0203
13335W        W26749  11.945   5.362   5.347  0.1590  0.3063  0.0331
13336W        W26750   8.398   9.416  13.948  0.1232 -0.3079  0.1192
13337W        W26751  10.071  15.052   1.707  0.2191  0.2161  0.3354
13338W        W26752  12.867   2.365  10.504  0.0769  0.4686  0.2131
13339W        W26753  11.541   4.823   2.429  0.1164  0.2515 -0.4641
13340W        W26754  14.747   9.444  12.252  0.1634  0.0478  0.0159
13341W        W26755   2.393   6.099   3.634 -0.1760  0.2938 -0.0568
13342W        W26756  13.622  14.467  11.565  0.2162 -0.0935 -0.0130
13343W        W26757   9.983  14.859  15.775 -0.1223  0.0966  0.1863
13344W        W26758   9.209   7.322  11.658 -0.1776  0.1516  0.0709
13345W        W26759  12.886  16.502  11.147 -0.4191 -0.0995  0.1458
13346W        W26760  14.311   6.714  16.040  0.0877  0.0436 -0.0273
13347W        W26761   0.812  17.029   3.391  0.1310 -0.2266 -0.0506
13348W        W26762   3.432   4.224   3.214 -0.0992  0.0863  0.0779
13349W        W26763   8.529   2.071   3.053 -0.1516  0.1393  0.0675
13350W        W26764   1.949   9.310   2.728 -0.0228  0.1974 -0.1508
13351W        W26765  17.113   6.965   4.745  0.1405 -0.0978 -0.1153
13352W        W26766   9.896   4.766  13.294  0.0424  0.1811 -0.0123
13353W        W26767  10.140  16.245  15.843 -0.2616  0.0583  0.1424
13354W        W26768   9.906   3.592   6.174 -0.2419  0.2105  0.1758
13355W        W26769   9.879   0.943   3.744  0.0230  0.2656 -0.0585
13356W        W26770   4.525   4.875   6.228  0.0354  0.3638 -0.2964
13357W        W26771   4.826   1.844  11.707 -0.2702  0.0510 -0.0349
13358W        W26772  13.209  11.298  15.133 -0.2216  0.2261  0.1309
13359W        W26773  15.115  15.127  13.119  0.0520 -0.0453 -0.1333
13360W        W26774   6.532  14.655  14.414 -0.0308 -0.0596 -0.0416
13361W        W26775  14.962  10.181  13.873 -0.0503 -0.1787 -0.1177
13362W        W26776  10.441   7.211  12.499  0.1882 -0.1079  0.1903
13363W        W26777   6.250   0.472  16.118 -0.2438 -0.0961 -0.1020
13364W        W26778   9.208  15.525   0.708 -0.1837  0.1315 -0.0951
13365W        W26779   3.330   3.529   3.682 -0.0424  0.1990 -0.1658
13366W        W26780  17.817  10.527  11.039 -0.0589 -0.0219 -0.2284
13367W        W26781  13.862  16.523  12.671 -0.0124  0.2308  0.2436
13368W        W26782  14.849  13.059   3.385  0.3364 -0.0181  0.2813
13369W        W26783   9.554   0.846  16.186 -0.3710  0.0662  0.0699
13370W        W26784  16.516  14.570  11.150 -0.1691 -0.0980 -0.0994
13371W        W26785  16.326  16.592   1.740 -0.0087  0.3297  0.0016
13372W        W26786   1.904  11.501  11.082  0.1223  0.1129  0.0699
13373W        W26787  16.866   0.875   3.140  0.1219 -0.1153  0.2373
13374W        W26788   9.845  13.580  10.528 -0.3403  0.2545 -0.1641
13375W        W26789   0.303  17.326   0.923 -0.0144  0.0296  0.1657
13376W        W26790   6.293   2.744  16.082 -0.2275 -0.2088  0.0516
13377W        W26791  14.495   9.591   3.130  0.1099 -0.0737  0.3598
13378W        W26792   2.560  15.367  11.422 -0.1549  0.1419  0.4216
13379W        W26793  10.274  10.064  15.868 -0.2443  0.2852  0.0965
13380W        W26794  15.067   5.591  15.353 -0.2632  0.1743  0.1228
13381W        W26795   0.586   9.466   2.572  0.0554 -0.1534 -0.1379
13382W        W26796  10.426   6.153  15.853  0.1860 -0.1376  0.0429
13383W        W26797   5.691  18.099   0.870 -0.0628  0.0220  0.2076
13384W        W26798   5.039  15.671  16.333 -0.1308  0.3470  0.0478
13385W        W26799   6.259   9.824   2.579  0.0438  0.0594 -0.3031
13386W        W26800   9.026  10.281  14.147 -0.4517  0.2102 -0.0161
13387W        W26801   3.276   2.429   0.310  0.0443 -0.2110 -0.1904
13388W        W26802  10.778   4.234  14.677  0.1541 -0.0651 -0.1226
13389W        W26803   5.180   0.580   0.356 -0.1986 -0.0476 -0.0644
13390W        W26804   1.599  12.751  13.190  0.0920 -0.0519 -0.1002
13391W        W26805   2.623  10.258  10.818 -0.2866  0.0168 -0.3583
13392W        W26806  16.087   3.602   3.863 -0.1445  0.0523  0.3535
13393W        W26807   3.571   1.938  12.018  0.1866 -0.1695  0.0206
13394W        W26808   1.667   0.204  14.917 -0.1417 -0.0639 -0.3026
13395W        W26809   3.353  16.794  13.687 -0.1749  0.3466  0.0050
13396W        W26810   6.745  17.500   2.770  0.1044 -0.1223 -0.0211
13397W        W26811   9.387   3.370   5.002 -0.1922 -0.1638 -0.0623
13398W        W26812   9.037   8.979  10.960 -0.1221 -0.2495 -0.1171
13399W        W26813   8.005   0.739   3.667 -0.0874 -0.0400  0.1611
13400W        W26814   9.210   2.091  11.256 -0.0093 -0.0932 -0.1447
13401W        W26815  16.866   2.364  16.521 -0.0205 -0.0604 -0.0636
13402W        W26816  10.168  18.027  14.193 -0.0646  0.1473 -0.0605
13403W        W26817   6.825  13.080   5.438  0.0448  0.0305  0.0128
13404W        W26818   5.930  14.268   5.067  0.0787 -0.0892 -0.1076
13405W        W26819   6.204  13.359  16.000 -0.1411 -0.0919 -0.2268
13406W        W26820   1.709  10.025  16.458 -0.1353 -0.1806  0.0440
13407W        W26821  14.969   1.770  12.114 -0.1852 -0.3265  0.1063
13408W        W26822   1.799  13.205  13.416  0.1331  0.1655  0.1575
13409W        W26823   8.505   5.081  10.777 -0.0912 -0.1851  0.2457
13410W        W26824   4.226   9.480  15.080  0.1916  0.3238 -0.0709
13411W        W26825   8.675   6.128  15.699 -0.0567 -0.1490  0.2961
13412W        W26826  13.505  10.261  14.393 -0.2087 -0.1050  0.1287
13413W        W26827   8.041  14.488   1.533  0.0362 -0.3362  0.1492
13414W        W26828   4.593   9.104  15.858  0.0576  0.1573 -0.0417
13415W        W26829  12.081  18.118   4.189  0.2752 -0.2343 -0.0402
13416W        W26830  18.149   8.531   0.818 -0.0383  0.1869  0.1118
13417W        W26831  11.879  16.506  15.720 -0.2532  0.1743  0.1658
13418W        W26832  16.671  13.426   1.039  0.1700 -0.1803  0.1026
13419W        W26833   5.851   3.258   2.890  0.3342  0.0699  0.0094
13420W        W26834   5.107   5.154  14.457 -0.0683  0.1668 -0.0449
13421W        W26835   9.273  14.477   2.456 -0.0209 -0.1932  0.0335
13422W        W26836  13.831   0.035  11.805 -0.2937 -0.3040 -0.1565
13423W        W26837   4.108  16.505  10.887  0.1514  0.2252 -0.0460
13424W        W26838  12.366  11.091   0.280  0.0616 -0.0089  0.0748
13425W        W26839   2.946  12.643   5.835  0.1469  0.1951  0.1510
13426W        W26840   0.660   5.123  15.587  0.1220 -0.1260 -0.0542
13427W        W26841   8.087   5.547  16.069 -0.2160  0.0417 -0.2738
13428W        W26842   1.791  14.557   0.013 -0.2116 -0.1963 -0.1780
13429W        W26843   4.793   4.824  15.369 -0.1717 -0.2029 -0.2486
13430W        W26844   9.849   7.168  14.906  0.1770 -0.0644  0.0607
13431W        W26845  18.056   5.729  11.378 -0.1607 -0.0083  0.1434
13432W        W26846   0.849  14.310  14.598 -0.0128  0.0345 -0.1719
13433W        W26847   1.715  17.615   0.480  0.0932  0.2791 -0.2727
13434W        W26848  17.893   0.931  15.140 -0.1458  0.0641 -0.1483
13435W        W26849  13.731   3.913  13.509  0.2202  0.1142 -0.0556
13436W        W26850  14.500   2.986  13.094  0.1243 -0.3307  0.2201
13437W        W26851   0.671   8.329  11.143 -0.0912 -0.4189  0.1773
13438W        W26852   6.748   0.804  12.606 -0.1566  0.0325  0.0336
13439W        W26853  16.948  14.695   1.232  0.0256  0.1782 -0.1571
13440W        W26854   8.985  13.767   4.574 -0.1148  0.1429  0.1378
13441W        W26855   1.360   7.402  13.897 -0.2334 -0.3590  0.0425
13442W        W26856   3.357  14.918   0.976 -0.3663  0.0150 -0.1768
13443W        W26857   3.310   0.093   3.825 -0.1036  0.2441 -0.2764
13444W        W26858  15.025   9.853  11.641 -0.1139 -0.1712 -0.0163
13445W        W26859   7.336   5.239  11.375  0.2059 -0.2156 -0.4740
13446W        W26860  13.033  16.966  13.296 -0.2760  0.1323 -0.2528
13447W        W26861  12.525  13.174   4.627  0.1243  0.2139  0.1025
13448W        W26862   3.095   3.536  14.356 -0.0620  0.0795  0.1490
13449W        W26863   9.482  15.003   6.249  0.0628 -0.1819 -0.0401
13450W        W26864   6.431   5.509   0.181 -0.1890  0.0959 -0.1085
13451W        W26865  12.251   9.345  10.555  0.1300 -0.1255 -0.0762
13452W        W26866   8.335  16.655   4.814 -0.2398 -0.0441  0.0276
13453W        W26867   0.803  10.381   5.716  0.1556 -0.2836 -0.0451
13454W        W26868   0.517  12.217  11.139  0.1129 -0.1346 -0.1247
13455W        W26869   9.846   0.435   5.979 -0.3289  0.2097  0.2832
13456W        W26870   1.933  16.628   4.258  0.0216 -0.0368 -0.0440
13457W        W26871   4.480   4.452   2.679  0.3352 -0.1813  0.0611
13458W        W26872  12.727   6.956   3.440  0.1462  0.1291 -0.1111
13459W        W26873   0.127   6.939   5.136 -0.2253  0.2436  0.0947
13460W        W26874   4.762  16.683  15.546  0.2737 -0.1339  0.0140
13461W        W26875  10.777   7.837  14.124  0.1000  0.1018 -0.0985
13462W        W26876   2.170   3.437  16.495  0.0762 -0.1664  0.0147
13463W        W26877   6.686   3.131   0.683 -0.1712 -0.2351  0.2789
13464W        W26878  17.622  10.404  14.546  0.2021  0.2223 -0.2828
13465W        W26879  15.306   6.039   0.609 -0.0235  0.0218  0.0882
13466W        W26880  11.092   9.642  15.658 -0.0839  0.1808  0.5486
13467W        W26881  13.858  14.608  14.941 -0.0416 -0.3521 -0.3762
13468W        W26882   7.809   6.128   4.301  0.0789  0.4326 -0.0421
13469W        W26883   6.980  15.578   1.007 -0.0122 -0.0335  0.0096
13470W        W26884   3.825  12.208  14.784 -0.1332  0.0524 -0.2667
13471W        W26885   9.984  13.730  14.388 -0.1722  0.0046  0.1216
13472W        W26886   4.636   0.769   5.410 -0.0141 -0.0074 -0.3165
13473W        W26887  12.858  16.986  11.352 -0.3079  0.0003  0.3630
13474W        W26888  15.153  12.179   1.230  0.2421  0.0514  0.1582
13475W        W26889  12.447  16.974   0.931 -0.1814  0.1496 -0.1432
13476W        W26890   5.449  11.100  11.261 -0.0882  0.2401 -0.0675
13477W        W26891   0.939  10.907   5.357 -0.0063 -0.0537  0.0854
13478W        W26892  15.404  12.332   0.724 -0.0530  0.1047 -0.2519
13479W        W26893  13.441  13.402  15.617 -0.0892  0.0017 -0.0711
13480W        W26894   6.645   1.436   3.171  0.3713  0.2378 -0.2904
13481W        W26895  11.098   4.519   1.469  0.2392 -0.1297 -0.0508
13482W        W26896   0.817   8.369   4.034  0.2035  0.0108  0.0140
13483W        W26897  10.314  16.971   2.050 -0.0476  0.0560  0.3503
13484W        W26898   2.434  12.707   0.098 -0.4159  0.0118  0.0513
13485W        W26899  15.184  15.314  12.512 -0.0397  0.1664  0.1024
13486W        W26900  10.839   4.703  11.882  0.1752  0.0469 -0.4669
13487W        W26901   1.420   1.607  16.501 -0.2676  0.0650 -0.0537
13488W        W26902   5.530   8.888   2.434  0.0815  0.0840  0.1075
13489W        W26903  14.891  11.391  11.097  0.0472  0.2192  0.0732
13490W        W26904   8.435   2.474   3.428 -0.0304 -0.1603 -0.1389
13491W        W26905  11.539  16.636   0.176  0.1134  0.1423 -0.0846
13492W        W26906   6.616   0.881  16.265  0.0104 -0.0484  0.0641
13493W        W26907  10.158  14.245   4.075 -0.0615  0.2164 -0.0387
13494W        W26908   7.613  14.898  11.939  0.0932  0.1186 -0.2904
13495W        W26909  12.545   0.581  14.274  0.1180 -0.1620 -0.0998
13496W        W26910   0.070  10.612  14.032 -0.1045  0.0146  0.2166
13497W        W26911   0.187   5.896   9.557 -0.2684  0.2765  0.3064
13498W        W26912  16.839   8.040  14.921 -0.0718  0.2185 -0.1630
13499W        W26913   9.394   5.765  12.763  0.2411 -0.0021 -0.3086
13500W        W26914  12.332   6.137  10.986 -0.2119 -0.0258 -0.0537
13501W        W26915   5.428   6.707   4.624 -0.3646 -0.0253  0.1431
13502W        W26916   5.322  10.527   1.321  0.1160 -0.1320  0.0776
13503W        W26917  12.620  12.131  15.730 -0.1200 -0.0568  0.4247
13504W        W26918  13.443  17.269  13.217  0.2242  0.1704  0.0134
13505W        W26919   3.570   4.831  13.497 -0.0231 -0.0165 -0.0276
13506W        W26920  12.628   6.832   0.257  0.4539 -0.2850 -0.5718
13507W        W26921   3.792  15.881   1.764 -0.0469  0.0399  0.3439
13508W        W26922   2.977  15.762   4.617 -0.1215 -0.1267 -0.1027
13509W        W26923  16.429   4.792  12.711  0.1487 -0.0288  0.0878
13510W        W26924  11.822  16.777   6.319  0.1487 -0.0456 -0.1549
13511W        W26925   1.780   3.562   5.034 -0.0035 -0.1267 -0.1882
13512W        W26926   6.541  17.569   3.240  0.0718  0.3539  0.1278
13513W        W26927  14.196   7.608  10.822 -0.0304  0.0987  0.0432
13514W        W26928   7.304   7.280  14.946  0.1049  0.1197 -0.4279
13515W        W26929  11.534   5.836  10.796 -0.1288  0.1755 -0.0724
13516W        W26930  14.075   7.856  13.779  0.1094  0.0038 -0.4189
13517W        W26931  11.399  16.112   3.174 -0.3970 -0.2957 -0.0469
13518W        W26932   6.515  16.087   1.288 -0.1083 -0.2485  0.1896
13519W        W26933   4.887  11.410  14.366 -0.0045 -0.1709 -0.5136
13520W        W26934  12.292   5.174  11.825  0.1150  0.1628 -0.2555
13521W        W26935   1.651   4.005   0.944 -0.0071  0.0968  0.1485
13522W        W26936   4.637   4.874  15.976 -0.1662  0.0122  0.0080
13523W        W26937   0.029   2.541   4.072  0.0843  0.1981 -0.2419
13524W        W26938   0.545  16.013  11.014 -0.0445 -0.0635  0.1977
13525W        W26939   3.965   6.720  13.166  0.2552  0.0112 -0.0955
13526W        W26940  16.875  10.769  15.127  0.2829 -0.3056  0.3276
13527W        W26941  15.506  17.256   3.249  0.1481 -0.1568 -0.0748
13528W        W26942  17.434  14.618  14.349  0.0733  0.3899  0.3085
13529W        W26943   3.671  11.235  13.708 -0.0455 -0.0413 -0.0149
13530W        W26944  17.154   0.123  13.045  0.0771  0.1929 -0.2789
13531W        W26945   9.439  12.952   3.774  0.0314  0.1290  0.0073
13532W        W26946  17.212   6.058  12.758 -0.1822  0.2234  0.0361
13533W        W26947   9.706  14.457   2.766  0.1906 -0.2448 -0.2206
13534W        W26948  12.050   2.583   3.020  0.1587  0.0216 -0.3054
13535W        W26949   1.364   4.061  15.300 -0.1728 -0.0844 -0.0932
13536W        W26950   6.407  12.629  13.196 -0.0007 -0.2700  0.1432
13537W        W26951   5.633  13.656   0.320  0.0435 -0.0373 -0.0893
13538W        W26952  14.561   1.033   0.800 -0.2268  0.2488  0.0970
13539W        W26953   4.891  10.938   2.243  0.1051 -0.1555  0.3057
13540W        W26954   8.998   4.672   4.982 -0.2164 -0.1061 -0.3683
13541W        W26955   8.965   0.519   0.986  0.1788 -0.0481 -0.1061
13542W        W26956  11.544  12.396  15.484  0.2365 -0.0396 -0.0182
13543W        W26957   5.407   2.729  13.547  0.0336  0.2115  0.1395
13544W        W26958  14.058   6.535   5.129 -0.0579  0.3817 -0.0680
13545W        W26959   5.131   0.582  15.050 -0.2048 -0.0918 -0.1824
13546W        W26960   5.496   6.624   6.122 -0.2579  0.1129 -0.0574
13547W        W26961  16.138   3.184   3.542  0.0131  0.2031  0.0512
13548W        W26962   3.172  17.235   4.315  0.2594 -0.0748 -0.0481
13549W        W26963   5.209   9.822  16.440 -0.0785 -0.1595  0.0192
13550W        W26964   1.779   5.894  11.053 -0.0787 -0.1656  0.2736
13551W        W26965  18.230   3.241   9.941 -0.3008 -0.1656 -0.0538
13552W        W26966   0.767  16.122   0.080  0.0095  0.0822  0.0403
13553W        W26967  15.112  12.230   3.056  0.1064  0.0401  0.2228
13554W        W26968   3.382  11.699  14.442 -0.1123  0.2040 -0.2738
13555W        W26969   5.480   5.100  11.793 -0.0799  0.6819  0.0038
13556W        W26970  10.407   1.089   3.867 -0.0911  0.0877  0.1946
13557W        W26971  14.366   8.970   1.409  0.0683  0.1022  0.1503
13558W        W26972   5.837  13.926  12.016  0.1241 -0.0945  0.1200
13559W        W26973  10.643   8.139  10.172 -0.0850 -0.2861  0.1409
13560W        W26974  12.083   1.800  14.644 -0.1572  0.1310  0.0445
13561W        W26975   3.555  13.523   3.373  0.1994 -0.2386 -0.1071
13562W        W26976   7.533   3.589   1.062  0.2772 -0.1536  0.2159
13563W        W26977   8.052   5.983  16.379  0.2053 -0.1114 -0.1991
13564W        W26978   8.251  18.008   6.406 -0.0443 -0.0367  0.1290
13565W        W26979  16.396   6.690  15.187 -0.0485 -0.0456 -0.1716
13566W        W26980   0.273  10.374  13.625  0.0906 -0.1882 -0.1975
13567W        W26981   6.039   4.670   1.057  0.2956 -0.0859 -0.1134
13568W        W26982  15.684  14.466   1.587 -0.1688  0.1879 -0.2185
13569W        W26983  15.456  11.644  13.262  0.0626 -0.0608 -0.0352
13570W        W26984   0.220  14.065  13.944 -0.1355 -0.1239  0.0944
13571W        W26985  12.798   2.908   0.693  0.0456  0.0285  0.0244
13572W        W26986  14.891   1.220   1.214  0.0962  0.0063  0.0906
13573W        W26987   0.232   0.900   1.526 -0.3643 -0.1806  0.2666
13574W        W26988   2.995  11.285   0.088 -0.0988 -0.1685 -0.1199
13575W        W26989  10.717   6.639   2.259  0.3726 -0.4759 -0.2332
13576W        W26990   4.853   1.805   2.251 -0.0066  0.1515  0.0152
13577W        W26991  13.573   6.368  12.610  0.1549 -0.1682  0.0141
13578W        W26992   6.469  17.764  14.021  0.2717 -0.2385  0.2208
13579W        W26993  18.106   7.053  15.252 -0.1536 -0.1249 -0.0825
13580W        W26994  12.487   9.258   0.054 -0.2903  0.2208 -0.1019
13581W        W26995  15.053  12.114  13.871  0.4538 -0.4095  0.1964
13582W        W26996   3.323  12.713   0.615  0.1900 -0.3256 -0.0443
13583W        W26997   7.512   1.832  12.116  0.0033  0.3212  0.1932
13584W        W26998   0.720  14.345   1.620 -0.0560 -0.1136  0.2911
13585W        W26999  15.693  17.211  12.697 -0.1163 -0.1924 -0.0185
13586W        W27000  12.285  11.941   3.377 -0.0813 -0.2417 -0.1803
13587W        W27001   4.672  16.907  11.251 -0.0393  0.1817 -0.1095
13588W        W27002  11.538   2.974   1.306  0.4356 -0.1466 -0.0328
13589W        W27003  16.859   6.780   9.559 -0.2807 -0.0736  0.0430
13590W        W27004   1.731   8.433   2.871 -0.0483 -0.0122 -0.0876
13591W        W27005   8.552   6.052  10.923  0.0066 -0.3919 -0.0390
13592W        W27006   9.313   5.904   0.337  0.0692 -0.3117 -0.3612
13593W        W27007   3.434   2.595   6.448  0.1594  0.1811  0.1644
13594W        W27008   0.266   2.565  12.998 -0.0224  0.1771 -0.3426
13595W        W27009   3.135  16.415  13.477  0.0329 -0.2784  0.3926
13596W        W27010  11.082   6.901   1.489 -0.0477  0.0415  0.1792
13597W        W27011  12.106  14.202   2.144  0.0160 -0.0926  0.1418
13598W        W27012   8.546  13.084  11.288 -0.3924  0.1885 -0.1794
13599W        W27013   4.495   1.165  10.783 -0.1158  0.0425  0.3485
13600W        W27014  12.640   3.665  11.991 -0.2463  0.0541 -0.3212
13601W        W27015  13.473  13.527  14.137  0.0467  0.2276  0.1974
13602W        W27016   7.717  10.323  15.034 -0.1034  0.0067  0.1756
13603W        W27017   5.958   0.015   1.942 -0.1175 -0.1809 -0.2020
13604W        W27018  16.290   9.292   2.821  0.4281 -0.0310 -0.2511
13605W        W27019   2.240  12.111  14.831 -0.1348 -0.1414  0.3686
13606W        W27020   9.882   4.451   0.775 -0.0814 -0.2575  0.1979
13607W        W27021  11.173  17.665  15.665 -0.0597  0.1645  0.1960
13608W        W27022  13.706   2.990   0.674 -0.0060  0.0580  0.1503
13609W        W27023   1.478   7.512   4.105  0.1542 -0.3425 -0.1593
13610W        W27024   9.562  10.727   3.643  0.2402 -0.0689 -0.2462
13611W        W27025   7.800   3.856   1.808 -0.1064  0.0252 -0.2529
13612W        W27026  17.746  13.099   2.563  0.0664  0.2151  0.0253
13613W        W27027   1.985   8.437   1.692  0.1326  0.4269  0.0378
13614W        W27028   7.623   7.306   0.672  0.0936 -0.2481  0.0562
13615W        W27029   2.776  16.633   1.880  0.0612  0.1154 -0.0762
13616W        W27030  10.787   4.565   1.822  0.1543  0.1958  0.1553
13617W        W27031   9.677   1.324   1.938  0.2108 -0.0884 -0.2944
13618W        W27032  17.165   6.217  14.705 -0.5497  0.0798 -0.1844
13619W        W27033  12.384   0.734  11.454 -0.5951  0.0522 -0.2044
13620W        W27034  18.213  12.945   4.504 -0.1524 -0.3926 -0.1916
13621W        W27035  15.746   7.698  12.213  0.1782 -0.1486  0.2054
13622W        W27036   4.052   2.685  12.375 -0.0830 -0.0208  0.1834
13623W        W27037   1.596  11.667  14.671  0.3727  0.2761  0.2536
13624W        W27038   5.675  11.179  13.091 -0.3242  0.0262 -0.1903
13625W        W27039  16.986  12.938  13.532  0.0505 -0.1018 -0.2135
13626W        W27040  17.315  17.079   3.362 -0.1046 -0.1161  0.0035
13627W        W27041  12.934  12.057   0.851  0.1715 -0.2944 -0.1692
13628W        W27042  14.426   1.502   4.118 -0.2072  0.1686  0.2752
13629W        W27043   4.659  13.160  15.348 -0.2009 -0.1357 -0.3505
13630W        W27044  10.308   1.344   2.405 -0.2184 -0.1881 -0.1501
13631W        W27045  13.702  12.044   0.054 -0.0120  0.0211 -0.0279
13632W        W27046  15.581  18.273  10.188  0.0187 -0.1198 -0.0451
13633W        W27047  16.071  11.249  13.835  0.2922 -0.0649  0.0540
13634W        W27048   8.964   3.995  12.264 -0.2246  0.0102 -0.2008
13635W        W27049   6.368  14.673   2.905  0.2393 -0.2983  0.1361
13636W        W27050   5.509  11.260   5.109 -0.0963  0.1860 -0.0462
13637W        W27051  14.905   1.318   5.280  0.1648  0.0802 -0.2786
13638W        W27052   4.891  13.178  12.657 -0.0267  0.1548  0.0156
13639W        W27053   5.991   5.858  12.052 -0.0374 -0.0756  0.4055
13640W        W27054  13.777   2.607  10.188  0.1486  0.1374 -0.3111
13641W        W27055   4.813   3.066  12.234 -0.1606  0.0586 -0.2020
13642W        W27056   4.386  10.177   4.609  0.4280  0.0757  0.1171
13643W        W27057  11.514   9.616  11.282 -0.0342  0.2123  0.0234
13644W        W27058   5.376   7.151  11.177  0.1130 -0.0619 -0.0451
13645W        W27059  17.126  17.364   4.482  0.0714 -0.4479  0.3333
13646W        W27060   0.977  13.980   4.271 -0.3588  0.0038 -0.0061
13647W        W27061   4.655  12.339  15.125 -0.3007 -0.2372  0.1733
13648W        W27062  18.207   1.089  11.365  0.0747 -0.0695  0.0451
13649W        W27063  12.947  13.803   6.629  0.1296  0.1121  0.1765
13650W        W27064  11.588   7.010  16.087 -0.1105  0.1527  0.0761
13651W        W27065   8.528  14.497   2.559  0.2064  0.1952 -0.0169
13652W        W27066  14.556  12.858   1.629 -0.1056  0.0660 -0.2330
13653W        W27067   9.495   5.962  12.280  0.3903  0.0358 -0.0620
13654W        W27068  12.646   6.752   1.402  0.3358 -0.0471 -0.2396
13655W        W27069   9.786   0.642  13.288 -0.4578 -0.2767  0.1315
13656W        W27070   4.408   9.663   4.561 -0.0718 -0.1632  0.2523
13657W        W27071  18.213  13.951  11.091  0.2389 -0.1530  0.0684
13658W        W27072   8.464   6.738  16.047 -0.2137 -0.0120  0.0372
13659W        W27073   4.572  10.056   1.194 -0.1658 -0.0025  0.0610
13660W        W27074  14.180   3.525  14.235 -0.2449  0.2057 -0.0662
13661W        W27075   9.154  13.910  15.114  0.1068 -0.0388 -0.1270
13662W        W27076  10.008   4.016   1.787  0.0356 -0.0961  0.2087
13663W        W27077   0.818   6.653   0.649  0.0899  0.1272  0.1075
13664W        W27078   0.360   2.122   3.189  0.1383  0.0780 -0.1742
13665W        W27079   0.577  17.665  14.893  0.3597  0.1919 -0.1680
13666W        W27080  12.162  10.775  12.310 -0.2741  0.1125  0.2531
13667W        W27081   0.852   1.509   1.481  0.2455 -0.1034 -0.0172
13668W        W27082   8.809  15.610   5.301 -0.1390 -0.0462 -0.0554
13669W        W27083  13.348  10.090  12.146 -0.0385  0.0469  0.0130
13670W        W27084   9.287   6.341  13.701 -0.0759 -0.1705 -0.0866
13671W        W27085  17.598  15.111  15.920 -0.1753  0.5034  0.0636
13672W        W27086  11.513   6.433   3.267  0.1074  0.0116  0.1435
13673W        W27087   1.331   9.915   5.149  0.2260  0.0848  0.0076
13674W        W27088   4.821   0.319  11.474 -0.2967 -0.2978  0.2994
13675W        W27089   5.714   9.584   5.681  0.0165  0.0537  0.0644
13676W        W27090  17.367   3.150  11.877 -0.0064  0.0405 -0.4428
13677W        W27091   5.838   7.768   3.097 -0.1998 -0.0126 -0.0413
13678W        W27092  15.165   7.753   3.324 -0.1906 -0.0360  0.0900
13679W        W27093   0.434  13.130   3.964 -0.2037  0.1070  0.2635
13680W        W27094   8.038  17.660   2.244 -0.1482 -0.0610  0.1565
13681W        W27095   1.647  17.367  13.989  0.0271  0.0485 -0.0005
13682W        W27096  11.349   8.114   0.296  0.3635  0.1599 -0.0059
13683W        W27097  14.069  13.201   0.037  0.0724  0.0580  0.0275
13684W        W27098   6.194   6.619   1.860  0.1054 -0.1149 -0.2272
13685W        W27099  17.021   3.364  13.538  0.0582  0.2512 -0.0163
13686W        W27100   3.441   1.816   2.340 -0.1277 -0.0763  0.1858
13687W        W27101   9.784   9.828  15.792  0.0209  0.0563 -0.0109
13688W        W27102  10.432  17.285  12.312  0.1302 -0.1834 -0.0424
13689W        W27103   6.775  15.344   0.064 -0.1171 -0.0963 -0.2177
13690W        W27104   9.886   3.525  14.826 -0.2715  0.1635  0.0894
13691W        W27105  17.016  13.145   0.742  0.1359 -0.1103 -0.0473
13692W        W27106   3.705   8.343   1.979  0.0026  0.1446  0.2063
13693W        W27107   0.307   7.482  14.387 -0.1847  0.1910 -0.0718
13694W        W27108   2.001  14.687   6.093  0.1262 -0.4204 -0.0865
13695W        W27109   3.122  12.777   4.255  0.1645 -0.0696  0.0978
13696W        W27110  12.838  11.945   4.231  0.1582 -0.2856  0.1650
13697W        W27111   2.462   2.317   5.943 -0.1200 -0.1754  0.4130
13698W        W27112   8.615   2.782   3.072 -0.3609 -0.1004  0.0958
13699W        W27113   1.155  17.763  14.935 -0.2177 -0.0798  0.0359
13700W        W27114   3.730   8.330   4.182 -0.3231  0.0321 -0.2474
13701W        W27115  10.086  17.831  12.934  0.0103 -0.1371  0.0472
13702W        W27116  16.000   0.778  13.357 -0.0371 -0.0846 -0.1221
13703W        W27117   9.882   5.622   0.862  0.1772  0.3490 -0.1513
13704W        W27118   8.279  12.405   5.460  0.0643  0.1218 -0.0148
13705W        W27119   2.594   5.688   0.914 -0.2089 -0.3824 -0.1659
13706W        W27120   2.807   9.683   3.120 -0.2258 -0.2643 -0.1865
13707W        W27121  14.847   9.915  15.270  0.0027 -0.0348  0.1866
13708W        W27122   6.582   0.424   0.942  0.2485  0.0650 -0.1055
13709W        W27123   7.704   2.376   5.896 -0.0700  0.2287  0.0228
13710W        W27124  15.177   7.185   3.373 -0.0620 -0.0886  0.3405
13711W        W27125  10.080   6.123   0.966 -0.0439 -0.0194  0.3487
13712W        W27126   9.697  18.078  12.784 -0.1672  0.0335  0.4113
13713W        W27127  12.786  15.900   3.112  0.1965 -0.1049  0.0236
13714W        W27128  16.605  12.972   2.823  0.1975 -0.3203  0.0906
13715W        W27129   1.149  14.335  12.176  0.3651  0.4048  0.1537
13716W        W27130  17.325  15.313   1.606 -0.0775  0.0317 -0.0228
13717W        W27131   7.534   5.107   3.026  0.1442  0.2920  0.1129
13718W        W27132  16.392   3.235  16.551  0.2203 -0.0059  0.1291
13719W        W27133  17.659  16.237   3.660  0.1373  0.0150  0.1000
13720W        W27134  13.419  15.924  15.072 -0.1428 -0.1110  0.2100
13721W        W27135   9.006   7.334  12.622  0.0853  0.2726 -0.1231
13722W        W27136   8.468  18.205  14.093  0.1575  0.1630 -0.2149
13723W        W27137   7.692   7.730  12.682 -0.3679  0.4545 -0.0685
13724W        W27138   1.849   4.299   3.637 -0.1974  0.1633  0.0092
13725W        W27139   9.741   2.017   4.471 -0.2732  0.0845  0.2776
13726W        W27140   1.843   2.895  15.414 -0.0754  0.3145  0.0071
13727W        W27141  12.067   3.275   6.333  0.1470  0.0307 -0.0804
13728W        W27142  11.086   8.794  10.764  0.0697 -0.0400  0.0453
13729W        W27143  11.158   5.552  10.777  0.3417 -0.1269  0.0188
13730W        W27144  11.377  12.112   2.311  0.0261  0.0132 -0.1607
13731W        W27145  16.122  17.369   1.382 -0.0567 -0.0012  0.0185
13732W        W27146   4.575   6.137   1.157  0.2014  0.1738 -0.0490
13733W        W27147   1.660   3.050  11.568  0.1326 -0.0599 -0.1555
13734W        W27148   2.456   8.686  13.212 -0.0689 -0.0027 -0.3267
13735W        W27149  17.257  14.415   0.314  0.3200 -0.0321  0.0289
13736W        W27150   4.823  12.503  13.452  0.1439  0.1537 -0.3489
13737W        W27151   5.931  12.212  13.690 -0.2906  0.1780 -0.3707
13738W        W27152  13.290  12.927   2.494 -0.1563 -0.0912 -0.2330
13739W        W27153  16.873  15.245  12.783 -0.0479 -0.0613  0.1810
13740W        W27154   7.448  15.867   2.946 -0.0892 -0.0168  0.0324
13741W        W27155   6.951   6.136   2.247 -0.0648 -0.1647  0.0131
13742W        W27156   0.937  15.510  12.220 -0.2525 -0.0665 -0.1005
13743W        W27157   3.404  11.818  15.972 -0.0871 -0.0046  0.3211
13744W        W27158  13.878  14.156  12.439 -0.1600  0.0211  0.2280
13745W        W27159   3.184   3.002   4.099 -0.1220  0.0894 -0.2726
13746W        W27160   0.249  17.468   4.911  0.1071  0.1965 -0.0315
13747W        W27161  13.303  17.875   6.557 -0.0508 -0.0762 -0.0399
13748W        W27162   2.402   5.186  12.877 -0.4206 -0.0494  0.0110
13749W        W27163  12.524  10.185   4.337 -0.1790 -0.4016 -0.0385
13750W        W27164  14.201   9.844  11.445 -0.0560 -0.2481  0.0968
13751W        W27165  10.702   5.914  13.518  0.1162  0.1261  0.2221
13752W        W27166   2.682   6.669  10.265  0.0741 -0.3137  0.0057
13753W        W27167   2.494  16.377  11.480  0.1217  0.0129  0.2101
13754W        W27168  12.521   8.080  11.485  0.5773  0.1262  0.1555
13755W        W27169  15.672   9.342   0.649 -0.0789 -0.1611 -0.0541
13756W        W27170   6.561   8.765   4.800 -0.1947 -0.2657 -0.1651
13757W        W27171  16.165   4.441  15.686 -0.0903 -0.0360 -0.1148
13758W        W27172   8.288   9.294  10.859 -0.1189 -0.2257  0.0957
13759W        W27173  11.038   6.141  14.058  0.2704 -0.4256 -0.1839
13760W        W27174   3.493   6.308   0.819  0.0780 -0.1076 -0.1569
13761W        W27175   2.055   2.329  16.213 -0.0500 -0.1039  0.0039
13762W        W27176   5.994  12.408  12.842 -0.2535  0.2313 -0.0681
13763W        W27177   5.641   0.430   2.009 -0.1960 -0.1524  0.2709
13764W        W27178  13.179   8.396  12.900 -0.1255 -0.0779  0.0237
13765W        W27179   7.335  10.277   3.066 -0.1464 -0.2198 -0.2089
13766W        W27180   3.746   7.078   2.784 -0.0319  0.2820  0.0313
13767W        W27181   1.074  10.703  16.230 -0.1398  0.0875  0.1692
13768W        W27182   7.435   4.820  16.243 -0.3562 -0.0006 -0.2615
13769W        W27183   2.164  12.437  12.393  0.0646  0.1989  0.3780
13770W        W27184   9.730  12.777   4.187 -0.0903  0.1799  0.1198
13771W        W27185  11.883  14.811   0.961  0.0456 -0.1200  0.2423
13772W        W27186   0.125  11.469  12.188  0.0883  0.1365  0.2508
13773W        W27187   2.577  15.731  16.283 -0.0835  0.0017  0.2591
13774W        W27188   0.093  12.512   0.330 -0.1521  0.1465 -0.1091
13775W        W27189   8.155  17.933   1.350  0.4078  0.0311 -0.0505
13776W        W27190  15.339  14.445   1.986  0.0297 -0.0883  0.0079
13777W        W27191  10.877   0.962   5.868  0.0385  0.1740  0.1102
13778W        W27192   1.340  15.051   4.835 -0.3401  0.0012  0.0633
13779W        W27193  12.641  10.135  12.175 -0.0053  0.0289 -0.0929
13780W        W27194   6.305   4.035  15.975  0.0716  0.2670  0.0368
13781W        W27195  15.895  17.006   1.833 -0.1587  0.2488  0.0791
13782W        W27196  17.418  17.047  13.648 -0.1059 -0.0916 -0.1654
13783W        W27197  16.465  14.183   6.178 -0.1819  0.0489  0.1608
13784W        W27198  14.463  11.830   4.896 -0.1700  0.0385 -0.0846
13785W        W27199   9.423   9.939   5.906  0.3214  0.0063  0.0743
13786W        W27200   3.893  10.601   0.780  0.3206 -0.1117 -0.1002
13787W        W27201  15.175  14.822  15.351  0.0451  0.3570  0.1064
13788W        W27202   0.749  12.959   2.676 -0.3693  0.1585 -0.0931
13789W        W27203  15.787  10.307   0.686  0.0348 -0.0928  0.0941
13790W        W27204   2.487   5.029  15.707  0.0308  0.0294  0.3289
13791W        W27205   3.729  13.061   1.777 -0.1474  0.0949 -0.3491
13792W        W27206   6.266   5.352   1.508  0.0030  0.1508 -0.0121
13793W        W27207  10.068   0.788   6.205 -0.1319  0.1778  0.1597
13794W        W27208   0.912   6.647   0.133  0.2999 -0.1079  0.2435
13795W        W27209  13.958   8.342   0.809 -0.0112  0.0288  0.0300
13796W        W27210  15.290   6.855  12.261  0.0847 -0.2758 -0.1038
13797W        W27211   5.063   0.476  11.943  0.0885 -0.0705  0.3736
13798W        W27212   7.585  13.102  14.514 -0.0933  0.3051  0.2750
13799W        W27213  12.197  14.994  16.215  0.0825 -0.1502 -0.3962
13800W        W27214   6.634  12.650   2.275  0.1480  0.0999  0.2509
13801W        W27215   1.382   5.455   3.091  0.0881 -0.0965 -0.2570
13802W        W27216  17.501   8.811  11.055 -0.1191 -0.3804 -0.0184
13803W        W27217   3.412   2.831   3.689  0.0113 -0.0625 -0.1065
13804W        W27218  15.727  14.695  11.481 -0.3217 -0.0476  0.0883
13805W        W27219  12.808   0.453   0.608 -0.0952  0.1116 -0.1680
13806W        W27220  15.701   6.876  15.963 -0.1089  0.0969  0.3082
13807W        W27221   2.498  15.585  12.619  0.2740 -0.1019  0.0027
13808W        W27222   4.196   8.734  11.179 -0.0284  0.2578 -0.1336
13809W        W27223   7.668   1.593   1.561 -0.2082 -0.0714 -0.0873
13810W        W27224   3.393   9.788   0.704 -0.1582  0.0468  0.1799
13811W        W27225   9.967   5.152  10.304 -0.0232  0.1333 -0.1389
13812W        W27226   5.006  16.971   2.288  0.0465 -0.0104  0.0666
13813W        W27227   4.244   7.427   3.082 -0.1818  0.0718 -0.0106
13814W        W27228   1.108  17.019  11.711  0.1973  0.4446  0.0303
13815W        W27229  10.029   1.793   3.624 -0.0630 -0.0021 -0.1457
13816W        W27230  13.247   3.128  16.494 -0.1305 -0.1194 -0.1138
13817W        W27231   4.583  14.313   4.687  0.0906 -0.0388  0.0941
13818W        W27232   5.173  16.892   1.813  0.3404  0.1114  0.4135
13819W        W27233  16.483  13.254   5.929  0.2126  0.1996 -0.0078
13820W        W27234   0.594   7.947   3.820 -0.1789 -0.2078 -0.0646
13821W        W27235   4.218  12.337  11.529 -0.4204  0.0339  0.1528
13822W        W27236  13.662  17.773  10.642 -0.1347 -0.1660  0.0060
13823W        W27237   3.905  17.030   5.021 -0.3613 -0.2641  0.2446
13824W        W27238   1.745   8.552  11.358  0.1830 -0.0029  0.2947
13825W        W27239   7.031  10.242  14.116 -0.1671  0.2307 -0.1366
13826W        W27240  13.563   3.175   1.692  0.2508  0.1694  0.4242
13827W        W27241  11.616   2.280   0.453 -0.3793 -0.0575  0.0593
13828W        W27242   9.302  17.878  13.503 -0.4724 -0.0058 -0.1101
13829W        W27243   4.910   7.549   4.459 -0.1649 -0.0638  0.1993
13830W        W27244  10.658  15.173  15.148  0.0052 -0.0653  0.1857
13831W        W27245   0.992   8.149   3.602 -0.3613 -0.2100  0.0498
13832W        W27246  15.125  12.721  13.189  0.2230  0.1651  0.1119
13833W        W27247   5.540  16.873   3.909  0.0767  0.1287 -0.1221
13834W        W27248   2.482  11.132   5.258 -0.0904 -0.0759 -0.2419
13835W        W27249  13.132   0.641   3.007 -0.1970  0.1804  0.2909
13836W        W27250   2.112   1.745   4.823  0.0094 -0.0335 -0.3709
13837W        W27251   8.996   5.800  16.115 -0.0241  0.2070  0.1285
13838W        W27252  13.548   8.734  12.164  0.1241 -0.0895 -0.3332
13839W        W27253  15.268   9.309   4.214 -0.0945 -0.1542  0.4121
13840W        W27254  12.632   5.941   2.672 -0.1905  0.0334  0.0628
13841W        W27255  17.241  17.117   1.103  0.3273  0.2385 -0.0580
13842W        W27256  12.848  17.669  13.305 -0.0252 -0.2339 -0.0814
13843W        W27257  18.030  12.129  11.382 -0.0069  0.0436 -0.1475
13844W        W27258   2.257   3.879   2.115  0.0255  0.0985 -0.4867
13845W        W27259   0.133   0.625   0.802 -0.1570  0.2401 -0.0829
13846W        W27260   7.519  16.461  14.469 -0.0548  0.2100 -0.1417
13847W        W27261   3.121  15.071  13.848 -0.3790 -0.0807 -0.1677
13848W        W27262   9.097  15.302  14.552  0.0172  0.1914 -0.2447
13849W        W27263  16.765  17.667   0.654  0.1224  0.0586 -0.0349
13850W        W27264  11.382  15.982   5.295  0.4327  0.1985 -0.1493
13851W        W27265  14.996  16.126  12.135 -0.0874 -0.0800  0.1530
13852W        W27266   9.638  14.191   3.670 -0.2323 -0.2419 -0.2251
13853W        W27267  17.584  14.465  12.080  0.0169  0.1083  0.0757
13854W        W27268  14.080   9.898   2.065  0.1536 -0.1304  0.0952
13855W        W27269  15.271   2.580  13.264 -0.0509  0.1253 -0.0428
13856W        W27270  13.066   7.767   0.923  0.1733  0.1775  0.0515
13857W        W27271  12.761  10.026  13.091  0.2883  0.2485 -0.1458
13858W        W27272  10.848  17.024  15.555 -0.0048 -0.3664  0.3709
13859W        W27273   5.652   8.811   4.032  0.0627 -0.1477  0.0012
13860W        W27274   9.861   3.753  13.140 -0.0898  0.3245  0.0067
13861W        W27275   1.682   6.294   3.278  0.2096  0.2277 -0.2468
13862W        W27276  16.786  17.065   2.421  0.0343 -0.4469 -0.4017
13863W        W27277  10.512   5.175   2.398 -0.1968  0.0732 -0.4483
13864W        W27278   9.410   5.736   4.553  0.0471  0.0710  0.2479
13865W        W27279   4.463  16.636   3.455  0.0545 -0.2567  0.0527
13866W        W27280  13.381   1.556   2.437  0.0573  0.0323  0.0064
13867W        W27281   6.522  10.513  14.850  0.3110  0.1322 -0.1833
13868W        W27282  17.802  14.996   2.345 -0.1351  0.0960 -0.1641
13869W        W27283   7.381   1.436   0.773  0.2173  0.2744 -0.0168
13870W        W27284  11.313   4.470  13.526  0.1032 -0.3131 -0.1639
13871W        W27285   9.618  11.727   6.399 -0.1373  0.0877 -0.1031
13872W        W27286  16.894   5.221  15.648 -0.0676  0.1737  0.2962
13873W        W27287  12.961   8.819  13.798 -0.2800  0.1676  0.1409
13874W        W27288   1.237   1.922   9.756 -0.0997 -0.1889  0.0745
13875W        W27289   9.323   9.026   1.812  0.0254 -0.1720 -0.2494
13876W        W27290   2.194   8.371   2.646 -0.1898  0.2594  0.0882
13877W        W27291  14.790  15.481   1.747  0.0578  0.2632  0.0500
13878W        W27292   5.368   3.896  10.557  0.0229  0.1794 -0.1288
13879W        W27293   1.853   2.708  12.965  0.1460 -0.0905 -0.2521
13880W        W27294  14.845  16.174  10.988  0.0680 -0.0831  0.1946
13881W        W27295   2.605   1.633   0.821 -0.0936  0.2597  0.3933
13882W        W27296   1.999   5.945  12.313 -0.2451  0.1389  0.1384
13883W        W27297   5.451  14.625   3.127 -0.0582  0.0303  0.0473
13884W        W27298  13.167  10.172   0.411 -0.3629  0.1411  0.1443
13885W        W27299   4.057  15.178   3.288 -0.0636 -0.1064 -0.0345
13886W        W27300  17.840   3.210  10.354 -0.1416  0.0081  0.1571
13887W        W27301  16.577   0.507  10.499 -0.0843  0.1774 -0.0094
13888W        W27302   9.074   5.173   6.492  0.0320  0.0994 -0.0041
13889W        W27303   5.728   0.259  16.361  0.0393 -0.1219 -0.1385
13890W        W27304  14.811   9.917   4.982 -0.1066 -0.0429  0.0854
13891W        W27305  15.297   8.007   0.930 -0.1967 -0.1454  0.1196
13892W        W27306   9.144  12.662  11.863  0.2505  0.2021 -0.0004
13893W        W27307  15.716   7.263  12.646  0.2100  0.3521 -0.5295
13894W        W27308   5.648   9.143   0.170  0.0726 -0.2024  0.3356
13895W        W27309   9.712   0.765  13.760  0.1332  0.1637 -0.0132
13896W        W27310  17.547   9.446  12.766 -0.2361 -0.1583  0.0851
13897W        W27311  14.362   7.242  15.130  0.0196  0.1471  0.0380
13898W        W27312  16.439  14.286   4.089  0.1255  0.0395  0.0600
13899W        W27313  11.855  11.774  16.252 -0.1088 -0.4169  0.0548
13900W        W27314   0.000  17.053  11.173 -0.0650  0.0971 -0.1590
13901W        W27315  13.498   6.808   2.418  0.1125 -0.0743 -0.4238
13902W        W27316   3.817   9.606  13.801  0.0885  0.2181  0.0233
13903W        W27317   6.653   0.201  16.200  0.1179 -0.1344 -0.2664
13904W        W27318  11.434  17.044  16.341 -0.1983 -0.2291  0.2615
13905W        W27319  16.623   9.086   0.292  0.0206 -0.0735  0.1183
13906W        W27320  12.399  13.868   4.652  0.1589  0.1254  0.0896
13907W        W27321  15.887  15.304   3.729  0.1969  0.3178  0.0268
13908W        W27322   9.260   2.721   0.566  0.0504  0.2074 -0.3308
13909W        W27323  12.185   0.374  13.546  0.0291  0.1009 -0.2188
13910W        W27324   4.786  17.026   3.281 -0.2765 -0.1333 -0.1281
13911W        W27325  13.144   8.416   3.661 -0.3525  0.0630 -0.2467
13912W        W27326   3.870  18.244   3.962  0.2065  0.3995  0.3244
13913W        W27327   2.076  10.242  10.690 -0.1226 -0.0460 -0.1411
13914W        W27328   9.984   1.166  15.310  0.0526  0.0410  0.0337
13915W        W27329   9.241  13.411  15.386  0.0178 -0.1283 -0.1381
13916W        W27330  12.463  16.256   2.314  0.0483 -0.0332 -0.1359
13917W        W27331   5.635  16.130  13.142  0.1196  0.2708  0.0198
13918W        W27332   6.865   6.762  13.417 -0.2093 -0.1138  0.1204
13919W        W27333   0.208  18.068  16.315 -0.1317  0.2178 -0.0940
13920W        W27334  11.593  15.352  15.013  0.1935  0.0553 -0.2355
13921W        W27335   6.070  15.764  13.242 -0.2706  0.0318 -0.0281
13922W        W27336   9.183   6.944  15.453  0.2792  0.2124 -0.2044
13923W        W27337  13.308   0.807  14.641 -0.0499  0.3180 -0.0794
13924W        W27338   4.046   0.745  15.830 -0.1589  0.2064 -0.1303
13925W        W27339   1.152   1.949  13.961  0.2266 -0.2791  0.2846
13926W        W27340   0.051   8.845   3.576  0.2214 -0.1407  0.0464
13927W        W27341  14.511  15.853  11.218 -0.2617  0.3422 -0.2684
13928W        W27342   1.870  15.449  12.606 -0.0758  0.0075  0.3841
13929W        W27343   4.169   1.411  12.526 -0.0464  0.0578  0.2497
13930W        W27344   9.181  11.768  11.679  0.1617 -0.0940 -0.0315
13931W        W27345   6.782   8.112   5.874  0.0375 -0.1396  0.1252
13932W        W27346  14.644  17.555  13.791 -0.4494 -0.3016 -0.2087
13933W        W27347   6.456  11.762   6.168 -0.1565  0.0583 -0.0075
13934W        W27348  12.550   7.534   0.797 -0.3665  0.1896  0.2808
13935W        W27349  10.948  10.233   4.832 -0.2454 -0.0359 -0.0645
13936W        W27350  15.850  15.610  13.557 -0.0643  0.0156  0.0366
13937W        W27351  10.273   8.765  10.786  0.0704  0.0326 -0.0796
13938W        W27352   4.647   9.945  10.781 -0.3059  0.0952 -0.1005
13939W        W27353   8.369   4.488   2.848 -0.1375  0.3145 -0.1249
13940W        W27354   7.293   3.702   2.770 -0.2480 -0.1652  0.4445
13941W        W27355  16.019  11.805  13.692 -0.3795  0.0084 -0.0058
13942W        W27356   8.975  17.097   4.007 -0.1024  0.0834 -0.2452
13943W        W27357  10.729   5.799  14.892 -0.1456  0.1666 -0.0423
13944W        W27358   4.260   0.670   0.655  0.0864 -0.0508 -0.1301
13945W        W27359  16.056  11.267  12.235  0.1366  0.4682  0.0703
13946W        W27360  11.489  13.249  14.944 -0.1817  0.2387 -0.4816
13947W        W27361   9.788  13.195  16.015 -0.1256 -0.1958  0.2119
13948W        W27362  14.550  15.397  15.983 -0.0205 -0.2607 -0.0342
13949W        W27363  10.189   6.866  15.147  0.1739 -0.1601  0.2024
13950W        W27364  18.181   7.394   2.840 -0.2709 -0.2149  0.2077
13951W        W27365   8.079  14.580   4.562 -0.0641  0.2795 -0.1474
13952W        W27366  10.269  14.149  16.232 -0.0722 -0.1042 -0.0152
13953W        W27367  15.539  11.143   3.385  0.2512  0.2218 -0.3004
13954W        W27368  17.276  12.352   2.508  0.2590 -0.0452 -0.1291
13955W        W27369   9.936   2.938  11.490 -0.0741  0.1216  0.0184
13956W        W27370   1.541   8.016  13.771  0.0066  0.0802 -0.1686
13957W        W27371  16.939   4.334  16.323 -0.0011 -0.0821 -0.0858
13958W        W27372  17.590  12.233   5.128  0.3439 -0.3288 -0.2987
13959W        W27373   9.195   2.675   1.412 -0.1155  0.2274 -0.0191
13960W        W27374   6.674   1.783   0.643 -0.0104  0.2813  0.3001
13961W        W27375   1.233  15.010  16.177 -0.1554 -0.1035 -0.0516
13962W        W27376  14.660   3.610   3.246 -0.2757  0.1787 -0.1683
13963W        W27377   0.477  16.334  11.933  0.3341  0.3254  0.1180
13964W        W27378   6.516   4.956  15.161  0.0484 -0.1498  0.1156
13965W        W27379  11.582   9.599  15.597 -0.1472  0.0469 -0.0826
13966W        W27380  16.083  14.822  15.381  0.2200  0.0878 -0.3240
13967W        W27381   6.450  15.115  14.386 -0.1117 -0.1081 -0.1113
13968W        W27382   3.921   0.071  15.140 -0.2024 -0.1865 -0.2490
13969W        W27383  11.386   9.870   1.610 -0.0315 -0.0224  0.2447
13970W        W27384  10.047   4.512   1.850  0.2859 -0.2154 -0.2763
13971W        W27385  10.795  16.573   3.832  0.3222  0.1086  0.0141
13972W        W27386   7.586  17.708  15.669 -0.0807 -0.1401 -0.0094
13973W        W27387  13.292  15.187  16.265  0.2150 -0.0018 -0.3446
13974W        W27388  11.378   1.982   5.890  0.1042 -0.0595  0.0224
13975W        W27389   2.391  11.078   3.328 -0.0966  0.2266 -0.2438
13976W        W27390   6.216   3.866   2.991 -0.1504  0.1556 -0.0046
13977W        W27391   1.164   9.123  12.251  0.0567 -0.0914 -0.2601
13978W        W27392   5.530  16.221   5.999  0.1214 -0.0551 -0.3889
13979W        W27393   9.618   3.470  11.447 -0.0732  0.3354 -0.2548
13980W        W27394   7.960   8.655  15.158 -0.3505 -0.1134  0.0370
13981W        W27395   6.636  18.026   3.017 -0.2122 -0.0911 -0.0147
13982W        W27396  10.875   1.760   1.813  0.2283  0.0695  0.0440
13983W        W27397   1.539  15.501   0.836  0.0427 -0.3493  0.1872
13984W        W27398   2.760  15.116  11.963  0.1951 -0.2299  0.0941
13985W        W27399  10.281   8.048  15.912  0.1098 -0.1715  0.1085
13986W        W27400   2.631  13.897   0.052  0.0187  0.0594 -0.3131
13987W        W27401  17.518   6.275   3.231  0.0567  0.2572 -0.1004
13988W        W27402  14.998  12.707  11.305  0.1920  0.1181  0.0166
13989W        W27403   3.123  16.111   1.352 -0.0524  0.1031 -0.1476
13990W        W27404  14.068   3.776  11.781 -0.2160  0.2148  0.2751
13991W        W27405   1.171   7.338   2.437  0.0978  0.1230 -0.1229
13992W        W27406  14.124   1.048   0.542  0.0991  0.1289  0.1569
13993W        W27407  11.420  15.574   3.595  0.1559 -0.2752  0.1414
13994W        W27408  15.933   6.152  14.703 -0.0626 -0.1085  0.1434
13995W        W27409   2.673  18.216   5.584 -0.1338  0.0430  0.1295
13996W        W27410   8.597   4.450  10.963  0.0646 -0.0629 -0.1025
13997W        W27411   3.494   3.005   4.637  0.1624 -0.0848 -0.2101
13998W        W27412   4.533  11.969  11.972 -0.0719  0.2481  0.3179
13999W        W27413  11.254  11.275  14.230 -0.0519 -0.2397 -0.2231
14000W        W27414   2.665   5.648   2.571  0.2309  0.0900 -0.0053
14001W        W27415   9.633  10.929   4.673 -0.1706 -0.1316 -0.0835
14002W        W27416   7.927   1.343   7.144 -0.2482 -0.1691  0.0328
14003W        W27417   9.428   0.543  12.851  0.2573 -0.0699 -0.0026
14004W        W27418   5.780  11.730  10.797 -0.0662 -0.0581  0.0761
14005W        W27419   6.173   0.178   3.326  0.1500  0.2379  0.0205
14006W        W27420   2.850  14.892  13.093  0.0981  0.0954  0.2322
14007W        W27421  15.133   2.477   6.468  0.1389 -0.1711 -0.2284
14008W        W27422   7.118  15.340  16.294  0.1665 -0.0619  0.0495
14009W        W27423   6.267   2.833  14.351 -0.2649  0.2637  0.0217
14010W        W27424  17.218   9.709  12.420 -0.1310  0.0630  0.0113
14011W        W27425   5.968  13.206   2.725  0.2351  0.0920 -0.0338
14012W        W27426   3.491   6.729   3.704 -0.2303 -0.0763  0.1199
14013W        W27427   5.823   4.150  12.310 -0.4396  0.0938 -0.1138
14014W        W27428   0.455   6.328  15.336  0.1493  0.1886  0.0642
14015W        W27429   9.421   2.323   5.341  0.1280 -0.1418 -0.2886
14016W        W27430  16.402   1.950  14.167 -0.2347 -0.0834  0.3043
14017W        W27431  16.284   2.565  11.800 -0.0933  0.3775  0.1578
14018W        W27432   8.346  12.815   2.222  0.2265  0.4465  0.4344
14019W        W27433   8.292  10.746  14.381 -0.0672  0.0113 -0.2397
14020W        W27434   9.494   9.800  16.167  0.3979  0.3093  0.1035
14021W        W27435  17.396  15.690  15.943 -0.0906 -0.0689  0.2202
14022W        W27436  12.728  12.053  12.876 -0.0663  0.1546 -0.0114
14023W        W27437   6.013   9.639  12.486 -0.0239  0.0895 -0.1801
14024W        W27438   1.246  17.974  13.334 -0.0120 -0.0675  0.1580
14025W        W27439   1.974   7.062   0.368  0.1787 -0.1104 -0.0937
14026W        W27440   6.824  14.778   5.053 -0.0413 -0.1557 -0.1586
14027W        W27441  17.660   4.636  12.474 -0.1193 -0.1471  0.0779
14028W        W27442   4.882  11.638  12.096 -0.2766 -0.0762 -0.4071
14029W        W27443   0.142  15.344  12.308 -0.0250 -0.3446  0.0209
14030W        W27444  14.049   7.447  15.763  0.0867  0.1720  0.0027
14031W        W27445  11.328  13.562   1.381 -0.3222  0.0630 -0.0788
14032W        W27446   5.183  13.048  10.478  0.0076 -0.4992 -0.0895
14033W        W27447   0.178   5.000  13.014 -0.1460 -0.1055  0.0198
14034W        W27448   5.071   9.219  13.421  0.2608  0.1037  0.1576
14035W        W27449   4.705  14.279   3.140 -0.3786  0.0918 -0.0069
14036W        W27450  14.858   8.285   0.842 -0.0879  0.0844 -0.1366
14037W        W27451   8.327  17.075  15.306 -0.1328 -0.1052  0.1848
14038W        W27452  15.091  14.270  15.553  0.1372 -0.0826 -0.1203
14039W        W27453  10.447   6.526  15.398  0.1435  0.0212  0.0242
14040W        W27454   5.819   4.171  14.017  0.1402  0.0421 -0.0284
14041W        W27455  16.181  16.272   1.290  0.3294 -0.0440 -0.0226
14042W        W27456  13.917   8.253  10.541 -0.2211  0.0863 -0.1522
14043W        W27457   0.836   0.204   1.172  0.1876  0.0257  0.1906
14044W        W27458   2.416   7.429  14.652 -0.0288  0.0337 -0.1826
14045W        W27459   6.884  13.022  10.875  0.0729  0.1698  0.3090
14046W        W27460  12.156   2.766   1.240  0.1737  0.1114 -0.1855
14047W        W27461  17.575   9.664  11.009 -0.3052 -0.2254  0.1635
14048W        W27462   4.231   7.985   0.152 -0.2607  0.1756  0.1217
14049W        W27463   6.769  13.646  14.525  0.2667 -0.0643 -0.4879
14050W        W27464  18.168  11.574   6.538  0.0728 -0.0060 -0.0835
14051W        W27465  16.529   3.783  16.398  0.1171 -0.1329 -0.0532
14052W        W27466   0.979   0.488   2.731  0.0707  0.0182 -0.0482
14053W        W27467   1.463   5.817   3.426  0.2094  0.0720 -0.1153
14054W        W27468  14.500   3.224   5.679  0.0174  0.1369 -0.2939
14055W        W27469   6.458  12.107  13.729 -0.0657 -0.2213  0.1316
14056W        W27470   7.323   6.941   2.126 -0.1576  0.0964 -0.2823
14057W        W27471  12.612  15.115   4.806  0.0066 -0.2929  0.2438
14058W        W27472   4.114   7.629   5.702  0.0489  0.0878  0.2382
14059W        W27473   8.529   8.656  12.195 -0.0390 -0.2127 -0.0987
14060W        W27474  15.193   3.506   4.596  0.1534 -0.2437 -0.2697
14061W        W27475   8.380  13.720   3.341  0.1923  0.0629  0.1178
14062W        W27476   3.101  14.668   0.613 -0.2605 -0.1499  0.0152
14063W        W27477  10.957  15.344   2.570  0.1355  0.3289 -0.0438
14064W        W27478   3.250  14.323   6.517 -0.1103  0.0063 -0.0243
14065W        W27479  12.824   0.303   2.163 -0.2806 -0.0247  0.2498
14066W        W27480  12.931   3.264   2.355  0.1702 -0.1023  0.2273
14067W        W27481  12.003   7.650   3.096 -0.0953  0.1883  0.3247
14068W        W27482   4.526   2.195   2.200  0.1108  0.0934  0.1777
14069W        W27483  10.225   6.974   1.179 -0.2440  0.0991  0.1813
14070W        W27484  17.442   7.305  13.046 -0.3274  0.3172 -0.2066
14071W        W27485  14.833  11.467  12.010  0.0647  0.0804  0.1558
14072W        W27486   0.285  13.471   5.597 -0.1918  0.2629 -0.1108
14073W        W27487   9.527   2.536  11.602  0.0270 -0.2869 -0.0123
14074W        W27488  14.927  13.470  15.999 -0.2897  0.0322  0.3996
14075W        W27489  11.057  17.967   4.393  0.3214  0.0055  0.3530
14076W        W27490   5.509   5.606   3.736 -0.1125 -0.0964  0.4044
14077W        W27491  13.750   4.864   1.652 -0.2480  0.0506 -0.2609
14078W        W27492  14.298  13.781   5.734  0.0465 -0.1370 -0.0060
14079W        W27493  15.133   2.021   0.074  0.0304 -0.0142  0.0453
14080W        W27494  15.564   9.698   9.945 -0.2053  0.1711 -0.0530
14081W        W27495   2.237   7.801  11.006  0.2544 -0.1494 -0.1506
14082W        W27496   1.836  12.744   4.406 -0.2531  0.0770 -0.3658
14083W        W27497  18.071   9.216  14.917  0.1817  0.1586  0.0909
14084W        W27498  16.710   5.797   5.611  0.1329 -0.3192  0.0720
14085W        W27499  10.217   1.277   0.763  0.3543  0.3247  0.0522
14086W        W27500  12.736  15.669  14.149 -0.0497  0.0319  0.0602
14087W        W27501   8.266  17.328  11.748  0.0290 -0.1397  0.2983
14088W        W27502  14.739  17.069  10.695  0.2865 -0.1812  0.2528
14089W        W27503   0.286  14.798  16.239 -0.1996  0.1584  0.1036
14090W        W27504  13.456   5.267  13.200 -0.1711 -0.1433  0.0230
14091W        W27505   7.145   6.539   0.083  0.0981  0.0603  0.1174
14092W        W27506  15.057   2.383   4.737 -0.2959 -0.1585 -0.1931
14093W        W27507   1.140   4.280   3.578  0.0291  0.0438 -0.0236
14094W        W27508  13.749   6.216  15.440 -0.0553 -0.1323 -0.1605
14095W        W27509  13.477   9.265   3.658  0.2257 -0.0736  0.1748
14096W        W27510   4.125   2.457   4.583  0.1422 -0.1185 -0.1421
14097W        W27511   4.688  10.688   3.878 -0.2665 -0.0957  0.1112
14098W        W27512  17.570  17.111   2.279 -0.0435  0.3671 -0.0210
14099W        W27513   6.206   3.360  11.949 -0.4179  0.0303 -0.1835
14100W        W27514  15.493   8.317  12.086 -0.2130  0.1354  0.0766
14101W        W27515  12.627  18.255   5.889 -0.3341 -0.0758 -0.0616
14102W        W27516  10.308   7.450   0.840 -0.0786  0.3113 -0.0956
14103W        W27517   4.886   1.569  16.430 -0.2880  0.1182  0.0195
14104W        W27518  13.083   5.215  12.349  0.0050 -0.1704  0.2065
14105W        W27519   2.392   0.253   5.854  0.1996 -0.2583  0.3168
14106W        W27520  14.517  13.746   2.720  0.2318 -0.4382 -0.3499
14107W        W27521   8.704   3.266  14.269 -0.1559 -0.2646  0.0860
14108W        W27522   5.012   5.844  12.325 -0.1262  0.1036 -0.0985
14109W        W27523   1.575  17.208   2.104 -0.1364 -0.1023  0.0617
14110W        W27524  17.481   9.543   1.168  0.0794  0.1241  0.2745
14111W        W27525  10.908   6.805  14.499 -0.2317 -0.2379  0.1489
14112W        W27526   8.074  15.771  12.043  0.2846 -0.0396 -0.0246
14113W        W27527   4.734  11.855  15.163  0.0154 -0.1039  0.0134
14114W        W27528   5.305   9.722  13.238 -0.5137 -0.2761 -0.1928
14115W        W27529  13.128   6.968   6.032 -0.0583 -0.0122 -0.1380
14116W        W27530  10.172  17.216   3.593  0.0309 -0.1519 -0.3288
14117W        W27531  17.712   7.463   2.993 -0.0767  0.2005  0.3690
14118W        W27532   5.400   6.886   5.692  0.1861 -0.2059  0.1004
14119W        W27533   6.484  12.023  15.618  0.0058  0.2149  0.1958
14120W        W27534   3.716   1.085   2.464 -0.2301 -0.2871 -0.2835
14121W        W27535   1.677  13.992  15.993  0.2152 -0.0075 -0.0135
14122W        W27536   7.337  15.256   6.197  0.2021  0.0097  0.0284
14123W        W27537   0.205   4.423  11.646 -0.0836 -0.1237 -0.3078
14124W        W27538   3.189   1.093  15.435 -0.0272 -0.2089  0.1571
14125W        W27539   1.975  12.081   3.369  0.2563 -0.2121  0.1621
14126W        W27540   6.677  11.340  11.864 -0.0282  0.0775 -0.0360
14127W        W27541   3.730  12.912   5.411  0.0121 -0.0585 -0.3109
14128W        W27542  17.132   0.614   4.454 -0.1052 -0.2853 -0.2497
14129W        W27543  12.512  13.192  14.506  0.0192  0.3332 -0.1050
14130W        W27544   6.811   3.838   3.831  0.0249  0.1149 -0.2184
14131W        W27545  11.005   3.042   0.340 -0.0408 -0.1490  0.0285
14132W        W27546   6.971   0.286  12.879  0.2440  0.2481  0.2587
14133W        W27547  13.045  10.395   5.230 -0.0080  0.3395  0.0168
14134W        W27548  12.994  14.709  15.412  0.4458  0.1990  0.3036
14135W        W27549  15.316  11.219   1.656 -0.2375  0.2037 -0.0210
14136W        W27550   2.311   7.957   3.135 -0.3920 -0.1897 -0.0484
14137W        W27551   3.692   6.415  10.452  0.1648  0.2778 -0.1261
14138W        W27552  12.536   6.676   4.321  0.1979 -0.0573  0.2224
14139W        W27553   8.630  16.956   2.570  0.2429 -0.1243 -0.1464
14140W        W27554   9.407  15.722  15.508  0.0563  0.1344  0.1014
14141W        W27555  15.667  13.914  14.331 -0.1663 -0.0262  0.1206
14142W        W27556  10.785  17.878   4.858  0.0363  0.2134  0.0163
14143W        W27557  13.698  11.596   5.879 -0.0599  0.1853  0.2441
14144W        W27558   6.033  11.331  10.685  0.1143 -0.0014 -0.0801
14145W        W27559  12.819   3.857  12.885 -0.6552  0.2299 -0.0856
14146W        W27560   4.517   5.567   5.080 -0.1123  0.0785 -0.1045
14147W        W27561   7.993   6.139  13.613  0.0794  0.0511  0.0122
14148W        W27562  12.411   8.351  13.176 -0.2014 -0.0559 -0.0940
14149W        W27563  16.290  13.729   0.537 -0.0782  0.0471 -0.3197
14150W        W27564   8.592   0.068  10.877 -0.2103  0.0058  0.2509
14151W        W27565  15.821   2.892  10.793 -0.2065  0.1204  0.1535
14152W        W27566   4.808   1.091   2.850 -0.0373 -0.2536  0.1439
14153W        W27567   8.987   4.730  12.167  0.1225  0.3659  0.1183
14154W        W27568  15.633  15.778  11.888 -0.1696 -0.0124 -0.0443
14155W        W27569   6.073   1.129  12.958  0.0791 -0.5089  0.0589
14156W        W27570  17.842   8.541  12.429  0.1102 -0.3863 -0.2171
14157W        W27571   8.406   7.577   3.906 -0.1144 -0.2524  0.1277
14158W        W27572  17.376   2.989  14.227 -0.0015  0.5912 -0.0202
14159W        W27573   3.249   9.690  11.851  0.3869  0.1661 -0.3642
14160W        W27574  10.363   9.089   2.592  0.0752  0.1397 -0.0408
14161W        W27575   6.374   8.806  14.580 -0.2137 -0.0043 -0.1065
14162W        W27576   7.200  14.100   3.749 -0.0023  0.2214  0.0110
14163W        W27577   8.744   2.770   5.420 -0.1590  0.0171  0.0974
14164W        W27578   2.038  15.788   4.730  0.0026  0.0435 -0.0210
14165W        W27579   6.951  13.204   0.469  0.0718 -0.2450 -0.0569
14166W        W27580   3.673   2.454  15.175  0.1958  0.2323 -0.2864
14167W        W27581   5.191  10.172  14.094 -0.0714  0.0581 -0.3035
14168W        W27582   7.545  17.568  14.683  0.0325  0.1206  0.0191
14169W        W27583  10.835   9.817  12.102  0.0958  0.2003  0.0525
14170W        W27584   9.303   5.648  15.229  0.0778 -0.2951 -0.2398
14171W        W27585   4.799   6.224   6.698 -0.1027 -0.1570  0.0374
14172W        W27586  17.574   2.040   0.480 -0.1850  0.1010 -0.2005
14173W        W27587   6.613   6.556  13.831  0.3339  0.2851  0.0037
14174W        W27588   1.469  14.936   6.311 -0.4368  0.3969  0.3199
14175W        W27589   7.539  17.271   0.373 -0.0588  0.0241 -0.0076
14176W        W27590  14.243  13.554  14.812 -0.0713 -0.1887 -0.0768
14177W        W27591  16.199  16.468  13.197  0.2651 -0.1805  0.1820
14178W        W27592  16.932  12.316   1.243 -0.1461 -0.0135  0.1755
14179W        W27593   4.508   5.399  13.366  0.0792  0.4081 -0.0325
14180W        W27594   8.591   9.908   2.388  0.1810 -0.0244  0.0720
14181W        W27595  18.046  12.147   0.216  0.0410 -0.0666  0.1967
14182W        W27596  15.346   1.615   0.428 -0.0027 -0.0523  0.0364
14183W        W27597  15.780   6.754   5.207  0.0310 -0.1594 -0.1080
14184W        W27598   0.890   4.044  12.416 -0.1104 -0.1068  0.0356
14185W        W27599   1.916   1.331   3.224 -0.2004 -0.0135  0.2419
14186W        W27600  13.794   3.614   4.335  0.0625  0.1498  0.1457
14187W        W27601   7.167   2.651   4.069 -0.2655 -0.2530  0.4139
14188W        W27602   2.257  16.249  13.412 -0.1145  0.1162 -0.0230
14189W        W27603   7.999   6.091   0.855 -0.2747 -0.1397  0.2926
14190W        W27604  18.196   7.211   3.837 -0.0487  0.1082  0.2641
14191W        W27605  17.741   7.293   0.861  0.2001 -0.0473  0.0130
14192W        W27606  18.155  17.379   3.122  0.1218 -0.2947  0.3138
14193W        W27607   0.914  10.983  14.650  0.4302 -0.0426 -0.1241
14194W        W27608  14.093  15.850   6.358  0.3729  0.4163 -0.2126
14195W        W27609   0.500   9.746  12.790  0.2763 -0.2048  0.2394
14196W        W27610   9.949  17.885   3.463 -0.0534  0.1856 -0.0914
14197W        W27611  11.674   5.333  14.829  0.5260 -0.1498  0.1988
14198W        W27612  17.678   7.088  14.453 -0.0595  0.2741  0.3638
14199W        W27613   7.037  16.745   6.679  0.0187  0.0904 -0.1167
14200W        W27614  12.257  13.121  16.479 -0.1102 -0.0664  0.1042
14201W        W27615   8.105   4.707  10.864 -0.0804 -0.1359  0.0473
14202W        W27616   6.793   0.339  15.262  0.0549 -0.2391 -0.1119
14203W        W27617   4.533   3.948   5.920 -0.0207 -0.0007 -0.1014
14204W        W27618   6.791  12.787   0.131 -0.0931  0.1633  0.0831
14205W        W27619   8.061   0.595   4.908 -0.1931  0.2330 -0.1808
14206W        W27620   4.003   6.736   4.120  0.0483  0.1890  0.1536
14207W        W27621  10.526   9.030   1.365  0.0545 -0.1054  0.1673
14208W        W27622   4.682   4.991   5.680 -0.0457 -0.1064  0.0726
14209W        W27623  10.786   3.756   3.812 -0.0555 -0.2177  0.0644
14210W        W27624   1.585  10.796  12.866  0.3488  0.2731 -0.1359
14211W        W27625   9.787  12.125   1.350  0.2425 -0.1308 -0.1666
14212W        W27626   8.229   8.357  13.146  0.0556  0.2455 -0.0356
14213W        W27627   2.808   7.481  11.452 -0.0111  0.2185  0.0662
14214W        W27628   6.878   1.580  13.118  0.2396 -0.0708 -0.2600
14215W        W27629  16.633   7.829  14.398 -0.0996  0.1745 -0.0220
14216W        W27630   5.018   3.484   6.530  0.0899  0.2406  0.0078
14217W        W27631  12.504  15.448  13.234  0.2459  0.0229 -0.2880
14218W        W27632   1.412   5.040  14.851 -0.1107 -0.1494  0.0879
14219W        W27633   5.740   5.194   3.838  0.2466  0.2545  0.1132
14220W        W27634   0.525   2.452   1.240  0.3798  0.1068  0.1823
14221W        W27635   7.595  16.691  12.817  0.3081 -0.1574 -0.3103
14222W        W27636   3.802  17.375  15.829 -0.0833  0.1716  0.0139
14223W        W27637  15.852   2.761   4.571 -0.0638 -0.0234 -0.0168
14224W        W27638   9.708  16.839  14.036  0.0121 -0.1197 -0.0257
14225W        W27639   5.932  12.752  11.122 -0.0391 -0.1371  0.0081
14226W        W27640   1.300  11.627   5.623 -0.3848 -0.4134  0.2183
14227W        W27641   7.936  13.042   2.167 -0.0143 -0.1113  0.1248
14228W        W27642  15.529   3.905   3.731  0.0278 -0.1083  0.0499
14229W        W27643   4.877   3.900  12.999  0.2486 -0.2201  0.1059
14230W        W27644   8.812   6.214  11.461  0.0168 -0.2216 -0.3510
14231W        W27645   8.074   3.018  13.322  0.0857 -0.0496 -0.2079
14232W        W27646  16.231  15.711  10.334  0.1431 -0.0405  0.0489
14233W        W27647  17.380   4.176  16.528  0.0734  0.1109 -0.0997
14234W        W27648  17.999   3.427   3.302  0.0376 -0.1262  0.0809
14235W        W27649  12.709   4.651   0.752 -0.1346 -0.3572 -0.1392
14236W        W27650   4.976   7.435   1.893 -0.1145  0.3488  0.0184
14237W        W27651  11.350  15.762   0.994 -0.1228 -0.1882  0.1470
14238W        W27652  11.585   7.361   5.584 -0.4124 -0.0163 -0.2492
14239W        W27653  14.031  14.545   3.883  0.0442  0.0623 -0.0248
14240W        W27654   3.892  15.769  13.205  0.1243 -0.0371  0.0547
14241W        W27655  13.997  14.645   2.957 -0.2038 -0.1425 -0.2987
14242W        W27656  11.632  12.821  15.208  0.1790  0.0315 -0.0625
14243W        W27657  12.796   4.668  10.657  0.1781 -0.0217  0.4765
14244W        W27658   3.846   8.289   3.647 -0.0017 -0.0606 -0.1167
14245W        W27659  10.919   9.879   2.349 -0.0859  0.0797 -0.4326
14246W        W27660  14.230   5.999   3.449  0.1252 -0.1387 -0.1910
14247W        W27661  12.862  15.423  12.128  0.1986 -0.1079  0.0233
14248W        W27662   9.898   8.178   1.581  0.2239 -0.2046 -0.0918
14249W        W27663  14.481   1.792  11.236  0.0268 -0.2455 -0.2723
14250W        W27664   3.877   6.798  15.110 -0.2461  0.1915 -0.3938
14251W        W27665  14.356  13.608   3.855  0.1835  0.0148 -0.0186
14252W        W27666  10.652   9.680   0.407  0.1750  0.3056  0.0204
14253W        W27667   9.480   1.808   3.541 -0.3631  0.2832 -0.0597
14254W        W27668  15.360   4.146  15.281  0.2342  0.0667 -0.0310
14255W        W27669   7.796  17.005  10.734 -0.1759 -0.1658  0.0301
14256W        W27670  11.302  15.522   4.432 -0.0665 -0.0486  0.1353
14257W        W27671   2.133  13.369  14.286 -0.0274  0.0507 -0.1174
14258W        W27672   8.803  13.183  14.471 -0.0958  0.1816  0.0209
14259W        W27673   0.400  12.647  15.967  0.0835  0.2513  0.0754
14260W        W27674   1.022   2.715  16.006  0.2250  0.0064  0.0541
14261W        W27675  13.167   7.123  12.964  0.0767 -0.0202  0.1533
14262W        W27676  11.991   9.446  11.463 -0.0525  0.2079 -0.1486
14263W        W27677  10.441  12.119  16.095 -0.2914  0.0194  0.1203
14264W        W27678   3.293   2.258   2.486  0.1762  0.1227  0.2191
14265W        W27679   1.353  15.494   0.343 -0.0409  0.0960 -0.2617
14266W        W27680   3.187   6.410   3.989  0.2060  0.0526 -0.0400
14267W        W27681   0.683  13.945   0.966  0.1219 -0.0964 -0.2383
14268W        W27682   3.326   7.422   2.116 -0.0336 -0.2751  0.0467
14269W        W27683   3.242  17.964   3.421  0.2694  0.2369 -0.0502
14270W        W27684  12.689   7.000  13.035  0.0983 -0.5193 -0.2929
14271W        W27685   7.111  11.674   3.599  0.3976 -0.2559 -0.1551
14272W        W27686  15.399   7.229   1.180 -0.2474  0.0165 -0.1078
14273W        W27687  15.108   3.649  10.477 -0.0747 -0.2715 -0.0731
14274W        W27688  11.366  12.763   4.660  0.1943 -0.0192  0.0988
14275W        W27689  16.022   4.366  15.142  0.0129  0.0843  0.2224
14276W        W27690   5.618  10.808   2.972 -0.6228 -0.2471 -0.0885
14277W        W27691  14.133  11.444   3.624  0.3516 -0.2058  0.1253
14278W        W27692  16.064   5.065   2.982 -0.0565  0.0358 -0.0422
14279W        W27693   9.143  12.116  13.535  0.1345  0.0917 -0.1840
14280W        W27694   5.510   3.758   4.112  0.1562  0.0480  0.2628
14281W        W27695  10.175  17.681   5.676 -0.1571 -0.0474 -0.2513
14282W        W27696  16.527   8.261   4.960 -0.2459  0.2716  0.0793
14283W        W27697  12.490   9.496   3.712  0.0253 -0.0855  0.3370
14284W        W27698  13.146  10.661   2.271  0.0867  0.0822 -0.0502
14285W        W27699  16.283  13.255   0.362  0.2552  0.0856 -0.4342
14286W        W27700  15.253   5.313   2.755  0.3197  0.1062 -0.0197
14287W        W27701   5.310  15.983   5.502 -0.2529  0.0104 -0.1085
14288W        W27702   5.311  12.769   2.414  0.1971  0.1586  0.0819
14289W        W27703   5.703   7.695  16.252 -0.2952  0.0522  0.1819
14290W        W27704   5.834  15.483   3.609  0.2562  0.2121  0.2777
14291W        W27705  14.454  15.342  14.466 -0.2211 -0.1050  0.1763
14292W        W27706  12.081   2.835   4.877  0.5037  0.1625 -0.3421
14293W        W27707   2.083  12.654  16.341 -0.1289 -0.1032  0.2079
14294W        W27708  13.966  12.981   6.431 -0.4637  0.2765  0.1937
14295W        W27709   4.250  15.488  14.359  0.0233  0.1096  0.0378
14296W        W27710   1.691   8.499  13.777  0.2231 -0.3290 -0.3695
14297W        W27711   9.051   3.853   5.864 -0.1642 -0.0795 -0.0371
14298W        W27712  15.646   2.251   6.274  0.1688  0.0248 -0.2985
14299W        W27713   2.507  11.910  14.422 -0.0832 -0.3690  0.1365
14300W        W27714   7.901  14.089  10.750  0.0836  0.0709 -0.0735
14301W        W27715  17.756   3.500  15.875 -0.1878 -0.1192 -0.1067
14302W        W27716   9.962  15.830   4.523 -0.2153 -0.2899 -0.0821
14303W        W27717  16.347  13.176  11.882  0.4284  0.2205  0.1292
14304W        W27718   2.306  16.585  15.944 -0.2104 -0.0663 -0.0552
14305W        W27719  15.043  12.607  16.506 -0.2619 -0.1932  0.1336
14306W        W27720   4.605  11.430   5.232 -0.2407 -0.0953  0.1275
14307W        W27721  13.357  12.064  12.639 -0.1420  0.2191  0.0725
14308W        W27722   2.258  17.498  16.418 -0.3687 -0.3395  0.0565
14309W        W27723   9.262  10.296  13.732 -0.1225  0.0423  0.0985
14310W        W27724   3.964   8.471  13.350 -0.4167  0.3970 -0.2795
14311W        W27725  14.707  11.705  15.147 -0.1166 -0.4489  0.1496
14312W        W27726   2.132   1.202   5.514 -0.3535  0.2754  0.1037
14313W        W27727   2.912   9.748  12.643 -0.3973 -0.1639  0.1057
14314W        W27728  18.070   1.335   6.057  0.2608 -0.1064  0.2159
14315W        W27729  10.690  13.057  11.979  0.2342  0.1506  0.0778
14316W        W27730  13.437   4.517  12.744 -0.0112  0.0246  0.0565
14317W        W27731   2.664   6.167  15.893 -0.1929 -0.0072  0.0874
14318W        W27732   1.852  15.564   2.686 -0.1545 -0.0390 -0.0080
14319W        W27733   3.903   2.654  10.883  0.0667  0.0876  0.2890
14320W        W27734   5.591   9.197  11.663 -0.0080 -0.0460 -0.1769
14321W        W27735   1.588  15.651  12.223  0.0089  0.0427 -0.0268
14322W        W27736   9.904  13.296  11.559  0.1285 -0.1892  0.1681
14323W        W27737  10.396   9.956   3.674 -0.0819  0.0996 -0.0031
14324W        W27738   8.585   2.398  13.840 -0.1268 -0.2589  0.0767
14325W        W27739   7.850  11.510   1.054  0.2238  0.1219 -0.0788
14326W        W27740   4.973   6.537   0.943 -0.0472 -0.1600  0.0211
14327W        W27741   3.481  13.889   0.307  0.1230 -0.1318  0.0103
14328W        W27742  15.537   1.233  13.429 -0.8174  0.2236  0.2372
14329W        W27743   3.196  11.668  13.322 -0.2179 -0.2761 -0.0765
14330W        W27744  10.248  14.616   4.409  0.1377 -0.2337  0.1072
14331W        W27745   2.391  12.576   5.543  0.2179 -0.1704 -0.0981
14332W        W27746   2.985   4.434   4.451 -0.2216 -0.0951 -0.1249
14333W        W27747   3.709   6.310   3.924 -0.2225  0.1062  0.2294
14334W        W27748   1.956  17.595   3.955  0.0650 -0.1406  0.0215
14335W        W27749   3.985   8.923  14.671 -0.0279  0.0731  0.2079
14336W        W27750   0.852   3.403   1.223  0.2437 -0.0055 -0.0382
14337W        W27751   2.418   3.328  10.196 -0.3133  0.1471 -0.1089
14338W        W27752  13.438  12.915  15.771  0.0165 -0.0860  0.0498
14339W        W27753  12.872  18.119  12.293  0.1446 -0.2326 -0.2158
14340W        W27754   0.606  13.849  16.285  0.2044 -0.1808 -0.1471
14341W        W27755  18.104  12.244  14.694 -0.2153  0.1650 -0.0755
14342W        W27756   0.340   2.389  11.951 -0.0051 -0.1743 -0.1540
14343W        W27757   4.828   6.610  13.434 -0.1307  0.0660  0.0829
14344W        W27758  16.521   0.267   2.227  0.0537  0.0920  0.2265
14345W        W27759   4.176   2.978  11.713 -0.2105  0.3812  0.0716
14346W        W27760   0.897   5.299   3.002 -0.1604 -0.1259  0.1907
14347W        W27761   3.132  11.452  11.501 -0.1102  0.0082  0.0378
14348W        W27762   6.663   0.063   5.809 -0.0942 -0.0187 -0.1012
14349W        W27763  11.406   3.434   0.651 -0.0599  0.0562  0.1402
14350W        W27764  16.903   0.023   4.178  0.1045  0.2613  0.0407
14351W        W27765  14.281   4.099   5.165 -0.2099 -0.0422  0.2192
14352W        W27766   8.517   9.328   9.519  0.0916  0.1854  0.1316
14353W        W27767   3.587   0.510  11.197 -0.4364  0.1443  0.3087
14354W        W27768   6.102   3.141   2.441  0.1546 -0.1126  0.0786
14355W        W27769   8.286   4.953   2.580 -0.2092 -0.0981 -0.1531
14356W        W27770  13.691  13.578   4.812  0.0712  0.0434 -0.0164
14357W        W27771   1.518   1.760  15.937 -0.3247 -0.3475  0.2132
14358W        W27772   8.207  10.321   0.472 -0.2068  0.0205 -0.0010
14359W        W27773  11.635  14.362   0.247 -0.1237 -0.1065  0.0861
14360W        W27774   5.654  15.443  11.656  0.3703 -0.0784 -0.0932
14361W        W27775   9.896  15.321  10.344  0.2563 -0.0066  0.0778
14362W        W27776   5.982   4.071   1.368 -0.0057 -0.0849  0.0605
14363W        W27777  10.947   4.517   3.894  0.0838  0.0222 -0.0031
14364W        W27778  17.110   6.810  11.999  0.0584  0.0241  0.0717
14365W        W27779   8.931   1.053   2.057  0.1307 -0.0246 -0.2854
14366W        W27780   0.652   7.278  11.814  0.0971 -0.2161 -0.1177
14367W        W27781   6.456  11.868   0.291  0.2437 -0.1197  0.0675
14368W        W27782   3.583  14.927  13.623 -0.1088  0.0119 -0.0240
14369W        W27783  15.360   2.738   2.250 -0.3063 -0.0946  0.0519
14370W        W27784   9.715  12.616   5.374 -0.3113  0.1203 -0.4422
14371W        W27785   2.773  11.679   0.311  0.0305  0.1869 -0.1312
14372W        W27786   2.343  16.081  16.507 -0.0095 -0.0844 -0.0650
14373W        W27787   2.102   3.100   5.559 -0.3627 -0.0081  0.1546
14374W        W27788   0.606  12.157   4.053  0.0039  0.2577  0.3290
14375W        W27789   3.943  14.690  12.292 -0.0799  0.2172  0.3101
14376W        W27790  14.997  13.359  13.374  0.1652 -0.1706  0.2914
14377W        W27791  13.461  11.176   3.996  0.3546  0.1220 -0.0145
14378W        W27792   7.202  10.308   1.770  0.1335 -0.0146 -0.1969
14379W        W27793  13.533   5.070   3.104 -0.0238  0.0339 -0.2297
14380W        W27794  13.911  17.822  13.916  0.0557 -0.0367 -0.4139
14381W        W27795  11.738   7.387  12.586 -0.1628 -0.0111 -0.0551
14382W        W27796   2.345   5.042  10.767 -0.0926 -0.1471 -0.2903
14383W        W27797   6.144  14.845   5.079 -0.0595 -0.2621 -0.4410
14384W        W27798   3.805  15.974  15.500  0.2569  0.1189 -0.1786
14385W        W27799  11.197   2.301  10.957  0.0468 -0.1584 -0.1396
14386W        W27800   4.464   0.483  13.515 -0.1553 -0.4184 -0.1974
14387W        W27801   1.272   2.192   5.267 -0.2375  0.3115  0.0032
14388W        W27802  17.420  17.466  15.691 -0.0491  0.0813  0.1749
14389W        W27803  16.780   8.079   1.778 -0.0604  0.1128  0.0096
14390W        W27804   2.439   4.825   1.218  0.2655  0.0424 -0.3012
14391W        W27805  13.495  10.048  15.352 -0.0402 -0.0867 -0.0520
14392W        W27806  15.868  10.225   4.889 -0.0360  0.0800  0.3320
14393W        W27807   3.079  12.557  14.570 -0.2773 -0.4315 -0.1265
14394W        W27808   4.964   1.512   3.762  0.1428 -0.0821 -0.1738
14395W        W27809   3.169   2.814  13.506 -0.0465  0.0903  0.0786
14396W        W27810   7.050   0.095   4.340 -0.3682 -0.1641 -0.0796
14397W        W27811  15.805  18.059   1.885  0.0250 -0.1487 -0.3194
14398W        W27812   9.423  11.729  14.623  0.4210  0.5066  0.0779
14399W        W27813  13.569   3.707   1.912  0.3734 -0.1940 -0.1374
14400W        W27814  10.831   4.705  10.610 -0.0035 -0.0008 -0.0734
14401W        W27815   8.395  13.247   1.166  0.3667 -0.1593  0.1379
14402W        W27816  16.187  17.276   0.390 -0.0653  0.2149  0.0105
14403W        W27817   9.334  15.167   4.728 -0.1810  0.0374  0.0123
14404W        W27818  10.490  15.311   3.824  0.2153  0.0136  0.1887
14405W        W27819  11.705  16.758   1.636  0.0978  0.2362  0.0775
14406W        W27820  17.215   6.087  12.200  0.1194 -0.0051  0.0456
14407W        W27821   7.693   9.988   2.189 -0.2728  0.1668 -0.3410
14408W        W27822   9.959   6.794  14.554 -0.2623  0.1313 -0.0232
14409W        W27823  14.757   6.058  12.082  0.0807 -0.0315  0.1616
14410W        W27824  17.884  11.647   0.260 -0.1413  0.4071  0.2218
14411W        W27825   5.548   4.645   5.786 -0.3159 -0.0903  0.0380
14412W        W27826   0.708   9.894  11.300 -0.1334 -0.2670 -0.1004
14413W        W27827   4.445  16.174   1.069  0.1993 -0.2234 -0.0155
14414W        W27828   5.951   4.133  15.381  0.1002 -0.1990 -0.2415
14415W        W27829  15.489  10.542  15.916 -0.4269  0.3435 -0.2434
14416W        W27830   6.469  10.668   4.064  0.2687 -0.2141 -0.0059
14417W        W27831   0.787  13.985   6.688  0.1882  0.1771 -0.2280
14418W        W27832  16.010  15.938   0.982  0.1867  0.3441 -0.0218
14419W        W27833   1.609  12.642   3.269  0.3515  0.0868  0.1411
14420W        W27834  16.686   0.910  16.104  0.0906  0.0087  0.4719
14421W        W27835   5.437  13.336   4.768  0.3007 -0.0124  0.0024
14422W        W27836  14.754   3.819   0.823  0.2164 -0.3645  0.0116
14423W        W27837  17.309   8.497  12.242  0.0600  0.1617  0.2738
14424W        W27838   0.414   1.460  16.530  0.1631 -0.1632 -0.0699
14425W        W27839  11.501   0.543  13.954 -0.0390  0.1037 -0.0169
14426W        W27840  12.712  13.942  15.256 -0.0874  0.3153  0.0346
14427W        W27841  16.534   9.740   2.032  0.0165 -0.0909 -0.0507
14428W        W27842  11.635  11.483  14.472 -0.0098 -0.1914  0.0316
14429W        W27843  11.892   0.493   4.826  0.2349  0.0073 -0.2827
14430W        W27844   3.371  16.467  11.478 -0.1237  0.1353 -0.4467
14431W        W27845  10.232   3.371  13.606 -0.1631 -0.0822  0.1078
14432W        W27846  16.698   9.992   0.548 -0.1802  0.1634 -0.1219
14433W        W27847  14.536  14.853  11.325 -0.0215 -0.0238 -0.0736
14434W        W27848  11.798   7.883  13.796 -0.1775 -0.0728 -0.2396
14435W        W27849   1.581   3.503   6.237  0.0340  0.1378 -0.2226
14436W        W27850  15.250   8.361   3.213 -0.0774 -0.1056 -0.0793
14437W        W27851  13.444   9.751   0.629  0.1460 -0.1647 -0.2470
14438W        W27852   6.467  17.760   6.288 -0.2354  0.0954  0.0702
14439W        W27853   2.547   0.849  10.638  0.0228  0.2132 -0.2063
14440W        W27854  14.870   5.343  10.444  0.1036 -0.2119  0.2622
14441W        W27855   8.858   1.242   4.046 -0.2312  0.1765  0.0373
14442W        W27856  16.202   0.459   4.335 -0.0271 -0.0519  0.0605
14443W        W27857  16.440   4.854   0.348 -0.1450 -0.3489 -0.0254
14444W        W27858   1.515   4.039   4.039 -0.0514  0.0090  0.0142
14445W        W27859  12.162  14.420   6.086 -0.0920  0.1573  0.1575
14446W        W27860   2.000   9.161  15.298  0.1584 -0.2896 -0.0602
14447W        W27861   7.860  17.040   4.031 -0.1781 -0.2588  0.1414
14448W        W27862   6.032   6.325   3.828  0.0040 -0.2628 -0.1151
14449W        W27863   8.357   8.718   1.071  0.0513 -0.1156 -0.0814
14450W        W27864   4.119   3.349  15.239  0.2065 -0.0630 -0.0467
14451W        W27865   3.365  11.320  14.836  0.4518 -0.0996 -0.1682
14452W        W27866   9.386  16.169   1.717 -0.0680  0.0112  0.0898
14453W        W27867  13.496  12.214   2.344  0.0945 -0.1051 -0.1458
14454W        W27868   4.913  18.261  12.735  0.0704 -0.0010 -0.3821
14455W        W27869   0.189  15.189  11.345  0.0457  0.0844  0.1074
14456W        W27870   0.943  16.534  15.660 -0.1284  0.0008  0.0062
14457W        W27871  15.353   3.131  10.961 -0.1201 -0.1187  0.0922
14458W        W27872   2.085  10.970   0.077  0.0092  0.2928  0.1218
14459W        W27873   8.485   8.821   0.536  0.2170 -0.0159  0.0824
14460W        W27874  14.284  18.139   2.046 -0.0122 -0.2071 -0.1981
14461W        W27875  18.130   7.331   5.222  0.0659  0.0341 -0.3570
14462W        W27876   5.076  16.050   1.811 -0.1579  0.2937  0.4911
14463W        W27877   7.147  14.568   3.589 -0.2587  0.0632  0.3303
14464W        W27878  13.842   4.724   3.714 -0.0950 -0.2034 -0.0525
14465W        W27879   4.407  16.949  15.327  0.2622 -0.0949 -0.0723
14466W        W27880   9.057  13.999   3.932 -0.0831  0.0531  0.0284
14467W        W27881   3.246   9.424   6.014 -0.0346 -0.0398 -0.1623
14468W        W27882   6.201   4.561  15.259 -0.1734 -0.1479 -0.3378
14469W        W27883   1.929  11.451  11.617 -0.1196 -0.0512  0.2334
14470W        W27884  14.885   0.009  12.508  0.1883  0.0171  0.0531
14471W        W27885  10.762   5.569  12.073  0.0150 -0.1352  0.1482
14472W        W27886   0.112  15.174  13.791  0.1523 -0.0610  0.0063
14473W        W27887  13.755   9.264  10.647 -0.0863 -0.1289 -0.2831
14474W        W27888  14.648  11.429   2.322  0.1851  0.2469  0.0531
14475W        W27889   6.861   6.853  15.794  0.2972  0.1000  0.1221
14476W        W27890  18.017   1.505  11.021 -0.0245  0.4679  0.2234
14477W        W27891   6.863  13.208   1.424  0.1546  0.0077  0.0307
14478W        W27892   2.553   3.750   4.799 -0.0359 -0.2169  0.1126
14479W        W27893   9.777   0.387   1.394  0.2457 -0.0358 -0.0429
14480W        W27894   2.447   6.347  14.145  0.1359 -0.1086  0.0300
14481W        W27895   0.100  11.295   5.369 -0.1274 -0.0113 -0.0793
14482W        W27896   6.235   9.041  10.952  0.2033  0.1369  0.0904
14483W        W27897   4.574   5.683  16.458 -0.2552 -0.1425 -0.0043
14484W        W27898   4.967   3.041   1.205  0.1757  0.0283  0.0458
14485W        W27899  15.999   4.533   3.711 -0.0552  0.2256 -0.1418
14486W        W27900  16.661  13.469   2.032  0.1702  0.0523  0.1600
14487W        W27901   2.072  11.024  13.506  0.1541 -0.1170  0.0395
14488W        W27902   0.317  10.499   0.490 -0.1107  0.1335  0.0210
14489W        W27903   2.642  16.969  12.960 -0.0013  0.1255 -0.1607
14490W        W27904  16.157  13.179  14.056 -0.0479 -0.0980  0.0126
14491W        W27905   1.588   9.501  15.208 -0.0152  0.0714  0.2004
14492W        W27906   0.796   8.463  13.299  0.0254  0.0783  0.0573
14493W        W27907  11.768   4.281   4.204 -0.0370 -0.2669 -0.0050
14494W        W27908  15.515   4.094  11.016 -0.3045  0.0579  0.0566
14495W        W27909   9.160   4.261   5.249 -0.2253 -0.1671 -0.1807
14496W        W27910   1.439  11.599   1.589  0.0633  0.0547  0.1419
14497W        W27911   3.351   0.425   2.060  0.3398 -0.0724  0.4637
14498W        W27912   1.250   1.325  16.000 -0.2817 -0.2646 -0.0217
14499W        W27913   7.219  11.618  13.586 -0.0529  0.2547 -0.1980
14500W        W27914   9.206  10.318   2.397  0.0536  0.0491 -0.4435
14501W        W27915   0.127   5.791   3.614 -0.1556 -0.2854  0.0910
14502W        W27916  12.940   7.663   2.121 -0.0365 -0.1479 -0.0927
14503W        W27917  16.040   7.769  14.365  0.0305  0.0542  0.0119
14504W        W27918   6.676  10.378   0.237  0.3181  0.2367  0.0699
14505W        W27919  10.408  14.954  15.505  0.1430 -0.0219 -0.0961
14506W        W27920   7.170  11.197  11.915 -0.1568 -0.0491  0.1569
14507W        W27921   3.177  15.376  10.265 -0.1128 -0.2313  0.1164
14508W        W27922   0.125  14.599  15.824  0.0102  0.1318 -0.0598
14509W        W27923  12.219   0.426  15.224 -0.2171 -0.0141 -0.1521
14510W        W27924  12.455   2.934   1.561 -0.0175 -0.2990  0.1887
14511W        W27925   1.066  16.053  15.814 -0.2157  0.1252  0.1406
14512W        W27926   9.505  17.710  10.259 -0.1344 -0.4145  0.1932
14513W        W27927  10.032   7.583   2.683  0.1280  0.0190  0.2493
14514W        W27928   0.680   2.404  14.034  0.0824 -0.3161 -0.1352
14515W        W27929  10.204  11.623   4.546 -0.0013  0.3504  0.4046
14516W        W27930   4.418   0.333   1.072 -0.1769  0.0694 -0.2791
14517W        W27931   5.271   0.949  10.436 -0.2205  0.1842 -0.1822
14518W        W27932   3.585  16.419   0.184  0.1558  0.2609  0.3006
14519W        W27933   3.033   4.705   2.864 -0.0353  0.2664  0.3337
14520W        W27934   2.131   4.892  10.315  0.2067  0.1550 -0.0548
14521W        W27935  13.929  12.963  15.812 -0.1707 -0.0213 -0.1403
14522W        W27936  15.585   1.057  11.945 -0.0258  0.1827  0.1614
14523W        W27937  15.486   0.337   3.251  0.1466  0.1343 -0.1731
14524W        W27938   8.863   8.505   4.837 -0.1679 -0.1108  0.1465
14525W        W27939   2.343   4.506  16.504 -0.1017 -0.1491 -0.0805
14526W        W27940   5.408   8.714   2.910 -0.4623 -0.0141 -0.1009
14527W        W27941   6.478   9.478  12.515  0.0425 -0.1410 -0.0389
14528W        W27942   9.110   0.444   5.036  0.3717 -0.2106 -0.2623
14529W        W27943  17.565   9.750  10.488  0.0743 -0.1114 -0.1326
14530W        W27944  14.109   1.519  13.898 -0.0128  0.2622 -0.0713
14531W        W27945  17.985   7.860   0.228 -0.1511  0.0264 -0.1349
14532W        W27946  10.821   9.682  13.848 -0.0445  0.1791 -0.1755
14533W        W27947  16.543  16.070  13.139  0.0036  0.1506 -0.2029
14534W        W27948   3.884  17.972   5.146  0.0627 -0.0238 -0.2199
14535W        W27949   8.727  10.291  13.178  0.0871  0.1839  0.0787
14536W        W27950  14.974   3.543  14.015 -0.0665  0.2310 -0.0300
14537W        W27951  13.348  18.193   2.495 -0.2160 -0.1847 -0.1232
14538W        W27952  17.237  13.954  13.355  0.0249  0.0726  0.0594
14539W        W27953  15.275   2.157   5.267  0.3330  0.0957 -0.2139
14540W        W27954  11.933   2.082  13.584  0.0218 -0.1666  0.1208
14541W        W27955  17.599  15.561  14.585 -0.1283  0.4085 -0.0776
14542W        W27956  16.301   4.759  13.647  0.2451  0.0075  0.3357
14543W        W27957   1.493   5.478  10.641  0.0234  0.2104  0.0270
14544W        W27958   7.219  13.156  10.478 -0.0426 -0.1919 -0.2938
14545W        W27959   8.249   8.265  14.927 -0.2365 -0.1293  0.0944
14546W        W27960  14.758  10.705   2.152 -0.2998  0.1732 -0.1961
14547W        W27961   6.305  16.425   5.781 -0.2195 -0.1754  0.0375
14548W        W27962  13.032   8.883   3.628  0.1134 -0.1241 -0.1470
14549W        W27963   4.970   5.721   0.540 -0.0454  0.0740  0.1290
14550W        W27964   9.928  14.704  12.577  0.0388 -0.0076  0.0831
14551W        W27965  10.587   3.590  11.009 -0.1870 -0.1326  0.1766
14552W        W27966   2.071  14.938   4.059  0.1837  0.0702 -0.3807
14553W        W27967  12.798   7.805  11.144 -0.0638 -0.2373 -0.0019
14554W        W27968  14.702  13.575   2.051 -0.1249  0.0776  0.0875
14555W        W27969   1.093   6.086   1.711 -0.1372  0.0146  0.2368
14556W        W27970   7.656  11.047   5.156 -0.1237 -0.0120  0.1080
14557W        W27971   8.700  17.423   2.720 -0.0177 -0.1377  0.1429
14558W        W27972   0.803  17.980   3.500  0.3508  0.0660 -0.1486
14559W        W27973  10.830  17.094   2.036  0.1502 -0.0624 -0.0004
14560W        W27974  11.875  17.886  16.152 -0.3828  0.1546  0.0616
14561W        W27975   1.185  13.887   2.920  0.3082 -0.0437  0.1419
14562W        W27976  16.038  12.769   1.718  0.0467 -0.2187  0.1942
14563W        W27977  13.886  14.595   1.741  0.0806  0.2059 -0.2862
14564W        W27978   0.954   1.626  10.954  0.0997  0.0253 -0.0895
14565W        W27979   7.500  12.051  15.468  0.3463 -0.3273  0.1047
14566W        W27980   3.608   3.290  11.307  0.0618  0.0678  0.0313
14567W        W27981  10.056   6.036   0.059 -0.2725 -0.1662  0.1627
14568W        W27982   1.201   5.356  12.078 -0.0383  0.0519 -0.0860
14569W        W27983  11.108  16.774  13.280  0.0591  0.0882  0.0248
14570W        W27984   7.406   5.889   2.958 -0.1955 -0.1131  0.0827
14571W        W27985   0.941   7.599   1.530  0.1188 -0.1022 -0.1881
14572W        W27986  11.470   7.559  13.170 -0.0317  0.0860 -0.3137
14573W        W27987   0.659  17.990   0.239  0.1770 -0.1240 -0.0049
14574W        W27988  15.952  18.273  11.288  0.1538 -0.2827  0.1175
14575W        W27989   6.585   8.977   1.967  0.2413  0.3039  0.0081
14576W        W27990   5.274   3.448  15.326  0.2288  0.0482  0.1223
14577W        W27991  14.720   7.347   3.591  0.1972  0.0002  0.3114
14578W        W27992   7.873   7.121   2.472  0.1869  0.1439 -0.2162
14579W        W27993   5.241  15.942   2.775 -0.1709  0.0480 -0.0061
14580W        W27994  12.232  16.026   1.900  0.1661 -0.2326  0.0691
14581W        W27995  14.984  14.978  14.298  0.0349  0.4790 -0.0308
14582W        W27996   6.649  16.530  12.410 -0.2274 -0.0213 -0.0613
14583W        W27997   7.653   0.314  12.802  0.0285 -0.0553  0.0743
14584W        W27998  16.206  10.194  12.246  0.0419  0.0483 -0.1786
14585W        W27999  17.618  11.956  15.408  0.0961  0.0898  0.0845
14586W        W28000   0.190  14.502  12.492 -0.1123 -0.0624 -0.1632
14587W        W28001   7.928  14.995   0.040  0.0406  0.0107  0.0946
14588W        W28002   2.715  12.731  14.888  0.0128 -0.2110  0.0010
14589W        W28003  13.362  11.790   4.175 -0.1849 -0.0088 -0.2675
14590W        W28004  13.863  15.863   5.783 -0.1170  0.0605 -0.3858
14591W        W28005   0.505   1.506  15.001  0.3005  0.1819 -0.0230
14592W        W28006   7.559   3.690   2.305 -0.0198  0.2855 -0.1176
14593W        W28007   4.109  15.389   5.379 -0.1121  0.4171 -0.1161
14594W        W28008   1.364   5.568  12.971 -0.0723  0.1193 -0.2424
14595W        W28009   2.578   0.375  13.832 -0.1168 -0.0292 -0.0734
14596W        W28010   1.439  14.462   0.474  0.1493  0.1473 -0.0138
14597W        W28011   4.601   1.116  14.754 -0.1887  0.0106  0.1255
14598W        W28012  11.297   3.163  12.295 -0.1118 -0.2065  0.0181
14599W        W28013   2.703  11.642  13.430 -0.1209 -0.0858 -0.1475
14600W        W28014   5.763  12.194   1.802 -0.2523  0.2036  0.0374
14601W        W28015   5.492   6.473   3.392  0.0196  0.0887 -0.2533
14602W        W28016  17.797  17.160  12.551  0.3296 -0.0097  0.0043
14603W        W28017   8.344   7.326  12.848  0.1308  0.0496  0.0868
14604W        W28018  13.385  10.378  11.192 -0.1282  0.0729  0.1174
14605W        W28019  13.419  14.603   4.651  0.0770  0.1661 -0.2293
14606W        W28020  16.922   3.260  16.496 -0.0936 -0.0974 -0.0600
14607W        W28021   8.430   9.342  13.457  0.0668  0.0252  0.1759
14608W        W28022  14.833  13.310   1.680 -0.1216  0.0929 -0.0932
14609W        W28023   3.998  16.992  16.118  0.0028 -0.2266 -0.1723
14610W        W28024   9.725   6.868   3.842  0.0276 -0.1685 -0.0310
14611W        W28025   6.068   9.379  15.715  0.1856 -0.0442 -0.2033
14612W        W28026   9.934  12.509  13.705 -0.1065  0.4319 -0.0225
14613W        W28027   5.627  11.665  12.803  0.0666  0.0805  0.3384
14614W        W28028  11.833   8.527   1.465  0.1594 -0.2424 -0.0669
14615W        W28029   1.815   8.997   5.073  0.0623 -0.0522 -0.1449
14616W        W28030   5.833  15.481  12.868  0.2440 -0.0081 -0.0449
14617W        W28031   3.875  10.447   1.300  0.1228  0.0646 -0.1259
14618W        W28032   8.831   3.530   5.073  0.0625  0.0376  0.0357
14619W        W28033   4.794   9.242   3.792 -0.1311  0.1806  0.0464
14620W        W28034   5.792  13.989  10.669 -0.0857  0.3100  0.1271
14621W        W28035   1.701  11.315   5.390  0.1591 -0.1417 -0.0546
14622W        W28036   9.864   2.251   0.742 -0.0285 -0.0620  0.0398
14623W        W28037   3.021   6.645   5.835  0.1859 -0.0079  0.1135
14624W        W28038   6.769   1.982   1.108  0.0120 -0.1088  0.1430
14625W        W28039   1.124   8.689   3.807  0.1781 -0.1402 -0.2213
14626W        W28040  10.340   9.724  10.923 -0.0171  0.1591 -0.0862
14627W        W28041  17.952   6.242   3.792 -0.1560 -0.1226 -0.0532
14628W        W28042  18.165   6.189   1.699  0.1059 -0.0245  0.0423
14629W        W28043  10.203   9.459  15.495 -0.3590 -0.3273  0.0058
14630W        W28044   8.642   3.495  15.958 -0.0530 -0.0069 -0.0019
14631W        W28045  15.176   3.442   2.971  0.0259  0.4195  0.2609
14632W        W28046  15.171   9.452   0.714 -0.0302 -0.1318 -0.2478
14633W        W28047  14.622   5.586   3.436  0.1755  0.2440 -0.2614
14634W        W28048  17.958  11.105  10.698 -0.2930  0.1301 -0.0673
14635W        W28049  17.922   8.624   1.290  0.3203  0.3132 -0.2325
14636W        W28050   5.313   8.362  13.481  0.0504 -0.0194 -0.1291
14637W        W28051   6.820   5.296   0.022  0.1418  0.1356 -0.0364
14638W        W28052   1.432   1.270   4.933  0.1446 -0.0251  0.1639
14639W        W28053  18.090  16.485  14.718 -0.0607  0.0964 -0.0347
14640W        W28054  17.059   6.788  12.718 -0.1909 -0.1216 -0.0295
14641W        W28055   6.016   9.066   5.963  0.0398  0.1431  0.2173
14642W        W28056  10.501  14.991   2.505 -0.4015 -0.0473 -0.0304
14643W        W28057   8.770  12.611  15.265 -0.0933 -0.2129  0.0018
14644W        W28058   1.851   4.867   3.543  0.0415  0.2409  0.4067
14645W        W28059  17.642  16.376   5.374  0.0615  0.0545 -0.1178
14646W        W28060  13.971  12.037  16.199 -0.0427 -0.0601 -0.0904
14647W        W28061  16.406  18.167   5.152 -0.1466 -0.2081 -0.0992
14648W        W28062  12.936   6.420  13.771 -0.0055  0.1144  0.2039
14649W        W28063   8.971  15.899   1.034 -0.0183 -0.0333 -0.2785
14650W        W28064  13.704   7.719   2.665  0.0314  0.0447 -0.1049
14651W        W28065   2.965  16.000   3.340 -0.1213 -0.3254  0.2505
14652W        W28066   8.251   3.138   5.749  0.1598 -0.1134 -0.1260
14653W        W28067   2.522  14.726   3.524 -0.1010  0.1348 -0.0289
14654W        W28068  16.973  10.683  12.542  0.2935  0.1853  0.1337
14655W        W28069   2.413  10.511   4.231 -0.3418 -0.0927 -0.1553
14656W        W28070   6.812  15.105   6.089  0.3270 -0.1386 -0.1956
14657W        W28071  15.964   1.619   0.641  0.0265  0.1735 -0.1383
14658W        W28072   0.528   0.247  12.980  0.0928  0.0941 -0.2854
14659W        W28073  17.930   8.739  16.279  0.1836  0.1242  0.0237
14660W        W28074  12.263   9.016  15.682 -0.2270 -0.0613 -0.0133
14661W        W28075   4.521   3.916  16.277  0.2907  0.1206 -0.1531
14662W        W28076  11.485   3.567  11.876 -0.2207  0.1872  0.0321
14663W        W28077   6.117  17.549   4.251 -0.0213 -0.1002 -0.0506
14664W        W28078  16.277  10.330  15.918 -0.0427  0.1967 -0.2212
14665W        W28079   0.805  17.009  14.405  0.1436 -0.2789  0.1306
14666W        W28080  11.795  10.150  12.761 -0.1580  0.1218 -0.0669
14667W        W28081   0.630  16.966  15.763 -0.0200 -0.0683 -0.0250
14668W        W28082   5.766  16.057   6.787 -0.0661 -0.0907  0.0195
14669W        W28083   6.992  15.727  10.750  0.0016 -0.2776  0.0167
14670W        W28084  14.511  17.941   4.603 -0.1694 -0.1848 -0.1123
14671W        W28085  16.815  16.480  15.943  0.2823  0.0322 -0.1354
14672W        W28086   1.065  11.312  12.031 -0.2851 -0.3347 -0.1766
14673W        W28087   3.111   8.752  12.519 -0.1461 -0.0140  0.2268
14674W        W28088   5.116  15.820   0.287 -0.2305 -0.1893  0.0164
14675W        W28089   7.232  17.753  15.151 -0.2530  0.0897 -0.0600
14676W        W28090  10.634  17.147   1.170  0.0704 -0.0804  0.2214
14677W        W28091  15.199  16.398  10.694  0.3946 -0.1147 -0.0892
14678W        W28092   0.942   3.529   0.320 -0.2185  0.1392  0.1635
14679W        W28093   8.676   5.601  14.469 -0.1214  0.0021 -0.0834
14680W        W28094   3.907   9.780  11.878  0.0385 -0.0188  0.0969
14681W        W28095  15.790  14.141   5.226 -0.1110 -0.2766 -0.0407
14682W        W28096  11.338   0.596  13.467  0.3895 -0.0771 -0.1556
14683W        W28097  14.430  11.271   0.050  0.0373 -0.3657 -0.1054
14684W        W28098  14.265   9.372   1.827 -0.0582 -0.1040  0.0289
14685W        W28099   6.603   7.110  16.218 -0.1317 -0.4335  0.1909
14686W        W28100   3.511   4.584   3.629  0.0363  0.0186 -0.2409
14687W        W28101  16.298   8.591  14.616 -0.0904  0.1228  0.0314
14688W        W28102   1.472   6.482   2.254 -0.0022 -0.2919 -0.3562
14689W        W28103   7.233   9.237   4.467  0.1570 -0.1919  0.0442
14690W        W28104   1.982  12.709   1.520 -0.0736 -0.1533 -0.0205
14691W        W28105   4.854  16.667  14.096 -0.3396  0.0441 -0.1753
14692W        W28106   5.219   8.298  11.695  0.0123 -0.2075 -0.0237
14693W        W28107  10.221  10.938   6.279  0.0942 -0.4817  0.1654
14694W        W28108   6.574   9.859   0.143 -0.2407  0.0467 -0.2225
14695W        W28109  10.851  14.202   5.947 -0.3029 -0.2144  0.2072
14696W        W28110  17.808  17.736  10.557 -0.2240  0.0822 -0.0319
14697W        W28111  16.011  13.435  11.625 -0.1375 -0.2295 -0.2847
14698W        W28112  17.105  18.189   2.925  0.1093  0.2318 -0.2192
14699W        W28113  16.394  10.783   4.058  0.1042 -0.2036  0.3760
14700W        W28114   2.434   1.168   0.550 -0.0271  0.1892 -0.0445
14701W        W28115  13.649  16.004   2.006  0.3854 -0.2201  0.0202
14702W        W28116   8.475  15.761   1.316 -0.1456  0.2140  0.1464
14703W        W28117  14.456  12.096  15.310  0.0012  0.4427 -0.0336
14704W        W28118   1.563  16.085   1.429 -0.0189  0.0131 -0.0224
14705W        W28119   6.567  17.117   2.044  0.1635 -0.1608  0.0160
14706W        W28120  16.448  15.509  15.883 -0.0111 -0.0840  0.2871
14707W        W28121   0.130  11.860   2.091 -0.1111  0.1461  0.1110
14708W        W28122   6.139  15.281  16.397  0.1821  0.0381  0.2172
14709W        W28123   5.036  13.155   2.339  0.2399  0.2490 -0.0039
14710W        W28124   4.950   5.957   4.934 -0.4461 -0.0560 -0.1120
14711W        W28125   7.023   9.764  15.443 -0.0530 -0.0094  0.0038
14712W        W28126   9.316  10.523  15.604  0.1505  0.0504  0.0393
14713W        W28127  14.704  16.252   4.931 -0.0938  0.2057  0.2484
14714W        W28128   9.219   3.911   4.870  0.0091  0.4488 -0.1269
14715W        W28129  14.427  17.230   0.277 -0.0096 -0.0246 -0.0094
14716W        W28130  16.199   0.016   2.550  0.0834  0.0484  0.1861
14717W        W28131  14.514   7.043   1.058  0.1873 -0.0872 -0.2836
14718W        W28132   5.860  10.107   2.083  0.1583 -0.1815  0.1775
14719W        W28133   0.860  12.647   3.366 -0.0566 -0.1134  0.2558
14720W        W28134  13.666  16.343   6.149  0.2084  0.1162 -0.0167
14721W        W28135  12.561   2.836  11.240  0.0792 -0.1109 -0.0849
14722W        W28136  18.138  10.005   4.039 -0.0036 -0.2466 -0.0533
14723W        W28137  10.846   4.048   2.682  0.0371 -0.3865  0.1924
14724W        W28138  13.828   5.568   5.495  0.1940  0.1623 -0.2433
14725W        W28139   1.828   6.690   0.155 -0.0990 -0.1316 -0.1970
14726W        W28140   6.884  17.826   0.729  0.2085  0.1778  0.2137
14727W        W28141   4.167  18.034   4.300 -0.0324 -0.2612  0.0617
14728W        W28142  18.064   2.786  13.635  0.2271 -0.0610 -0.1557
14729W        W28143   5.780  12.376   3.045 -0.0925  0.3292 -0.3321
14730W        W28144   8.371   6.253   1.764 -0.0652  0.2207  0.2953
14731W        W28145   8.077  13.251   3.402 -0.0718 -0.2270  0.1480
14732W        W28146   3.725   2.039   5.208  0.0820 -0.3628  0.0794
14733W        W28147  14.950  14.180  11.680 -0.1535 -0.1086  0.2529
14734W        W28148   2.669   8.704  12.704 -0.3545  0.0072 -0.1736
14735W        W28149  13.376  17.546  11.512  0.3586 -0.0135 -0.0442
14736W        W28150   3.560   5.967   4.213  0.0870  0.0399 -0.1386
14737W        W28151  12.300  10.620   3.549  0.1448 -0.1871  0.3571
14738W        W28152  15.474   0.976   4.704 -0.1423 -0.0106 -0.0224
14739W        W28153  16.720  12.887  11.848 -0.0708  0.2649  0.1220
14740W        W28154   3.363   5.480   3.893  0.0937 -0.1586 -0.1178
14741W        W28155  17.441  11.538  12.965 -0.1623 -0.0010  0.1871
14742W        W28156  11.628   0.896   4.507  0.1343 -0.0155 -0.0370
14743W        W28157   6.550  17.582   4.425 -0.2293  0.0677 -0.0033
14744W        W28158   6.951   0.334   3.796 -0.0269 -0.0234 -0.2187
14745W        W28159  17.586   1.404   3.770  0.2481  0.2620  0.1427
14746W        W28160   0.833  11.451   2.987 -0.0588  0.2423 -0.1543
14747W        W28161   6.858  16.855   2.467  0.1401 -0.1089  0.5150
14748W        W28162   4.441   7.319   1.037  0.1724  0.0982  0.0212
14749W        W28163   4.953  11.713   6.088  0.0030 -0.1103  0.0269
14750W        W28164   4.730  17.881  14.008  0.0599  0.3751  0.1465
14751W        W28165   8.564  12.888  13.146  0.1621  0.2724  0.1860
14752W        W28166  11.581   8.054   6.184  0.2534  0.0539 -0.0888
14753W        W28167   8.674  16.451  11.114  0.0297 -0.0106 -0.3211
14754W        W28168  17.051   9.738   5.520 -0.3397 -0.2454 -0.3418
14755W        W28169   1.112   7.338  13.046 -0.4273 -0.0472 -0.0641
14756W        W28170   9.577   0.548   1.990  0.2326  0.1042 -0.0649
14757W        W28171   2.090  12.973  11.236  0.2732  0.2110 -0.1567
14758W        W28172   3.501  12.166   2.325  0.0522  0.0020 -0.0478
14759W        W28173  15.068  17.424  10.775  0.1842  0.0066  0.1162
14760W        W28174   7.325   3.776  14.938 -0.0781 -0.1399 -0.1319
14761W        W28175   5.724  17.879   0.433 -0.3447  0.0592 -0.0245
14762W        W28176  15.194  11.754  10.925  0.0500 -0.0643  0.1503
14763W        W28177   4.044  10.828  14.582  0.1187 -0.1571  0.3443
14764W        W28178   7.396   6.813   2.642 -0.2581 -0.0340  0.4158
14765W        W28179   1.027   3.580  16.288 -0.0033 -0.1022  0.0358
14766W        W28180  14.018   5.871  15.022  0.3047  0.1288 -0.2221
14767W        W28181   0.751   1.484  12.003  0.1337 -0.4258 -0.1777
14768W        W28182   2.494   0.470  16.473  0.3879  0.1848  0.0339
14769W        W28183   5.855   4.240   2.828 -0.3757 -0.2512  0.2016
14770W        W28184   2.006   3.908   2.647 -0.1124 -0.3005  0.3264
14771W        W28185   1.887  16.109   5.776 -0.2249 -0.1150  0.3798
14772W        W28186  10.455  14.725  13.837  0.0032  0.1663  0.1876
14773W        W28187   1.096   1.897   6.153 -0.0795  0.2101  0.1864
14774W        W28188   5.785  14.339   3.375 -0.2208  0.0563 -0.0656
14775W        W28189  10.253   3.774   3.880  0.2305  0.0764  0.1757
14776W        W28190  13.256  16.392   4.934 -0.1638  0.2846 -0.0656
14777W        W28191   8.466  10.270  11.775 -0.0182 -0.2686 -0.2028
14778W        W28192   0.569   8.725   3.740  0.0157 -0.0178 -0.0097
14779W        W28193  15.070  12.636   0.912 -0.0033  0.0843  0.0695
14780W        W28194   6.788  17.022  14.746  0.0584  0.0199 -0.1063
14781W        W28195  11.222  14.207   0.568  0.3483  0.2060 -0.4006
14782W        W28196  16.028   2.037   3.327  0.0506 -0.2564 -0.2474
14783W        W28197  13.865   2.700   4.002  0.1797  0.3031  0.1416
14784W        W28198   9.109  15.438   5.756 -0.3052 -0.0798  0.1201
14785W        W28199  15.589  12.507   3.075 -0.0925 -0.3096 -0.2259
14786W        W28200   9.518   3.190  14.026  0.1362  0.1370 -0.1056
14787W        W28201   3.271   1.347   2.672  0.0714 -0.1328 -0.1023
14788W        W28202  11.988  14.276   4.263 -0.2036  0.0594 -0.0887
14789W        W28203   3.482  15.457  13.695 -0.1289 -0.2116  0.2207
14790W        W28204   3.336   5.340   1.433 -0.2824  0.4519 -0.1212
14791W        W28205  14.217   4.798   1.937 -0.1306  0.0927  0.1673
14792W        W28206  18.180   6.451   5.307  0.0338 -0.3437 -0.1003
14793W        W28207  15.437   8.274  16.225  0.0553 -0.1080 -0.2447
14794W        W28208   9.783   0.824  14.639 -0.1355  0.0110  0.3676
14795W        W28209  16.187   8.011   0.915 -0.1994  0.4161 -0.4895
14796W        W28210   7.802  14.968  10.937  0.0770  0.0301  0.0215
14797W        W28211   0.518  15.567  12.634 -0.0108  0.2146 -0.0031
14798W        W28212   4.504   4.122  15.843 -0.1357  0.3128  0.0100
14799W        W28213   2.851  10.038  13.057 -0.1432  0.0059  0.2454
14800W        W28214   7.957  12.344  15.113  0.0391  0.1328 -0.0561
14801W        W28215   1.504  13.754  15.078 -0.0150 -0.4379  0.0334
14802W        W28216   0.249  10.623   1.712 -0.2844  0.0217 -0.0529
14803W        W28217   9.340   0.235   5.832  0.4170 -0.0441 -0.3895
14804W        W28218  10.242   8.283   4.291  0.0126  0.1205 -0.0550
14805W        W28219  14.064   9.793  13.620  0.0299 -0.1063  0.0002
14806W        W28220   4.259  10.020   2.258  0.1247 -0.0639  0.1591
14807W        W28221  11.035  18.011  13.948 -0.0041  0.0799 -0.2650
14808W        W28222   6.800  11.286  11.321  0.0022  0.0303  0.0052
14809W        W28223  13.926   6.946   1.852 -0.0578  0.0517 -0.3853
14810W        W28224  11.642  11.899   1.233 -0.1197  0.2213 -0.0596
14811W        W28225   1.512   2.481   3.302 -0.2751 -0.0851 -0.2084
14812W        W28226   8.214   9.812   0.879 -0.2232  0.4534  0.0100
14813W        W28227   8.232  15.972  12.887 -0.0577 -0.1646 -0.3852
14814W        W28228   8.264  17.478   6.196 -0.1499 -0.1399  0.2163
14815W        W28229   7.650  15.879   3.450  0.0135  0.0999 -0.1831
14816W        W28230   8.383  10.995   3.397  0.0833 -0.0987  0.1010
14817W        W28231  16.549   2.455   3.455 -0.1426 -0.2560  0.2565
14818W        W28232  10.714  13.012   3.884  0.1923  0.0380  0.3108
14819W        W28233   8.334   7.424   5.239  0.0386 -0.0798 -0.1637
14820W        W28234   1.463   1.827  12.795 -0.1643 -0.0508 -0.1488
14821W        W28235   9.425   8.247   3.437  0.2285 -0.2138  0.0781
14822W        W28236   8.541  11.206  15.091 -0.0095 -0.0913  0.0063
14823W        W28237   7.301  15.628   5.230  0.0159  0.2793  0.1139
14824W        W28238   1.320  12.888   4.922  0.0686  0.1219 -0.1990
14825W        W28239   2.396  10.265   2.270 -0.2627  0.1579 -0.1923
14826W        W28240  11.925   5.209  16.051  0.6032  0.0106  0.4678
14827W        W28241   4.885  12.362   2.635  0.2298 -0.0440  0.2185
14828W        W28242  14.381   3.213   4.856 -0.2696 -0.2156  0.2353
14829W        W28243   1.971   2.841  16.406  0.0766 -0.1310 -0.2135
14830W        W28244  16.696  13.497   0.583  0.1104 -0.0885  0.0550
14831W        W28245   7.927  11.965   5.505 -0.2005 -0.0397 -0.4412
14832W        W28246   3.409  16.300   4.743  0.0484  0.1206 -0.1968
14833W        W28247  17.028   3.395  10.653  0.4468 -0.0245  0.0034
14834W        W28248   8.751  15.388   2.651  0.3396 -0.2459 -0.3828
14835W        W28249  14.096  12.801   4.174  0.2356  0.3749 -0.3101
14836W        W28250   5.721  17.290   3.683  0.0874 -0.1851 -0.0219
14837W        W28251  10.585  10.702  11.548 -0.2550 -0.0235 -0.1232
14838W        W28252   2.724   2.217   1.676 -0.4594 -0.3388 -0.1870
14839W        W28253  16.580  10.423   0.362  0.0894  0.0686 -0.0754
14840W        W28254   0.504   5.651   2.844 -0.2685  0.1093  0.0092
14841W        W28255   4.028  12.750   6.163  0.1113  0.1621  0.3858
14842W        W28256  14.462   5.124   3.357 -0.2126 -0.1217 -0.0270
14843W        W28257  12.106  11.977   1.288 -0.0865  0.0935 -0.0884
14844W        W28258   0.874   9.304  14.017  0.0795  0.1489  0.2475
14845W        W28259   0.267  10.349   3.868  0.0049 -0.2122  0.1544
14846W        W28260   5.270   5.271  13.135  0.0590  0.3095 -0.1830
14847W        W28261  17.638  11.044  13.876  0.0173  0.2020  0.0147
14848W        W28262  13.547  10.884  14.391  0.1433 -0.1876  0.1382
14849W        W28263   9.617  13.459  13.594 -0.2390  0.1191 -0.2426
14850W        W28264   3.810   1.163   1.733  0.2161 -0.1824 -0.2730
14851W        W28265  14.574   9.054   0.976 -0.3069  0.2426  0.1561
14852W        W28266  12.619   3.930  14.578  0.0374 -0.1883 -0.0207
14853W        W28267   3.319  15.391  14.216 -0.1000 -0.1805 -0.2475
14854W        W28268   5.044   3.557  16.210  0.2064 -0.1451 -0.2496
14855W        W28269   3.353  12.487  11.337 -0.2450  0.0564 -0.0421
14856W        W28270  15.148  10.459  14.524 -0.1934  0.0143  0.1028
14857W        W28271  14.676   9.290  13.909 -0.0690 -0.1091  0.1762
14858W        W28272   8.786  16.058  14.160 -0.1233 -0.0834  0.0683
14859W        W28273   8.087   8.899   3.466 -0.0840  0.0238 -0.2596
14860W        W28274  10.087  14.457   4.906 -0.0081 -0.2271 -0.3985
14861W        W28275   3.667   6.777  12.826  0.0850 -0.2869  0.2853
14862W        W28276  13.741  14.952   3.709  0.0735  0.0870  0.3138
14863W        W28277  11.691   6.805  10.814  0.1944  0.2354  0.1839
14864W        W28278  18.234  16.867  12.524 -0.0919 -0.0915 -0.0447
14865W        W28279  16.400   4.978   9.446  0.0289  0.0234 -0.1688
14866W        W28280  11.972   4.953  15.002 -0.0720  0.0130  0.1314
14867W        W28281  11.544  15.082  10.561 -0.0058  0.2235  0.1979
14868W        W28282  10.220  16.943   1.305  0.0100  0.0839 -0.3622
14869W        W28283  10.046  16.713   1.721 -0.2325 -0.0119  0.0040
14870W        W28284  11.927  10.751   1.821  0.1492 -0.2873  0.3711
14871W        W28285  13.736   3.070  12.359 -0.0166 -0.0881 -0.0277
14872W        W28286   2.055  15.483  11.067 -0.0631 -0.0330 -0.1180
14873W        W28287   1.045   1.279   0.530 -0.2484  0.1855  0.0929
14874W        W28288   8.687   2.630   6.484 -0.1144 -0.1609  0.2519
14875W        W28289   4.941   2.628  14.811  0.0480 -0.1338 -0.2143
14876W        W28290  17.400   3.920  11.242  0.1794 -0.5824  0.2162
14877W        W28291   1.621  10.825   1.071  0.2439  0.3397 -0.1066
14878W        W28292   4.325   3.706  14.952  0.3270 -0.2640  0.1253
14879W        W28293  12.060  12.763   2.749 -0.0541  0.1957  0.0494
14880W        W28294   9.131   4.916   4.530 -0.0011  0.0883 -0.4244
14881W        W28295   6.858   5.419   0.519  0.2419  0.0098 -0.0739
14882W        W28296  10.609  11.225   2.908 -0.1053  0.2045 -0.0406
14883W        W28297   9.538   5.300   0.549 -0.2342 -0.0492  0.0177
14884W        W28298  14.023  17.900   0.198 -0.0514  0.1318  0.2082
14885W        W28299  13.674  11.653  16.212 -0.0664 -0.0963  0.2034
14886W        W28300   2.908  17.450   1.867 -0.1113 -0.1237  0.0387
14887W        W28301   8.204   3.421   4.126 -0.1301 -0.1935 -0.1917
14888W        W28302   0.673   8.315  14.051  0.4673  0.3842 -0.3813
14889W        W28303   7.304  16.500   1.808  0.0997  0.1123 -0.1636
14890W        W28304   4.394  17.065  15.807 -0.1351 -0.0437 -0.0079
14891W        W28305  17.755  16.761   5.756 -0.0680  0.2281  0.1762
14892W        W28306  17.558  17.612   0.251  0.1280 -0.0080 -0.0562
14893W        W28307   0.147  15.758  13.844 -0.0999  0.0727  0.0000
14894W        W28308  15.992   0.069  16.337 -0.1524 -0.3096 -0.1236
14895W        W28309   9.385  13.601   4.264 -0.2641  0.2378 -0.2186
14896W        W28310  17.731   7.238  10.259  0.2200  0.0984 -0.0789
14897W        W28311  10.288  17.848   4.721  0.2214  0.1313 -0.0349
14898W        W28312   7.397   8.254  10.889  0.1561  0.0665  0.1333
14899W        W28313   0.405  11.443  10.855 -0.0671 -0.1228  0.1712
14900W        W28314   1.216  15.126  11.629  0.1700 -0.0257 -0.3687
14901W        W28315   9.379   3.424   0.015  0.0186 -0.2343 -0.0275
14902W        W28316   9.382   2.424   2.663 -0.0415  0.0098 -0.0022
14903W        W28317  10.105   3.397  16.181 -0.1612 -0.3929  0.3451
14904W        W28318  17.351   1.930  12.237 -0.0873  0.2002 -0.1319
14905W        W28319   1.093  15.236  14.620 -0.1400  0.2464  0.2003
14906W        W28320  18.212  12.775  16.454 -0.1182  0.0863  0.1456
14907W        W28321   8.715   1.689  15.950  0.3716 -0.0948  0.2294
14908W        W28322   3.667  12.641  13.551  0.1543 -0.2736  0.1882
14909W        W28323   0.213   6.375  12.847 -0.0316 -0.1889 -0.2476
14910W        W28324   5.079  14.716  13.614 -0.0637 -0.1620 -0.1987
14911W        W28325   1.395   0.930  13.875  0.1807  0.1704 -0.0278
14912W        W28326  13.661   8.213   3.726 -0.5832  0.0239  0.1435
14913W        W28327   0.594  18.044   4.206 -0.1011  0.1950 -0.0321
14914W        W28328   1.713   3.940  11.943 -0.2070  0.0593 -0.3247
14915W        W28329   8.548   6.596   3.295 -0.0392  0.2197 -0.2221
14916W        W28330  14.017  10.424   4.425 -0.1413  0.0958  0.2037
14917W        W28331  11.357  18.077  16.409  0.0037  0.3291 -0.2000
14918W        W28332  15.725   8.419   2.950  0.0202  0.1066  0.1327
14919W        W28333  18.173  17.499   4.559 -0.3578  0.2445  0.1085
14920W        W28334   6.532   7.866   0.045 -0.0490 -0.2996 -0.0968
14921W        W28335  17.149   9.524  10.716 -0.1637  0.0936 -0.2099
14922W        W28336  17.836   5.492  10.351 -0.1435  0.0896 -0.1081
14923W        W28337   4.230   0.598  15.384 -0.1327 -0.0510  0.0320
14924W        W28338  17.617   7.664  15.413 -0.0648 -0.0416  0.0055
14925W        W28339   4.217  14.893   6.602 -0.0495  0.2627 -0.0148
14926W        W28340  15.032  15.416  13.560 -0.2333  0.0733  0.0946
14927W        W28341   9.876   9.850  12.833  0.1185  0.0320 -0.1639
14928W        W28342   1.129  18.172   6.097  0.0629 -0.0480 -0.0967
14929W        W28343   0.270   2.580  13.558 -0.0863  0.0476  0.0884
14930W        W28344  13.061   8.856   0.835 -0.1665  0.1078  0.2027
14931W        W28345   1.245   9.039  12.760  0.0521 -0.0969 -0.0114
14932W        W28346   6.479   3.607  16.519  0.0209  0.0822  0.3419
14933W        W28347   5.126   7.912  16.558 -0.1096 -0.0589  0.1159
14934W        W28348   2.399  10.840  13.220  0.0355  0.0297  0.1198
14935W        W28349  17.537   9.804   2.603 -0.0233  0.1086  0.0034
14936W        W28350  18.109  15.267  12.680 -0.1153 -0.2671 -0.4841
14937W        W28351   7.960   7.511   3.720  0.0639 -0.1296  0.2639
14938W        W28352   9.247  15.190   2.768  0.0475  0.2281 -0.0058
14939W        W28353   4.065   6.752   5.401 -0.0483  0.0550  0.0395
14940W        W28354   1.094  12.861   3.913 -0.0636 -0.0140  0.2295
14941W        W28355   7.956  14.045   1.396 -0.1713 -0.0202 -0.1665
14942W        W28356  13.865  10.682   2.803 -0.1618 -0.1400  0.1858
14943W        W28357   8.453  17.365   2.223  0.0720  0.4294 -0.0436
14944W        W28358   8.067  12.880  14.474 -0.0451 -0.0699  0.1910
14945W        W28359  10.657   6.132   0.738 -0.2143 -0.1098 -0.0779
14946W        W28360  10.949   6.992  12.590 -0.2294  0.0435  0.3129
14947W        W28361  10.747  16.276   1.609 -0.1729  0.3591 -0.0739
14948W        W28362  14.747   2.996  13.591  0.1818 -0.4188 -0.2841
14949W        W28363   3.572  17.515   3.578  0.0080  0.0876  0.0501
14950W        W28364  16.883   1.605  13.118  0.0239 -0.2662  0.1027
14951W        W28365  15.974   2.652   1.489  0.0734  0.0691  0.3477
14952W        W28366   0.474  15.022   3.783  0.1621  0.1609  0.1311
14953W        W28367   3.802   1.071   4.398  0.5063 -0.0113  0.0708
14954W        W28368  12.398   3.488   0.342  0.0464  0.0637 -0.3313
14955W        W28369   1.549   1.531  14.669 -0.1887  0.0500  0.1442
14956W        W28370   3.840   5.994   0.429 -0.0234 -0.0228  0.0137
14957W        W28371   3.698  16.938  14.828 -0.0665 -0.1305  0.0780
14958W        W28372  15.873   6.837   3.851  0.1531  0.1497  0.1714
14959W        W28373  14.368  13.605  15.794  0.2731  0.2212  0.2433
14960W        W28374   9.464   8.119  11.546  0.2026  0.0791  0.1493
14961W        W28375   3.927  10.270  13.175 -0.0928  0.0129  0.2798
14962W        W28376   2.002   7.694  11.959  0.1940  0.0766 -0.0691
14963W        W28377  10.760   1.294   6.288  0.0848  0.0447  0.1866
14964W        W28378  17.596  17.027  15.421  0.1044  0.0649 -0.1922
14965W        W28379   4.583   3.755   4.550  0.2207 -0.2541  0.3008
14966W        W28380   4.833   5.740   1.888 -0.4072  0.0294  0.2015
14967W        W28381  14.830   8.613   3.113 -0.1128  0.3032 -0.0009
14968W        W28382   1.720   6.673  13.426 -0.0575  0.1206 -0.0508
14969W        W28383   6.105   4.651  13.936 -0.2505  0.0246  0.3706
14970W        W28384  11.020   0.779   2.840  0.0983  0.1775  0.1960
14971W        W28385   0.710  18.041  12.934 -0.0329 -0.1384  0.1371
14972W        W28386  15.407   1.106  15.367 -0.3452  0.0950 -0.1557
14973W        W28387   6.776   4.619   9.764 -0.0295 -0.0501  0.1457
14974W        W28388  12.388   1.058  13.340 -0.1181  0.0880  0.1696
14975W        W28389   5.716   9.712   2.526 -0.0318 -0.1756  0.2078
14976W        W28390   4.815  15.960   3.069 -0.0441 -0.4437  0.3080
14977W        W28391   7.267   0.526  14.531  0.2127 -0.0931 -0.1330
14978W        W28392   8.610  15.828  12.157 -0.2030  0.2990 -0.3660
14979W        W28393   0.400   6.102   5.000  0.1415 -0.2097  0.3724
14980W        W28394  14.796  17.023  15.764 -0.1251 -0.2682  0.2307
14981W        W28395   9.840  11.891  15.158 -0.0664 -0.1203  0.2575
14982W        W28396   6.350   1.900  12.073  0.0445 -0.0824  0.1983
14983W        W28397  10.781  13.344  15.617  0.0109  0.1968 -0.1069
14984W        W28398   1.332   6.411   4.287 -0.2417  0.3972  0.1348
14985W        W28399  11.932  18.114  13.340  0.0320 -0.0628 -0.3324
14986W        W28400  16.565  10.887  11.060 -0.0792  0.1492  0.1319
14987W        W28401   8.839   3.303  13.793 -0.3221 -0.0087  0.2214
14988W        W28402   0.714   4.097   3.739  0.1282  0.0836 -0.0590
14989W        W28403   5.084   4.363  12.817  0.2373  0.0070 -0.1335
14990W        W28404   0.068   5.567   3.098 -0.1661 -0.1073 -0.4948
14991W        W28405   3.939  16.777  15.653  0.1373 -0.2942  0.0481
14992W        W28406  10.206  10.345  11.813  0.2745 -0.1708 -0.0916
14993W        W28407  13.666  13.055  13.214  0.0817  0.3266 -0.1655
14994W        W28408   6.786  11.644  10.912  0.3240 -0.1814  0.0498
14995W        W28409   3.664   6.894   1.562 -0.0890  0.1545  0.4029
14996W        W28410   8.367  10.203   3.556  0.4006  0.4424  0.1049
14997W        W28411   2.212  13.412   0.608  0.0751 -0.1045 -0.2174
14998W        W28412   4.920   7.260   2.726  0.0408  0.2448 -0.0912
14999W        W28413  13.606  14.258   0.627 -0.1575  0.0679 -0.1714
15000W        W28414   8.609  10.861  16.186 -0.2540 -0.3203 -0.0279
15001W        W28415  11.308   4.789  12.869 -0.1570  0.1414 -0.0596
15002W        W28416   5.286   0.232   0.742  0.3704  0.1334  0.2388
15003W        W28417  14.392  15.324  14.979 -0.0113  0.0201 -0.1614
15004W        W28418  15.191   3.522   3.607 -0.1001  0.3433  0.1263
15005W        W28419   2.400  14.090  12.123 -0.3163  0.0032  0.2818
15006W        W28420  15.205  17.587  14.550 -0.3291 -0.2468  0.2392
15007W        W28421  15.876  15.939  10.705  0.1647 -0.1967  0.3350
15008W        W28422  14.027   3.903   9.876 -0.1375 -0.0359 -0.0644
15009W        W28423  13.200  16.256   6.528  0.0562 -0.1554 -0.1570
15010W        W28424  14.591   3.345   2.791  0.0350  0.0379 -0.1521
15011W        W28425   0.627  13.889   2.939 -0.0180 -0.0432 -0.0683
15012W        W28426  13.027  14.195  14.493 -0.1018 -0.3835 -0.1741
15013W        W28427   6.445  14.420  16.334  0.2012 -0.1575 -0.0106
15014W        W28428   5.060   6.555   5.364 -0.3048  0.0505 -0.2548
15015W        W28429   8.037  17.783  12.676  0.0500  0.1650  0.1795
15016W        W28430   7.003  12.711   5.729  0.0539 -0.2947  0.2842
15017W        W28431  14.928   0.770   4.077 -0.0123  0.0877  0.1367
15018W        W28432  17.339  13.459   0.449 -0.0905  0.0467  0.2361
15019W        W28433   7.053   5.556  15.515 -0.0987 -0.0398  0.0685
15020W        W28434  16.941   7.823   3.419 -0.0244  0.1514  0.2206
15021W        W28435   1.085   9.393  11.240  0.0487 -0.1038 -0.0893
15022W        W28436   7.007  17.117   1.149  0.0296 -0.0901  0.3097
15023W        W28437   1.509  12.192   0.899  0.2483 -0.2963 -0.2074
15024W        W28438   4.455   6.501   5.130  0.2885  0.3939 -0.2766
15025W        W28439  10.480   8.222  16.359  0.0365 -0.0474  0.2712
15026W        W28440  12.379  10.183   2.345  0.0793 -0.2580 -0.1540
15027W        W28441   3.759  11.145   5.312  0.3092 -0.0267  0.0894
15028W        W28442   5.566  10.541   5.996  0.1370  0.5385  0.0977
15029W        W28443   7.092  12.236   1.730  0.0162 -0.0061 -0.0122
15030W        W28444  17.101   0.995   5.193 -0.0927 -0.1959  0.2302
15031W        W28445  15.131   8.457   5.190 -0.0754  0.0379 -0.0738
15032W        W28446  16.153   9.505   5.463 -0.2088  0.4091 -0.3186
15033W        W28447  13.392  11.093  13.000  0.0041 -0.2156 -0.0278
15034W        W28448   3.931   4.732   1.214 -0.1006  0.1401 -0.2609
15035W        W28449  14.003   0.068   6.121 -0.0479  0.2631  0.0474
15036W        W28450  11.435   4.369   3.779 -0.0151  0.0079  0.1021
15037W        W28451  11.922   0.556  11.441  0.0305  0.0306  0.1263
15038W        W28452   9.380   0.028  12.182  0.0943 -0.0654  0.1460
15039W        W28453   2.516  17.139  10.795 -0.1084 -0.2018  0.1219
15040W        W28454  14.658  14.380  16.461  0.2364  0.1500 -0.1314
15041W        W28455   3.609  10.912  14.814 -0.0725  0.2358  0.1371
15042W        W28456   3.683   9.364  12.000 -0.0770  0.1616 -0.0771
15043W        W28457  17.899  15.165   2.829 -0.2291 -0.1111 -0.2874
15044W        W28458   7.934   1.948  15.318  0.0904 -0.2079 -0.2407
15045W        W28459  16.929  14.824  15.915 -0.1283 -0.1983 -0.1672
15046W        W28460  15.120  14.570   6.650 -0.1227  0.1399  0.1308
15047W        W28461  13.327  16.276  15.443  0.4563  0.1832  0.2559
15048W        W28462  15.619   8.927  13.700 -0.1243 -0.0769 -0.0259
15049W        W28463  11.969   7.616   5.338  0.0548  0.1074 -0.2368
15050W        W28464  17.120   5.228   2.924  0.0259  0.0737  0.1655
15051W        W28465  18.058  10.489   0.873 -0.4184  0.2523  0.2717
15052W        W28466  10.399   7.538  11.770 -0.0160 -0.2102  0.3253
15053W        W28467   6.182  12.675   3.944  0.0378 -0.0984 -0.0280
15054W        W28468   7.905  14.887  11.494 -0.2321 -0.0048  0.1184
15055W        W28469  15.306   9.881   3.603  0.3994  0.0921  0.3349
15056W        W28470  18.026   8.932  11.570 -0.2370 -0.2037 -0.0396
15057W        W28471   1.499  17.692   1.853 -0.0495  0.1943 -0.0018
15058W        W28472   9.479   9.241  15.926  0.0969  0.0054 -0.2305
15059W        W28473   7.973  10.537  11.942  0.0600  0.0119  0.1485
15060W        W28474   5.129   2.065   5.736  0.1896 -0.1700 -0.0713
15061W        W28475   2.101  13.033   5.063 -0.3077  0.2238  0.0042
15062W        W28476   9.966  10.709   3.343 -0.0802 -0.1407 -0.0742
15063W        W28477   6.632   0.408   4.392 -0.0468 -0.0901  0.1995
15064W        W28478  14.817   1.808   0.411 -0.1680  0.2477  0.1869
15065W        W28479   2.687   7.428   6.574 -0.1970 -0.0450 -0.1419
15066W        W28480  15.868   1.586  13.388  0.0183  0.4086  0.1585
15067W        W28481   7.388   2.281   4.343  0.1645 -0.2283  0.0469
15068W        W28482   1.322  13.839  13.923 -0.0730 -0.0156 -0.0854
15069W        W28483  10.194  14.529  11.102  0.1171 -0.0042 -0.0282
15070W        W28484  14.165   5.538   4.259  0.0030  0.0036  0.0400
15071W        W28485  16.630   4.668  10.777  0.0451 -0.3469  0.1771
15072W        W28486   7.823   5.775  10.625 -0.1609  0.2606  0.0983
15073W        W28487   2.077  11.205  12.455 -0.2044  0.0194 -0.1241
15074W        W28488   2.980  17.300  13.275 -0.1027 -0.5576 -0.2833
15075W        W28489  13.261  12.198  15.742  0.1996  0.0639  0.0164
15076W        W28490  14.928  10.506   4.129  0.1173  0.1908 -0.3671
15077W        W28491   7.319   7.338   1.108  0.1465 -0.2289  0.2008
15078W        W28492   9.468   8.886   5.569  0.0237  0.0420 -0.0017
15079W        W28493   8.699   7.172  16.271 -0.0263  0.0101  0.1167
15080W        W28494  12.565   7.988   5.597 -0.1055  0.1073  0.1794
15081W        W28495   5.795  17.220   4.668 -0.0880  0.0379 -0.1060
15082W        W28496   6.232   3.875  13.639 -0.0527 -0.0203 -0.4153
15083W        W28497   8.599   1.207   1.658 -0.0780  0.2318  0.0552
15084W        W28498   8.223  11.621   2.031  0.2374 -0.1884 -0.0817
15085W        W28499   3.275   7.596  16.344  0.1139  0.3049  0.0043
15086W        W28500  10.021  14.491   0.373  0.1110 -0.0228  0.0462
15087W        W28501   2.620   5.961   2.176 -0.1493 -0.4573  0.2103
15088W        W28502  14.140   2.728  12.844  0.2318  0.3484  0.0381
15089W        W28503   3.849   4.976   2.867  0.0806  0.2184  0.2442
15090W        W28504  12.835   4.172   0.808  0.0402  0.1339 -0.0750
15091W        W28505   8.753  14.003  11.135  0.4922  0.1826 -0.3118
15092W        W28506  13.153   8.033   2.481  0.4543 -0.1707 -0.0183
15093W        W28507   2.615   1.528  13.213  0.2849  0.0937  0.1173
15094W        W28508  17.582  12.310   4.452  0.1911  0.3098  0.4042
15095W        W28509   5.360  15.689  15.013  0.3773 -0.0381  0.2760
15096W        W28510   9.777   8.651   6.107 -0.3460 -0.0467 -0.1141
15097W        W28511   2.222   6.326  11.172 -0.2405  0.0086  0.3373
15098W        W28512  16.473   2.084  16.242  0.1820 -0.1316 -0.1341
15099W        W28513   7.767   7.747  12.171  0.2660 -0.0760  0.1004
15100W        W28514   1.475  18.254   2.044 -0.2278  0.1447  0.3488
15101W        W28515   5.218   2.516  13.963 -0.1071 -0.1104 -0.1102
15102W        W28516   4.495  10.965   2.685  0.1597  0.0045  0.0685
15103W        W28517  15.945   1.295  12.160 -0.0213 -0.0293  0.1234
15104W        W28518   6.503   6.380  12.684 -0.0760 -0.0375 -0.0868
15105W        W28519  17.526   0.037  15.531  0.2199  0.0128 -0.2131
15106W        W28520  12.985   5.515   1.348 -0.2182  0.0949  0.4122
15107W        W28521   2.919   5.799  15.161 -0.0624 -0.0526 -0.2479
15108W        W28522   5.055   3.305  10.909 -0.1392  0.2357  0.1160
15109W        W28523   0.370  16.994   6.219  0.1930  0.0948  0.2915
15110W        W28524  16.815   0.507   4.088 -0.2053  0.2711  0.2421
15111W        W28525   5.095   8.146  13.055 -0.3295 -0.0339 -0.2360
15112W        W28526   2.858   7.464   5.253  0.0311  0.0369  0.2788
15113W        W28527   4.576   7.746   4.762 -0.0507 -0.0619 -0.2070
15114W        W28528   9.882  12.711   1.422  0.0860 -0.3118 -0.1565
15115W        W28529   6.977   4.081   5.896  0.3054  0.1859 -0.2740
15116W        W28530   4.877  13.236  12.096 -0.3608  0.0094 -0.0827
15117W        W28531  16.291   8.314  11.748  0.1491 -0.0215 -0.0676
15118W        W28532  15.522   1.310  12.849  0.2844  0.3703 -0.4149
15119W        W28533  18.084   4.287  16.371 -0.2527  0.0523  0.0796
15120W        W28534   2.196   9.305  10.873 -0.0666 -0.1400 -0.2421
15121W        W28535   2.012   9.500   1.401  0.0414  0.1071 -0.1782
15122W        W28536   3.039   9.412   5.525  0.0276  0.0748 -0.2065
15123W        W28537  17.339  17.733   4.217 -0.2034 -0.0760  0.0760
15124W        W28538  12.663   1.602   4.411  0.0970  0.6080  0.2613
15125W        W28539   2.808   4.078  10.461  0.0970 -0.1417 -0.0790
15126W        W28540   3.745   9.418   4.673 -0.2656  0.0183  0.0455
15127W        W28541   9.251  16.109   2.655 -0.2578  0.4993  0.3440
15128W        W28542  12.337  10.009   1.845  0.2219  0.3787 -0.2401
15129W        W28543   8.633   3.510  12.975 -0.0175 -0.1580 -0.0754
15130W        W28544  14.164   4.291  15.921  0.4557 -0.1060 -0.2815
15131W        W28545  17.568   0.485   3.204  0.2584  0.1454  0.1997
15132W        W28546  12.644   4.293  16.406 -0.5182  0.0505 -0.0753
15133W        W28547   1.141   9.681   3.594  0.0184 -0.0210 -0.2045
15134W        W28548  16.804   6.470  14.895  0.2010 -0.0913  0.2304
15135W        W28549   7.610  15.023   3.282 -0.0828  0.1551  0.1192
15136W        W28550  14.796   8.354   0.376  0.0064 -0.2879 -0.2632
15137W        W28551  16.216   9.892   4.453  0.1501  0.3525 -0.2382
15138W        W28552   9.682  12.004   5.487 -0.0737 -0.0398 -0.0560
15139W        W28553   3.227   8.815  13.994  0.0115  0.4050 -0.0986
15140W        W28554  10.245  17.279   0.481  0.0600  0.1421  0.1274
15141W        W28555   3.829  15.212   0.193 -0.4762  0.1234  0.3382
15142W        W28556  15.253   3.340   5.157  0.0680 -0.1320 -0.0071
15143W        W28557  14.370   7.106   3.187 -0.0469 -0.1256 -0.0109
15144W        W28558   4.483  10.544  14.731 -0.0602 -0.1082 -0.0142
15145W        W28559   3.361  11.579  13.878  0.0803  0.0522 -0.3069
15146W        W28560  15.578  17.494  12.271 -0.1722  0.1757 -0.1236
15147W        W28561  13.943  13.973  12.880  0.4557 -0.3203  0.3532
15148W        W28562   4.428   1.360  16.393  0.0915  0.2902  0.1987
15149W        W28563   0.701  15.158  11.427  0.1725 -0.0598 -0.0825
15150W        W28564   1.875   1.007   4.155 -0.1211 -0.1854  0.2830
15151W        W28565   9.467   2.891   2.239  0.2695 -0.1333 -0.2482
15152W        W28566   2.460  12.808   3.130  0.1275  0.0290 -0.1484
15153W        W28567  11.355   6.332   0.197  0.1268 -0.1390 -0.0441
15154W        W28568   0.575   6.263  14.760  0.2250 -0.2364  0.3078
15155W        W28569  11.131  10.274  12.137 -0.0302  0.2778 -0.1269
15156W        W28570  11.535   9.393  10.688  0.1367 -0.4198  0.5077
15157W        W28571   3.360   0.580   3.190 -0.0927 -0.1668 -0.1017
15158W        W28572   4.229   4.372  12.471  0.0628 -0.1642  0.1054
15159W        W28573   1.483   3.921   3.457  0.0593  0.2221  0.1456
15160W        W28574   0.508  15.204   5.706 -0.3422  0.1321  0.0469
15161W        W28575  17.648  16.559  12.566 -0.1403  0.1695 -0.0253
15162W        W28576   1.478  14.667   1.957  0.3322 -0.3093  0.1473
15163W        W28577  11.365   3.684   1.905 -0.0644  0.0247 -0.1877
15164W        W28578  11.655  11.615  15.714 -0.0462  0.1747  0.3464
15165W        W28579  11.448   5.673   2.048  0.1524 -0.0838  0.1719
15166W        W28580   2.049  16.260   0.737  0.1250  0.2355 -0.1821
15167W        W28581   7.087  14.864  13.168  0.1703 -0.1443  0.1541
15168W        W28582   5.735  13.591   5.085 -0.0058 -0.1255 -0.0092
15169W        W28583   9.446   0.768   2.844  0.0135 -0.0487 -0.2322
15170W        W28584   6.261  16.073   5.289 -0.0331 -0.4233 -0.1090
15171W        W28585  12.198  14.406  15.992  0.2053 -0.0482 -0.2544
15172W        W28586   5.030   3.480  12.573 -0.0675  0.0395 -0.0785
15173W        W28587   3.124   3.465   0.008 -0.0716 -0.0375 -0.2164
15174W        W28588   4.379  14.109  11.857  0.1292  0.1814 -0.0736
15175W        W28589  17.217   8.634   1.029  0.4539 -0.0912  0.2263
15176W        W28590  18.155   7.255  11.082  0.0055  0.1237  0.1514
15177W        W28591   6.868   7.089  15.034  0.2489 -0.1894  0.1308
15178W        W28592   2.589   4.343   4.166 -0.1387 -0.0963  0.1425
15179W        W28593   5.065   1.712  13.476  0.1478 -0.0360 -0.0798
15180W        W28594   5.126   4.160   4.801 -0.0973  0.0291  0.3248
15181W        W28595   3.640  18.078   4.453  0.0978  0.1187  0.0299
15182W        W28596   9.205  16.950   1.069  0.0008 -0.0017  0.0933
15183W        W28597   7.924  14.426  16.142  0.3472 -0.2468  0.1073
15184W        W28598   6.756  15.379   9.926  0.1809  0.0453  0.1355
15185W        W28599   2.218   8.632  11.463  0.4630  0.2048  0.1990
15186W        W28600   6.878  10.131   5.732  0.4555 -0.0741  0.0427
15187W        W28601   1.277  16.060  15.194 -0.1027  0.3191  0.0639
15188W        W28602   5.183  17.462  15.676 -0.0747 -0.2070 -0.0845
15189W        W28603   8.464   7.074   2.934 -0.0351 -0.0563 -0.2195
15190W        W28604  12.817   8.978  15.643 -0.1751  0.0422 -0.0637
15191W        W28605  12.614   2.593   1.143 -0.0340  0.1099 -0.1105
15192W        W28606  12.986  10.040   9.529  0.0709 -0.0134  0.1499
15193W        W28607   6.856   2.040  12.242 -0.2337  0.1057  0.0223
15194W        W28608  14.548  17.641   5.358 -0.0897 -0.0827  0.3194
15195W        W28609   1.740  17.671  14.942 -0.0457  0.2841 -0.2944
15196W        W28610   9.245  14.002   5.696  0.0116 -0.1282 -0.2099
15197W        W28611   0.833  15.958  14.525  0.2073  0.0888 -0.0387
15198W        W28612   6.248   8.184   1.467 -0.0703 -0.0657  0.0277
15199W        W28613   8.829   7.634   5.281 -0.2134 -0.1389 -0.0902
15200W        W28614  14.412  13.542  14.208 -0.1939  0.1783 -0.0095
15201W        W28615   3.378  10.766  13.677  0.0334 -0.0010  0.1280
15202W        W28616  10.662  13.547  14.987 -0.0334  0.0751  0.1771
15203W        W28617   6.276   5.582   2.399  0.1377  0.0027 -0.0526
15204W        W28618  13.556  15.592   5.464  0.0924 -0.2062  0.2567
15205W        W28619  16.122  11.142  15.949 -0.2050  0.0702 -0.1494
15206W        W28620   6.915   2.974  15.391  0.0635 -0.1307 -0.3803
15207W        W28621   6.591  10.456  16.309  0.0906  0.2051 -0.0868
15208W        W28622  13.655   7.894   4.204  0.1442  0.0882 -0.1673
15209W        W28623   8.724   7.655  10.812  0.2286  0.1327 -0.0349
15210W        W28624  16.083   1.466  14.090 -0.0534 -0.1991  0.1676
15211W        W28625  15.873  17.798  16.320  0.1353 -0.0513 -0.2372
15212W        W28626   9.173   3.909  16.521 -0.0942  0.3289  0.2651
15213W        W28627  13.394   6.215  11.063  0.1506  0.1126 -0.1866
15214W        W28628  12.994   2.350   2.206 -0.1339  0.0712  0.1050
15215W        W28629  10.185   8.778   2.264  0.1286 -0.1401 -0.0075
15216W        W28630   5.573   5.640  13.289  0.3296  0.2734  0.2953
15217W        W28631  16.750   4.534   2.955 -0.1973  0.0296  0.2872
15218W        W28632  18.264  16.011  14.309 -0.0772  0.2122 -0.2938
15219W        W28633   5.233   8.174  15.540 -0.1582  0.0187  0.0487
15220W        W28634   5.828   8.421   4.889 -0.0620 -0.3399 -0.2325
15221W        W28635   9.606  10.330   3.946 -0.0509 -0.3772 -0.1734
15222W        W28636   0.834   7.891  12.397  0.2390  0.1751 -0.0303
15223W        W28637   1.642   5.773  15.394 -0.3743  0.2113 -0.1971
15224W        W28638   8.842  16.015   4.996 -0.2582  0.2138 -0.1016
15225W        W28639   5.845   0.710  13.138 -0.2155 -0.2619  0.2538
15226W        W28640  15.623  12.237   2.000 -0.1625  0.0358 -0.0581
15227W        W28641   3.025  14.687  13.555  0.0560  0.0852 -0.1369
15228W        W28642   4.448   6.115  14.717 -0.0234 -0.2509 -0.0245
15229W        W28643   9.577   4.515  12.684 -0.0036 -0.0704  0.0047
15230W        W28644   9.147  13.868  11.510 -0.1980  0.0290 -0.0183
15231W        W28645   4.091   8.815   6.135  0.0735  0.2219  0.0233
15232W        W28646   5.226  14.824   5.562 -0.0940  0.1518 -0.1176
15233W        W28647   1.223   8.586  15.377  0.0991 -0.1451  0.1388
15234W        W28648   4.427  12.968   3.049 -0.1167  0.0796 -0.0864
15235W        W28649  11.802   4.298  13.799 -0.0161 -0.0403  0.0557
15236W        W28650  11.669  16.981   2.177 -0.1300 -0.3354  0.1320
15237W        W28651   9.852   4.786  16.346  0.0420 -0.0512  0.2580
15238W        W28652   7.227  15.257  13.551  0.1014 -0.1497  0.0147
15239W        W28653   2.030   6.692   0.664  0.1710  0.0154 -0.0275
15240W        W28654  11.286   6.789  11.599 -0.1875 -0.0830 -0.0533
15241W        W28655  12.706   7.249   2.324  0.3132  0.0551  0.0558
15242W        W28656   8.847  13.660   3.590 -0.4917 -0.2967  0.2448
15243W        W28657  10.968   9.758   4.361 -0.0443 -0.0096 -0.0040
15244W        W28658  16.624  13.957  13.940 -0.1243 -0.0164  0.1461
15245W        W28659  14.450   1.818   0.083  0.0925  0.0426 -0.0983
15246W        W28660  17.374   2.230   0.059  0.0022 -0.1807 -0.0152
15247W        W28661  11.219   7.355  12.834 -0.1034  0.3890  0.1773
15248W        W28662   6.263   7.502  16.255 -0.1077 -0.0033 -0.0109
15249W        W28663  10.421   2.920  13.384 -0.0981  0.4378 -0.2730
15250W        W28664   9.915  10.540  12.294  0.4310 -0.1480  0.1484
15251W        W28665   4.729  14.307  16.252 -0.0623 -0.1868 -0.2229
15252W        W28666  13.533   1.573   1.670  0.1723 -0.1861 -0.1948
15253W        W28667   9.934   1.834  10.750  0.0941 -0.1384 -0.0535
15254W        W28668   2.691  14.271  16.245 -0.1338 -0.0298 -0.0811
15255W        W28669   2.163   2.474  11.127 -0.0261 -0.1357 -0.1181
15256W        W28670   0.546   2.526   2.142  0.0478 -0.0848  0.1170
15257W        W28671   3.339   6.821  14.285  0.0009  0.0904 -0.1949
15258W        W28672   4.786   9.745   3.654 -0.1844 -0.1774  0.0599
15259W        W28673   0.852   1.279  11.374 -0.1216 -0.1278  0.1764
15260W        W28674  16.501  10.396  11.859  0.4249 -0.1626  0.3518
15261W        W28675  12.512  13.213  15.224 -0.0828 -0.1322 -0.2062
15262W        W28676  12.471  16.850  12.901  0.3094 -0.4010  0.0865
15263W        W28677   9.004   3.180   2.354  0.1433  0.1896  0.0993
15264W        W28678   8.179  14.405  12.573 -0.0408 -0.0157 -0.0108
15265W        W28679  13.410  17.122   2.580  0.3017  0.0217 -0.2462
15266W        W28680  17.291   9.292  16.100  0.0234  0.0781  0.0615
15267W        W28681  15.523  14.371   3.028  0.1016 -0.0204  0.6019
15268W        W28682   1.827   9.110  10.542 -0.1384 -0.1013 -0.0916
15269W        W28683   1.321   3.317   1.429  0.0013  0.1939  0.0540
15270W        W28684   8.815   5.671  14.961 -0.1794 -0.1612  0.0066
15271W        W28685   5.191   0.548   5.602  0.2422  0.0745 -0.0149
15272W        W28686   8.173  12.501  14.087 -0.1210 -0.0153  0.2882
15273W        W28687   3.168   6.546   1.674  0.1029 -0.2867 -0.0649
15274W        W28688   1.693   8.012   2.483 -0.0976 -0.0716 -0.0049
15275W        W28689   8.149   9.695   3.651  0.1277 -0.1867  0.1320
15276W        W28690  14.705   4.532   5.006 -0.1972 -0.3683 -0.0559
15277W        W28691   2.913   6.421  14.070  0.0063 -0.1890  0.0686
15278W        W28692   8.240   7.206  13.374  0.0765 -0.2561 -0.2710
15279W        W28693  16.953   9.512   0.358  0.1049  0.2425  0.0373
15280W        W28694   0.577  15.176   0.099  0.0351  0.1209  0.0394
15281W        W28695   0.078   6.421  16.554  0.0220  0.2904 -0.1757
15282W        W28696  16.893   5.336   0.837  0.2438 -0.0326 -0.2175
15283W        W28697   6.331   6.836   4.421 -0.1645  0.2505 -0.3700
15284W        W28698  13.718  15.294  11.815 -0.1660 -0.0778  0.1792
15285W        W28699  13.741  13.200   1.110  0.2232 -0.1478  0.1328
15286W        W28700  17.914   5.368   0.469 -0.1352 -0.1151  0.1598
15287W        W28701   4.533  12.541   3.818 -0.0677  0.4533 -0.0394
15288W        W28702   5.633  10.998  16.014  0.0063  0.1089  0.0153
15289W        W28703   7.909  14.387   6.369 -0.0360 -0.2040  0.1530
15290W        W28704  12.988  10.391   4.431  0.0481 -0.3298 -0.3106
15291W        W28705   4.803   6.491   2.350 -0.1867 -0.1705  0.1646
15292W        W28706   5.054  15.450   4.041 -0.3201 -0.2094 -0.2541
15293W        W28707   3.521   1.102  16.254  0.0965 -0.3462  0.1680
15294W        W28708  14.809   4.433   2.900 -0.0102 -0.3506 -0.1679
15295W        W28709   7.817  10.987   1.196 -0.2567 -0.0570 -0.0013
15296W        W28710   5.374  16.837   2.586 -0.1308 -0.3140  0.1543
15297W        W28711  12.251   7.914  14.294 -0.1632  0.0098  0.0724
15298W        W28712  18.047   4.139  10.431  0.1594  0.2222  0.1343
15299W        W28713  16.030  10.474   3.737  0.1050  0.0912 -0.0666
15300W        W28714   2.360  14.806   5.664 -0.0200  0.1165 -0.1571
15301W        W28715   9.680   9.451  16.431 -0.3273  0.0549  0.0454
15302W        W28716   0.901  18.279  16.087  0.2698 -0.1745  0.0352
15303W        W28717  13.185   2.846   1.777 -0.0282 -0.2192 -0.6770
15304W        W28718   5.373  13.021   3.925 -0.0007  0.1659  0.2272
15305W        W28719   8.385  16.319  14.186  0.1943  0.2165 -0.0931
15306W        W28720  11.965   3.478  11.543  0.2003  0.3117  0.0175
15307W        W28721   6.399  11.096   2.241  0.0070 -0.1965  0.4150
15308W        W28722   4.942   8.931  12.467  0.1828 -0.0413  0.1786
15309W        W28723  13.897   3.756  12.790 -0.2214 -0.1784  0.2283
15310W        W28724   2.495   3.814  15.027 -0.3642  0.0514  0.1323
15311W        W28725  16.362  13.796  14.761  0.2652  0.0731 -0.1556
15312W        W28726  15.947   2.593   2.201  0.1873  0.1982 -0.0690
15313W        W28727   4.187  15.240   4.163  0.0876 -0.0309 -0.0971
15314W        W28728   9.436  15.136  14.169  0.3078  0.1231 -0.0641
15315W        W28729   6.650  11.341  12.812  0.3483  0.1145  0.0364
15316W        W28730   5.731   9.861  13.557  0.2314  0.0221  0.0537
15317W        W28731   9.605   7.685  14.598  0.0366 -0.2477 -0.2480
15318W        W28732  17.863  17.488   2.088  0.3439  0.0362 -0.4789
15319W        W28733   3.615  17.367   4.086 -0.0028 -0.0390  0.1429
15320W        W28734   3.339   4.862  10.905 -0.0648  0.1206 -0.4147
15321W        W28735   9.195   0.127  12.660 -0.2992 -0.1029  0.0206
15322W        W28736   6.647  13.282   0.032  0.1722 -0.2492  0.0456
15323W        W28737   3.850  10.889   6.664  0.2185  0.1159 -0.1308
15324W        W28738   4.830  15.448  13.143  0.1331  0.0415  0.0689
15325W        W28739   6.408   1.515   2.734 -0.0067 -0.1711  0.0638
15326W        W28740   7.097   2.103  11.210 -0.0621 -0.0017 -0.0681
15327W        W28741  11.967   5.606  15.140  0.0505  0.1964  0.1084
15328W        W28742   5.001  13.406   1.942 -0.0782  0.0048 -0.0122
15329W        W28743  13.122  15.713   4.163 -0.2159 -0.1812 -0.3158
15330W        W28744   1.905   9.719   3.341 -0.0469  0.2722 -0.3427
15331W        W28745  17.173  10.868  16.477  0.2081 -0.4061 -0.1577
15332W        W28746   8.866  12.622  12.770  0.0697  0.0650  0.0083
15333W        W28747   5.133  10.703   0.842  0.0407 -0.0911 -0.2772
15334W        W28748   4.580   9.065  13.533  0.0553  0.1981  0.2478
15335W        W28749  13.455   4.867  12.373  0.2433 -0.0720 -0.0584
15336W        W28750   5.626  17.747   3.931  0.1070  0.0076 -0.3250
15337W        W28751  10.624   2.384   3.069 -0.1443  0.2989 -0.0462
15338W        W28752  17.039  15.984   1.446 -0.4179  0.0496  0.2173
15339W        W28753  14.696   8.335  15.928  0.1669  0.3019 -0.2000
15340W        W28754   4.957   3.319  11.576 -0.3314 -0.0620 -0.2036
15341W        W28755   5.595  15.753  10.735 -0.0252 -0.1068  0.0193
15342W        W28756   2.299   0.012   0.107 -0.0453  0.1278  0.2003
15343W        W28757  17.825   1.820   4.667 -0.1207 -0.1746 -0.0469
15344W        W28758  13.497   1.340  13.481 -0.1295  0.0959  0.0397
15345W        W28759   7.165   2.874  14.909 -0.4100 -0.0246  0.1372
15346W        W28760   3.915   7.285  14.894 -0.2233 -0.0939  0.0817
15347W        W28761   7.538  13.395   4.226 -0.1377 -0.2273 -0.0857
15348W        W28762  13.269   4.385  14.169  0.0917 -0.0731  0.0619
15349W        W28763  14.519  11.766   0.172 -0.2083  0.0875  0.1063
15350W        W28764  12.107   4.723  13.588  0.1520 -0.0191  0.0208
15351W        W28765  11.310  15.921  11.559 -0.1918 -0.0812 -0.1021
15352W        W28766   0.887   8.668   3.346  0.0585 -0.1105  0.0745
15353W        W28767  11.756   2.555  11.315 -0.0184 -0.2335  0.3146
15354W        W28768  11.470  14.443  13.724 -0.1079  0.1073  0.0610
15355W        W28769   2.509  13.156  11.523 -0.2639  0.3605  0.2153
15356W        W28770   6.881  11.631   5.209  0.0773 -0.1779  0.0836
15357W        W28771   6.433  14.543   4.131 -0.1462  0.2079  0.0376
15358W        W28772  10.688   9.359   2.215  0.0730  0.1080  0.0042
15359W        W28773   9.329   5.537   0.007  0.0283 -0.0075  0.1190
15360W        W28774  14.053   2.824   3.492  0.0382  0.1957 -0.3098
15361W        W28775  16.308  11.608  11.843  0.3852 -0.0955 -0.1305
15362W        W28776   8.671  11.501   0.232 -0.0424  0.0797  0.3125
15363W        W28777  11.273   1.955  11.461 -0.1856  0.0181 -0.3884
15364W        W28778  10.056  14.811   2.834 -0.3530 -0.1474  0.1098
15365W        W28779   8.460   4.663  14.741 -0.1823  0.2195  0.0073
15366W        W28780  11.222   1.341   2.727 -0.0047  0.1882  0.1352
15367W        W28781   1.462   1.451  10.618 -0.1943  0.3783  0.2292
15368W        W28782  15.577   0.661  11.568 -0.1333 -0.2456  0.1113
15369W        W28783   6.870  17.691  12.598  0.0013  0.0306 -0.2880
15370W        W28784   2.636  11.794   0.861  0.0044 -0.0488 -0.2848
15371W        W28785  16.803   1.369   3.309 -0.3283  0.3368 -0.1290
15372W        W28786  11.763  12.287   1.564  0.0897  0.1659  0.0561
15373W        W28787  11.227  16.782   4.105 -0.3118 -0.2261 -0.2977
15374W        W28788   2.822  17.093  14.434  0.2207 -0.0001  0.4458
15375W        W28789  12.754   2.961   2.023 -0.0343 -0.3120 -0.4291
15376W        W28790  12.207   7.156  15.268 -0.0840 -0.1394 -0.0402
15377W        W28791  14.771   3.819  15.047 -0.3063  0.0578 -0.2395
15378W        W28792  13.594  10.899  14.855  0.0154  0.0908 -0.2042
15379W        W28793  13.435   8.360   2.240 -0.3180 -0.0774 -0.0118
15380W        W28794   0.430   0.093   4.782  0.1093 -0.1125 -0.4026
15381W        W28795  12.362   4.969  15.731 -0.1277  0.3155  0.2196
15382W        W28796   1.000   5.830  10.421 -0.0634  0.0132  0.1075
15383W        W28797  15.668  16.379  10.864  0.2306  0.1432  0.0892
15384W        W28798   4.395  16.187   5.724  0.0712  0.1136 -0.1414
15385W        W28799   3.901  15.416  14.004 -0.0535 -0.1144  0.2577
15386W        W28800   2.581  10.933   1.054  0.5197  0.1088  0.2404
15387W        W28801  15.303   9.216  12.933  0.0488 -0.0792  0.1520
15388W        W28802   4.909   3.218   5.413 -0.2466 -0.0278  0.0273
15389W        W28803  12.141   1.299   2.645  0.1702 -0.1407 -0.2633
15390W        W28804  16.935   4.600   4.673  0.1969 -0.1696 -0.0282
15391W        W28805   9.508   9.425  11.658  0.0211  0.0563  0.3520
15392W        W28806   3.679   2.254   0.493 -0.0359 -0.1321 -0.1441
15393W        W28807  11.018  13.729   0.428 -0.0844  0.2595 -0.2330
15394W        W28808   8.737  12.196   5.497 -0.0172  0.3153  0.2879
15395W        W28809  14.228   8.740   5.007  0.3326  0.1237 -0.0960
15396W        W28810   8.110   9.028  13.707 -0.2021 -0.2229  0.0115
15397W        W28811   0.480  13.949  12.262  0.1038  0.2968 -0.3629
15398W        W28812  17.911   8.644   2.970  0.0822 -0.2943 -0.1370
15399W        W28813   4.635   0.120  11.090  0.1562 -0.2229 -0.0783
15400W        W28814   1.886  10.192   0.687 -0.0864  0.2411 -0.0454
15401W        W28815  15.715   7.084  13.104  0.1338 -0.2596  0.1728
15402W        W28816   6.313  12.760  12.596 -0.2510 -0.0671  0.0135
15403W        W28817  17.494  14.157   3.938  0.0322  0.0565  0.2485
15404W        W28818   7.934   4.598  10.423  0.0454  0.0741  0.1209
15405W        W28819   8.178  13.939  12.704  0.1466 -0.1002  0.0176
15406W        W28820   6.345   3.069   5.448  0.1234  0.2520 -0.2274
15407W        W28821   0.101  16.270  15.419  0.0554  0.2578  0.0989
15408W        W28822   3.370  12.323   0.952  0.0471 -0.3172 -0.1686
15409W        W28823  13.759  16.307   2.375  0.0022  0.0731  0.2155
15410W        W28824  10.431   3.171  11.596 -0.0789 -0.0895 -0.0437
15411W        W28825  13.385   2.472  13.295 -0.1679 -0.2202 -0.0433
15412W        W28826   7.730   2.891  11.605 -0.0491 -0.2170  0.3281
15413W        W28827  15.894  14.044   1.361 -0.0965  0.3693  0.4167
15414W        W28828   4.731   6.842  12.542  0.1333 -0.0189 -0.0210
15415W        W28829   8.745   4.845   2.108  0.0033  0.1534  0.0440
15416W        W28830   8.117  14.104   2.399  0.0023 -0.0168  0.0733
15417W        W28831  16.572  13.616   2.578  0.0068  0.1915  0.1971
15418W        W28832  13.758   0.163  15.887  0.2449 -0.1412  0.2265
15419W        W28833  12.976   9.412   3.731 -0.3062  0.3779 -0.0638
15420W        W28834   2.649  17.126   4.606  0.2988 -0.1172 -0.2290
15421W        W28835  17.187   8.316  14.093 -0.2004  0.0355 -0.1725
15422W        W28836   6.697   8.538   3.209 -0.0283  0.0463  0.0312
15423W        W28837   7.443   0.355   5.247 -0.2239  0.2070 -0.2821
15424W        W28838   5.720  13.535  12.301 -0.0065  0.1383 -0.0626
15425W        W28839   9.477  13.892  14.270  0.1870 -0.2951 -0.3099
15426W        W28840  13.687   4.977  12.855 -0.0594  0.1512  0.1318
15427W        W28841  18.198   0.087  14.826  0.0863 -0.0525  0.1742
15428W        W28842   3.660   1.509   1.425  0.1733 -0.0786  0.0531
15429W        W28843  11.166  16.510   2.544  0.0040  0.0048 -0.0679
15430W        W28844   5.830   8.127  11.272  0.2367  0.0219  0.0106
15431W        W28845   0.620   2.634   5.240  0.0714  0.2802  0.2431
15432W        W28846  10.064   3.955   0.806 -0.0222  0.4195  0.0330
15433W        W28847  18.149  15.800   5.783 -0.1261  0.0930 -0.0747
15434W        W28848   5.141  17.689  10.857  0.0420 -0.2097  0.3532
15435W        W28849  15.434   2.202  14.546 -0.0354  0.1762 -0.0849
15436W        W28850   9.057   1.717   3.963  0.1153 -0.1715  0.1521
15437W        W28851  18.121   2.209  13.894 -0.0138  0.1159  0.2949
15438W        W28852  12.516  18.216  13.487 -0.1990 -0.2876  0.4237
15439W        W28853  11.747   7.469  12.082  0.3154  0.0432 -0.0912
15440W        W28854   8.409  15.485  16.464  0.0523  0.0462 -0.0599
15441W        W28855  11.937  11.774   1.763  0.1222 -0.1128 -0.1626
15442W        W28856   8.801   7.718  12.862 -0.0232  0.0118 -0.0459
15443W        W28857  10.283   3.098  15.089 -0.3322 -0.2504 -0.1374
15444W        W28858  16.326   3.801  10.506  0.0103  0.1019  0.1092
15445W        W28859  14.137   1.845  12.758 -0.1718 -0.3002 -0.1924
15446W        W28860   6.425   6.064  16.497  0.1218  0.0372 -0.2833
15447W        W28861  16.794  10.483  16.286 -0.1284  0.1299 -0.0955
15448W        W28862   8.320  17.263  11.234 -0.2224 -0.0684 -0.1260
15449W        W28863  17.352  17.409   5.741 -0.0510  0.1217 -0.2391
15450W        W28864  11.440  18.124  12.770 -0.1200  0.1798 -0.1172
15451W        W28865   7.266   6.525  15.599 -0.1838 -0.2715  0.0344
15452W        W28866   1.770  11.661   2.917  0.0130 -0.0146 -0.2184
15453W        W28867   7.797   7.766  16.258  0.1049  0.2841  0.0836
15454W        W28868  13.580   3.924  10.585  0.1305 -0.0912 -0.3412
15455W        W28869   0.169   3.722  14.664  0.0390 -0.0369  0.2250
15456W        W28870   3.780  14.734  14.546  0.0670  0.0368 -0.2211
15457W        W28871   4.544   8.037   3.761  0.1351 -0.3715 -0.0833
15458W        W28872   2.355   1.527  16.440  0.1532 -0.0173  0.0210
15459W        W28873  13.693  12.347  10.969  0.0699  0.1904  0.2559
15460W        W28874   4.679   8.342  14.147  0.1191  0.0341 -0.1973
15461W        W28875   2.632  17.099   2.087  0.1322 -0.3262  0.0660
15462W        W28876   6.154  18.157   5.117 -0.1608 -0.2181  0.1406
15463W        W28877   3.117   6.524  11.145 -0.3986 -0.4521  0.1906
15464W        W28878  16.169   5.763  13.354  0.2842 -0.0772  0.0351
15465W        W28879   9.105  17.190  11.936 -0.2249  0.1362 -0.1019
15466W        W28880  14.119  13.348   6.063  0.2154  0.0151  0.0583
15467W        W28881  13.845  10.018   0.607  0.0371  0.1227  0.3658
15468W        W28882  13.212   0.690   2.013  0.2821 -0.1963 -0.3341
15469W        W28883   4.424   0.636  11.474  0.4348  0.0069 -0.0683
15470W        W28884   6.705   3.834  11.952  0.2278  0.2828 -0.1115
15471W        W28885   3.004   6.688   0.771  0.2827 -0.1168 -0.1309
15472W        W28886  11.278   3.708  15.292  0.2529 -0.2489  0.1976
15473W        W28887   5.071  10.134   1.199 -0.5254  0.0410 -0.1843
15474W        W28888  18.181  10.200  10.368 -0.1983  0.1135 -0.0181
15475W        W28889   8.974  15.205   6.494 -0.1437 -0.0607 -0.4066
15476W        W28890  12.639  12.360  13.425  0.2786 -0.1504  0.1080
15477W        W28891  10.364   0.588   4.680  0.1733  0.5430  0.1341
15478W        W28892   4.354   4.626  15.603 -0.0504 -0.0289 -0.5228
15479W        W28893  16.033   3.233   3.011 -0.0514 -0.2179 -0.0725
15480W        W28894  11.650   6.722   5.024 -0.1386 -0.3308 -0.0618
15481W        W28895   3.992  10.268   0.431  0.0688  0.4263  0.0074
15482W        W28896   3.551   1.750  14.643  0.0503 -0.4087  0.2584
15483W        W28897  12.372   9.299  11.871  0.2009  0.0139  0.1659
15484W        W28898  11.599   4.059   2.170  0.0770 -0.2191  0.1404
15485W        W28899  15.840  15.081  11.786  0.1345  0.2177 -0.2093
15486W        W28900   0.546   5.604   3.778 -0.0465  0.3370 -0.1993
15487W        W28901   9.933  16.388   4.312  0.1487 -0.1559  0.0606
15488W        W28902   8.989   2.476  16.219 -0.4834 -0.2470  0.2461
15489W        W28903  10.952  15.695   0.198 -0.2162 -0.0896  0.2605
15490W        W28904   6.254  15.615  15.092 -0.1029 -0.4433 -0.0213
15491W        W28905   3.413  12.064   5.580  0.1845 -0.0804  0.1731
15492W        W28906   1.148  17.327  14.056 -0.2535 -0.1455  0.3665
15493W        W28907  17.685   1.315   6.413  0.1371 -0.1563 -0.2149
15494W        W28908  14.825   4.417  13.627 -0.0095 -0.1350  0.1314
15495W        W28909   0.745   0.179   4.411  0.0431 -0.0324 -0.0764
15496W        W28910  17.737  10.293  13.284  0.2468 -0.0328 -0.1638
15497W        W28911   9.458   6.166  15.946  0.0902  0.1584  0.0926
15498W        W28912   8.775   4.942   5.692  0.3090 -0.0264  0.0101
15499W        W28913  17.614   3.615  11.752 -0.0684 -0.0085  0.1163
15500W        W28914   7.236   8.153   5.408  0.0465  0.0062  0.0967
15501W        W28915   9.676  12.455  11.862 -0.0662  0.0087 -0.1526
15502W        W28916  17.106   2.580  13.911  0.1388  0.1246 -0.3393
15503W        W28917   8.279   7.326   1.622  0.1243  0.2744  0.1143
15504W        W28918  16.202   4.119   3.475  0.1108 -0.0682  0.1869
15505W        W28919  14.307  12.954   6.789 -0.0463 -0.0444 -0.1752
15506W        W28920  16.441  10.309   1.353 -0.1857  0.1049  0.2231
15507W        W28921   3.648  10.757   4.021  0.3527  0.0855 -0.0578
15508W        W28922   7.068  16.647   4.599 -0.0015 -0.1581 -0.1668
15509W        W28923   3.818   4.272   5.531 -0.2259  0.0832 -0.0881
15510W        W28924   5.774  11.608   3.695 -0.1521 -0.2683  0.1057
15511W        W28925   8.793  16.157  13.172 -0.0386 -0.0103  0.0026
15512W        W28926   1.724   9.049  15.988  0.1935 -0.1638 -0.3169
15513W        W28927  14.067  11.821   1.425 -0.1045  0.3307 -0.2411
15514W        W28928   9.857   9.014  13.319  0.0122 -0.0766 -0.1621
15515W        W28929   0.963  10.452   5.180  0.0264 -0.1074 -0.0361
15516W        W28930  17.180  10.569   3.430 -0.2995  0.0968 -0.2324
15517W        W28931  14.649  17.055  12.456  0.0294  0.0785  0.1181
15518W        W28932   5.078  17.485   1.426 -0.2333  0.0028  0.0077
15519W        W28933   7.810  17.750  14.198 -0.0195 -0.4696  0.2415
15520W        W28934  14.388  18.251  10.222 -0.2366 -0.0731  0.4115
15521W        W28935   4.927  15.669  14.738 -0.2462  0.2078 -0.2218
15522W        W28936  13.628   0.069  15.325 -0.1628 -0.1211  0.0983
15523W        W28937  11.535  10.528  11.942  0.1649 -0.3020 -0.0453
15524W        W28938   5.832   4.659   3.900  0.0457  0.1617 -0.2478
15525W        W28939  13.618   2.012  15.601 -0.2819 -0.2163 -0.1249
15526W        W28940   2.338   7.056   1.946  0.1533  0.1270  0.0956
15527W        W28941   5.378   8.310   2.650  0.0076 -0.1287  0.3009
15528W        W28942   5.153  14.239  11.381  0.1352 -0.3407 -0.0585
15529W        W28943   9.519   6.067   3.789 -0.1864 -0.0515  0.0128
15530W        W28944  16.839   6.372  12.461  0.0365  0.2041 -0.2916
15531W        W28945  10.292  17.662  13.352 -0.1661 -0.0548 -0.2531
15532W        W28946  11.414   4.176  11.795  0.2683 -0.1843  0.1013
15533W        W28947   2.086  15.631   5.808 -0.1731  0.0805  0.1688
15534W        W28948   5.726   3.778   3.140 -0.0382 -0.0299 -0.2346
15535W        W28949  14.020  12.868   5.939 -0.2226  0.0233 -0.1445
15536W        W28950  13.354  18.164   3.007 -0.1526 -0.0349  0.0517
15537W        W28951   1.023  17.512   2.784  0.0460  0.0520 -0.0143
15538W        W28952  18.257   0.403   4.710 -0.0209 -0.6113  0.1464
15539W        W28953  12.867   3.532  13.859 -0.0951  0.1471  0.1566
15540W        W28954   8.240   5.220   4.011  0.0564 -0.1161  0.0840
15541W        W28955  10.477  13.758   5.827  0.0549  0.2536 -0.3631
15542W        W28956  14.951   5.766   5.021  0.1424  0.0471  0.1348
15543W        W28957   2.821   7.333   1.949  0.2496 -0.0674  0.0512
15544W        W28958   2.472  11.257   0.159  0.1654  0.2217  0.0736
15545W        W28959   3.423   7.559   1.025  0.3435  0.0176 -0.1090
15546W        W28960   3.513   9.853   4.353  0.0894 -0.1005 -0.1397
15547W        W28961  11.188  11.615  15.494 -0.1461  0.0265  0.2138
15548W        W28962  15.567   6.274  11.720 -0.1067 -0.3424 -0.1748
15549W        W28963   5.060   7.071   2.268 -0.3113 -0.3003 -0.2227
15550W        W28964  10.439  15.037  11.001 -0.1517  0.0451 -0.0726
15551W        W28965   2.292   8.824   5.142  0.0020  0.1392  0.2890
15552W        W28966   7.798   7.525   5.731 -0.3867  0.1167 -0.0945
15553W        W28967   4.008   9.560   5.520  0.0095 -0.2109 -0.1435
15554W        W28968   0.948  10.426  13.010  0.1122  0.0387  0.0344
15555W        W28969   6.365  13.806  11.935 -0.2249  0.0713  0.0808
15556W        W28970   9.157  14.588   2.931 -0.0975  0.0897 -0.2922
15557W        W28971  11.182   4.980  11.583  0.3922 -0.1267  0.1868
15558W        W28972  18.135   7.490  15.141 -0.1960  0.0076  0.2322
15559W        W28973   3.109  14.929  11.644 -0.1344 -0.1491 -0.1943
15560W        W28974   5.390   4.536  11.567 -0.0437 -0.0965  0.2554
15561W        W28975   6.734  15.270   3.529  0.0591  0.3921 -0.5280
15562W        W28976   6.308   7.853   5.396 -0.0573 -0.1634  0.0045
15563W        W28977   9.260   3.106  13.540  0.0598  0.1035  0.1980
15564W        W28978  12.267  16.791   3.581  0.1590 -0.1243 -0.0035
15565W        W28979   3.101  11.634   4.920 -0.2389 -0.2892 -0.0436
15566W        W28980  10.643  17.864  12.206 -0.0126 -0.2103  0.1253
15567W        W28981   4.602   4.555  11.824  0.0569  0.2655 -0.3246
15568W        W28982  12.984  12.184   1.345 -0.1653 -0.1041  0.3313
15569W        W28983   2.625   9.377   2.237  0.3183 -0.1578 -0.0230
15570W        W28984   2.123  12.819  14.167 -0.1467 -0.1102  0.2277
15571W        W28985   2.842   8.411   3.307  0.1251 -0.1785 -0.0388
15572W        W28986   1.943   7.252  14.594  0.3564  0.0882  0.0093
15573W        W28987   5.196  16.897  11.445 -0.2162  0.1994  0.0439
15574W        W28988   4.533   9.590  11.813 -0.0992  0.2996 -0.0957
15575W        W28989  16.950   9.327   2.250 -0.0464 -0.2359 -0.1666
15576W        W28990  16.703  15.134   3.424  0.1441 -0.0026  0.4649
15577W        W28991   0.135  17.596  14.050  0.0331 -0.1395 -0.0315
15578W        W28992   5.156  12.579   1.793  0.2117 -0.0783  0.2397
15579W        W28993   9.344  16.627  12.611 -0.5092 -0.4160 -0.0410
15580W        W28994   7.210   6.642  13.775 -0.0780  0.2955 -0.1633
15581W        W28995   5.444  16.454  11.495  0.1667  0.0316  0.1267
15582W        W28996   5.364   2.238   1.565  0.0282  0.3157 -0.2131
15583W        W28997   7.373   4.076  12.815  0.0855  0.0173 -0.0479
15584W        W28998  16.027  11.736  12.418 -0.3603 -0.1844 -0.2933
15585W        W28999  14.258   5.008   1.500  0.0715  0.0210  0.2975
15586W        W29000   0.479   5.375   3.312 -0.0793  0.0333  0.0930
15587W        W29001  16.958  11.865  14.171  0.1454  0.0575  0.2312
15588W        W29002   9.437   4.557  14.350 -0.0114  0.0156  0.0006
15589W        W29003   5.178  13.725  10.527  0.2492 -0.1670 -0.0763
15590W        W29004  15.158   4.521   1.448 -0.1211 -0.2137 -0.1964
15591W        W29005   6.690   5.803  15.332 -0.1456  0.0942  0.0170
15592W        W29006  10.968   3.693   1.039  0.2264  0.0613 -0.3949
15593W        W29007  14.549   5.691  10.803  0.1159 -0.1227 -0.2001
15594W        W29008   3.677   0.917  13.108  0.1832  0.0468 -0.0459
15595W        W29009  10.396  10.462  14.248 -0.4904 -0.3985 -0.0221
15596W        W29010  17.078  16.235  16.286  0.1313  0.1757 -0.0412
15597W        W29011   9.158  10.708   3.312 -0.0976 -0.0748 -0.1538
15598W        W29012  14.342   8.678  11.550  0.2226  0.0127  0.0825
15599W        W29013   4.090   3.295   3.811 -0.2439  0.1062  0.2260
15600W        W29014   8.581  10.689   0.250 -0.0333  0.1646 -0.2408
15601W        W29015  10.322  10.355  12.691 -0.2347  0.0482  0.0237
15602W        W29016   5.078  11.077  15.158 -0.2528  0.0809 -0.2197
15603W        W29017  11.120  11.859   2.683  0.0252  0.0662  0.4456
15604W        W29018   8.583   8.462  12.888 -0.0750 -0.2134  0.1682
15605W        W29019   3.489  10.504  12.265  0.0418  0.4071 -0.0648
15606W        W29020  12.212  10.203  11.894 -0.0130  0.2212 -0.3547
15607W        W29021  10.895   1.586  15.440  0.0333 -0.3164  0.0791
15608W        W29022  10.929   5.897  15.998  0.2950 -0.1315 -0.0519
15609W        W29023   3.578   7.019  12.023  0.1929  0.1235  0.0896
15610W        W29024  10.795   0.702   1.354  0.0658  0.0363  0.0290
15611W        W29025  17.897   8.870  14.131  0.0612 -0.2098 -0.0446
15612W        W29026   3.549  14.347   1.167  0.1134  0.0730 -0.0245
15613W        W29027  18.277  17.694  12.786  0.0159 -0.0963  0.0268
15614W        W29028  13.836  13.715   5.897  0.1476 -0.0829 -0.1913
15615W        W29029   4.049   7.171  12.112 -0.0976  0.3229  0.2486
15616W        W29030   9.464   5.129  14.600  0.1905  0.2980  0.0074
15617W        W29031   1.281   6.647  14.918 -0.2139 -0.0134  0.1833
15618W        W29032   8.568  13.675  14.786  0.1109 -0.3507 -0.0072
15619W        W29033  18.201  14.647  11.683  0.1894  0.1513 -0.0474
15620W        W29034   7.179   5.788  16.381 -0.0247 -0.0584 -0.3092
15621W        W29035  12.260   4.027   3.974  0.1867 -0.0328  0.3611
15622W        W29036  17.572  17.204   4.113  0.1645  0.2106 -0.1865
15623W        W29037   5.678  13.103   0.142 -0.0220 -0.0398 -0.0150
15624W        W29038   3.921  13.902  11.657  0.0657 -0.1877  0.0458
15625W        W29039   0.301   9.531   4.890  0.0039  0.0662 -0.0939
15626W        W29040  16.749  10.684   1.446  0.2596 -0.3612 -0.0342
15627W        W29041  12.028  13.649   5.493  0.4484 -0.2733  0.0566
15628W        W29042  11.105  10.573   0.743  0.1340 -0.1895 -0.2437
15629W        W29043  16.725   1.260   1.039  0.1375 -0.1789  0.0511
15630W        W29044   5.299  15.294  11.975  0.2167  0.1622  0.0439
15631W        W29045   1.827   6.273   4.763 -0.2609 -0.2655  0.0836
15632W        W29046  11.801   7.081  13.066  0.1994 -0.1355 -0.1710
15633W        W29047  11.234   1.976  12.900 -0.0145 -0.0199 -0.3178
15634W        W29048   9.528   9.789   3.880 -0.0036 -0.0074  0.0654
15635W        W29049   1.216  13.758  16.456 -0.2069 -0.0428  0.0804
15636W        W29050   2.512  10.935   4.785  0.2290  0.1740  0.1523
15637W        W29051  18.184   5.846   0.659  0.0540  0.0079 -0.0584
15638W        W29052   6.903   0.902   4.575  0.4698  0.0473 -0.0047
15639W        W29053   5.368   3.673  15.793 -0.0857  0.0895  0.2782
15640W        W29054  14.198  16.750  10.612  0.0081 -0.2890  0.5020
15641W        W29055  14.323  16.812  12.093 -0.2144 -0.1603 -0.0280
15642W        W29056   8.093   1.264  14.915 -0.2563 -0.0124  0.1379
15643W        W29057  16.731  11.912  13.234  0.3817 -0.3521  0.0427
15644W        W29058   5.158  17.140  13.304  0.0650  0.0035 -0.0582
15645W        W29059  14.565   6.394  15.434 -0.2465 -0.1789  0.1440
15646W        W29060  14.164   7.010   5.465 -0.3902 -0.0586 -0.0475
15647W        W29061  11.343   0.474  15.922 -0.0439 -0.0775  0.4447
15648W        W29062  17.699  11.091   1.729 -0.1348  0.0071  0.1261
15649W        W29063   7.294   5.389  13.228  0.3841  0.2606 -0.0010
15650W        W29064   7.067   1.750   5.009  0.3042 -0.1206  0.1603
15651W        W29065   7.945   5.969  13.088  0.0444  0.0094 -0.0023
15652W        W29066   5.560   9.755  14.071 -0.0423 -0.0640  0.0569
15653W        W29067   4.854   4.852   3.830  0.1963  0.0288  0.1522
15654W        W29068   3.611   9.342   1.402 -0.0737  0.1433  0.1204
15655W        W29069   2.132   0.247  15.158  0.1269  0.2014 -0.1236
15656W        W29070  13.249  13.608  11.455 -0.1506  0.0820  0.1119
15657W        W29071   3.309   2.469  11.926  0.1707  0.1064 -0.0250
15658W        W29072   5.030   6.638  12.957 -0.2173  0.2289 -0.0742
15659W        W29073   1.411   6.989  13.377  0.0772 -0.0272  0.3062
15660W        W29074   3.287  17.156  14.599  0.2879 -0.2285 -0.3547
15661W        W29075  17.025   7.206   1.618 -0.1365 -0.2777  0.2783
15662W        W29076   0.121   9.116  11.264  0.0665 -0.2166 -0.1471
15663W        W29077  14.189   4.089  12.993 -0.0584 -0.0211 -0.0707
15664W        W29078  11.485   4.295   2.615  0.2090  0.1191 -0.1361
15665W        W29079   7.613  15.631  12.885  0.0999 -0.1399  0.1465
15666W        W29080  17.009   5.725  13.805 -0.1987  0.1597  0.0789
15667W        W29081  16.064   4.281   1.993 -0.0093 -0.0054 -0.0060
15668W        W29082   8.017   3.814  14.872 -0.0216 -0.1317  0.0175
15669W        W29083   7.209   9.736   5.840 -0.0437 -0.0626  0.0341
15670W        W29084   3.416  15.355   5.608  0.1701 -0.0285 -0.1454
15671W        W29085  17.097  14.440   2.589 -0.0099 -0.1334 -0.4573
15672W        W29086   8.791  14.947  15.873  0.0551 -0.0904 -0.2854
15673W        W29087   0.446   3.677   2.909 -0.2119  0.1595  0.1455
15674W        W29088  18.209   6.478   1.214  0.6127  0.0619  0.1586
15675W        W29089   8.663  18.066   3.432 -0.1243  0.2443 -0.0097
15676W        W29090   4.997  15.239  14.937  0.0155 -0.1360 -0.0109
15677W        W29091   2.046   0.488  16.183  0.2404  0.1431  0.1909
15678W        W29092  10.851  15.699   4.722 -0.3340 -0.0377  0.1433
15679W        W29093  17.255   3.554  12.166 -0.2319 -0.2056 -0.2216
15680W        W29094  12.458  11.596  14.670 -0.0337  0.1364 -0.0583
15681W        W29095  13.703   2.490  11.586 -0.0548  0.0274 -0.1716
15682W        W29096  18.202   6.964   1.725 -0.0475 -0.0368 -0.2409
15683W        W29097   7.442   3.072   5.334  0.1822 -0.0116  0.1748
15684W        W29098  17.970   9.080   1.638 -0.1495 -0.0392 -0.3186
15685W        W29099  15.417  16.991  12.138  0.0683  0.1794 -0.2808
15686W        W29100  10.907  10.344   3.836 -0.1766 -0.2973  0.0422
15687W        W29101   1.328   5.159   5.617  0.0569  0.0695  0.0895
15688W        W29102  10.041   3.213   0.528 -0.2208  0.2087 -0.1326
15689W        W29103  17.057   1.130  11.337 -0.0197 -0.0332 -0.0474
15690W        W29104  11.314   4.353   0.970 -0.1703  0.0631 -0.3789
15691W        W29105   7.729   8.231  15.011  0.0241  0.1927  0.1473
15692W        W29106   2.625  12.002   2.241 -0.1342  0.1602  0.0768
15693W        W29107  13.194  15.087   3.093 -0.0086  0.1656  0.0230
15694W        W29108   1.155   5.268  14.436  0.0912  0.0425 -0.0052
15695W        W29109  16.604   7.871  10.279 -0.1500  0.1673  0.1589
15696W        W29110   0.362   6.973  12.086 -0.3627 -0.3149  0.2749
15697W        W29111  12.333  12.430  11.367 -0.0193  0.1994  0.1718
15698W        W29112  17.490  16.157   6.252 -0.1706  0.1331 -0.0857
15699W        W29113   0.703  12.837  14.977  0.0522 -0.0161 -0.2062
15700W        W29114  16.606  11.045  13.893  0.0210  0.2882  0.0205
15701W        W29115   2.892  14.799  12.420 -0.0025  0.0250  0.0414
15702W        W29116   8.044   3.425  11.282  0.3222 -0.1443 -0.2681
15703W        W29117   7.608   9.106   0.612  0.1155 -0.1468  0.2087
15704W        W29118  11.969   9.022   3.347  0.1047  0.2100 -0.4111
15705W        W29119  17.921   2.158   0.076  0.1162 -0.0055  0.2325
15706W        W29120   0.617  10.906  16.069 -0.0537  0.1805  0.4616
15707W        W29121  15.240  10.679  14.005 -0.0775 -0.0874 -0.0577
15708W        W29122  14.228  13.196  16.150  0.0537  0.0762 -0.1686
15709W        W29123  10.091  11.921   3.682  0.2105  0.0054 -0.3606
15710W        W29124   9.819  10.539   4.920 -0.0633  0.0299  0.1138
15711W        W29125   1.360  12.633  10.308  0.0852  0.2037 -0.0417
15712W        W29126   2.008   0.297  13.123 -0.0409  0.0527  0.1184
15713W        W29127   1.278   3.647   2.365 -0.0930 -0.1017  0.1982
15714W        W29128  18.165   6.230  11.265 -0.0970  0.0250 -0.0810
15715W        W29129   3.094   6.832   3.234 -0.0545 -0.1947 -0.1390
15716W        W29130   3.248   0.932  14.801 -0.0473 -0.0051  0.0801
15717W        W29131  14.930   1.859   2.121 -0.0504  0.0764 -0.2263
15718W        W29132  17.497   4.948  11.292  0.3805  0.1937 -0.0129
15719W        W29133  12.090  10.654  11.750 -0.1844 -0.0409  0.3029
15720W        W29134  11.725  14.116  14.099 -0.0157 -0.0596  0.1971
15721W        W29135  13.244   2.854   0.919 -0.0353  0.0902 -0.0307
15722W        W29136   4.340  10.675   3.514 -0.2042  0.2485  0.1502
15723W        W29137  17.608  12.966  14.874  0.1752  0.1068 -0.4130
15724W        W29138  11.947   3.290  10.546 -0.1149  0.0737 -0.0166
15725W        W29139   4.434   3.652  13.761 -0.0153  0.0329  0.2448
15726W        W29140   2.293  12.196  11.501 -0.1923 -0.3694  0.1833
15727W        W29141  13.140  11.959   2.720 -0.0828  0.2205 -0.0488
15728W        W29142   8.282   4.104   2.599 -0.0004  0.2868 -0.3986
15729W        W29143   5.656  16.340   5.508 -0.0832  0.0691  0.0021
15730W        W29144   5.549   0.072   3.270  0.2702 -0.0008 -0.0562
15731W        W29145   1.898   1.322   0.601  0.2484  0.2677  0.2305
15732W        W29146  13.507   9.522  15.393 -0.2058 -0.1451  0.0738
15733W        W29147   9.328  17.731   0.319  0.0817  0.1708 -0.3693
15734W        W29148  14.515  14.655   2.690 -0.0384  0.1138 -0.0452
15735W        W29149  13.107  13.461   1.102 -0.1521  0.1410  0.0665
15736W        W29150  11.021  16.233  10.699  0.0791 -0.1953  0.0001
15737W        W29151   2.078  13.427  11.483 -0.0803  0.1449  0.3487
15738W        W29152   9.340   0.618   6.367  0.2156  0.1471 -0.1815
15739W        W29153  15.194  15.287  15.130 -0.1684  0.0767  0.2184
15740W        W29154   1.731   0.677   3.707 -0.1363  0.2403 -0.1243
15741W        W29155   5.018  13.602   4.628  0.2646  0.2494 -0.2767
15742W        W29156   3.680  14.739   6.578  0.0015 -0.2080  0.1980
15743W        W29157   6.476   0.652  10.868 -0.1138  0.5278  0.1452
15744W        W29158  13.752   8.747  10.705  0.2688 -0.0864  0.3239
15745W        W29159  13.464   2.945  10.614 -0.1029  0.2626  0.2727
15746W        W29160  14.957   5.742  12.801 -0.1603  0.0989  0.0020
15747W        W29161  12.153   4.324  11.703 -0.0044  0.0748 -0.0528
15748W        W29162   6.539  11.213   0.876 -0.0482  0.0163  0.0758
15749W        W29163  10.547   7.624  12.228 -0.1188 -0.0565  0.1577
15750W        W29164   2.322   8.493   6.259  0.0292 -0.1787 -0.0076
15751W        W29165   2.973  13.276  11.279 -0.1285  0.0186  0.2361
15752W        W29166  12.527  14.957   2.991 -0.5845 -0.1525  0.1449
15753W        W29167   0.859  18.002  11.729 -0.0770  0.1070 -0.2930
15754W        W29168   8.556   3.184  11.982  0.1653 -0.0764 -0.2634
15755W        W29169   3.217  10.031  16.544 -0.2290 -0.1747 -0.1090
15756W        W29170  16.344  13.193   4.856 -0.1852 -0.1625  0.0464
15757W        W29171   0.802   5.371  16.399  0.1495  0.0046  0.1918
15758W        W29172   2.482  13.618  15.896  0.0105  0.0564  0.1967
15759W        W29173  17.665   9.496   4.434 -0.2626 -0.0136 -0.6689
15760W        W29174  10.879   3.045  12.040  0.4887  0.2137  0.1624
15761W        W29175   5.674   1.240   0.652  0.0040  0.2406  0.0371
15762W        W29176  17.531   4.537  15.207 -0.1543  0.0658 -0.2787
15763W        W29177   5.075   9.646   1.530  0.1757 -0.3252 -0.3247
15764W        W29178   5.364   4.134  13.759 -0.0090 -0.2745 -0.0929
15765W        W29179   6.249   3.216   3.887 -0.2430 -0.0915  0.1803
15766W        W29180  14.404   5.682  13.497 -0.1327  0.2163  0.1475
15767W        W29181   6.162   9.364  12.889  0.0890 -0.0552 -0.3122
15768W        W29182   3.344   1.226   2.052  0.0774 -0.2786  0.3191
15769W        W29183   7.143  11.116   3.411 -0.0261  0.0138  0.0280
15770W        W29184   5.818  17.091  14.206  0.2814  0.1675 -0.1477
15771W        W29185   9.757   2.290  10.940  0.1122 -0.0317 -0.4251
15772W        W29186   0.180  11.124   3.410  0.1617  0.4068 -0.2286
15773W        W29187  11.925   4.695  14.115  0.1859 -0.0041  0.1728
15774W        W29188   7.023  16.859  15.320 -0.2031 -0.2199  0.2503
15775W        W29189   2.962   1.559  11.634  0.4035  0.1117  0.3057
15776W        W29190  15.048  16.020  14.399  0.1244  0.0522  0.3829
15777W        W29191  17.674  11.117  11.414  0.2361 -0.1541  0.0037
15778W        W29192   4.759  14.479   1.961 -0.3917 -0.2049  0.2266
15779W        W29193   2.255   5.386  11.181  0.1126 -0.1670  0.0968
15780W        W29194  15.159   1.765  14.736  0.2861 -0.1421  0.1350
15781W        W29195   5.549  12.348   4.851 -0.1160 -0.0283 -0.0710
15782W        W29196  11.978  17.603   5.448  0.1053  0.1388  0.0569
15783W        W29197   2.804  13.994  14.403  0.2630  0.1066 -0.1340
15784W        W29198  17.882  16.794  13.841 -0.0766 -0.4768 -0.0727
15785W        W29199   9.346  17.663  12.011 -0.1045 -0.2394  0.0429
15786W        W29200   5.503   7.669   9.816 -0.1655 -0.0504  0.4273
15787W        W29201  11.349   8.043   2.073  0.0824 -0.0471 -0.1546
15788W        W29202  12.071  15.168   2.934  0.2086 -0.2586 -0.0529
15789W        W29203   1.324   2.151   5.830 -0.0929  0.1511 -0.0886
15790W        W29204  17.485  15.778   0.854  0.0265  0.1477  0.2084
15791W        W29205  16.697  15.633  14.907 -0.0394  0.0539  0.0962
15792W        W29206  13.040   5.436   0.719  0.0024  0.0711 -0.3013
15793W        W29207  17.496   8.254   2.815 -0.2445 -0.1082 -0.2333
15794W        W29208   4.564  17.095   5.721  0.1865 -0.0232  0.1429
15795W        W29209   3.530   6.679  10.883  0.0189 -0.3565  0.0790
15796W        W29210   4.106  10.788   2.994 -0.0519  0.2127  0.1797
15797W        W29211   2.029  13.174   4.184  0.1968  0.2151 -0.1401
15798W        W29212   6.560  13.139  15.666 -0.5829  0.1285 -0.0329
15799W        W29213  17.084  12.527  10.551 -0.0331 -0.0752 -0.1880
15800W        W29214   9.019   1.311  12.305 -0.0390  0.2306 -0.0237
15801W        W29215   2.616   4.597  12.152  0.2099  0.3776  0.1085
15802W        W29216  15.714   8.112   2.586  0.1279 -0.1159 -0.0481
15803W        W29217   7.281  15.577  11.134  0.1880  0.0823  0.3965
15804W        W29218   4.392  10.730  14.208 -0.1174 -0.0827  0.0016
15805W        W29219  18.083   8.688  15.116  0.0267  0.3346  0.0550
15806W        W29220  15.490  12.854  12.851 -0.3839 -0.0724  0.3771
15807W        W29221   3.621  17.640   1.314 -0.0248 -0.1275  0.1205
15808W        W29222   5.786  11.400   1.829 -0.1188  0.1896 -0.0308
15809W        W29223  10.829  17.033  14.285 -0.1438 -0.0555 -0.0716
15810W        W29224  17.463   8.806  13.932 -0.2579  0.0161  0.1471
15811W        W29225  13.876  11.454  12.330 -0.3242 -0.0540  0.2994
15812W        W29226  15.460   9.092   2.556  0.0284 -0.0025  0.3749
15813W        W29227   2.591  16.713   2.802  0.0520  0.1573  0.2644
15814W        W29228  12.626   4.876   4.983  0.2284  0.1211 -0.3513
15815W        W29229  17.213  10.328   5.275 -0.3086  0.1397 -0.0859
15816W        W29230   8.999   0.111  15.639 -0.0771 -0.1145 -0.3288
15817W        W29231  18.242   4.443  12.560  0.0223  0.0303 -0.1160
15818W        W29232  12.265   6.776  11.736  0.1315 -0.4520 -0.2036
15819W        W29233  11.390   8.569  12.206 -0.1890 -0.1462 -0.1531
15820W        W29234   3.463   9.178  14.897  0.2215 -0.2256  0.0247
15821W        W29235  17.799  15.463   0.691 -0.0696  0.3170  0.2655
15822W        W29236  16.338   6.703   0.432  0.1653 -0.0764  0.0351
15823W        W29237   7.130  17.679  16.095  0.0045 -0.1616 -0.2343
15824W        W29238  14.903  15.552   2.269  0.0319 -0.3944  0.0185
15825W        W29239  16.598  11.563   3.917 -0.0363 -0.0092  0.0784
15826W        W29240   8.935   8.102  13.666 -0.2216  0.0966  0.1364
15827W        W29241   7.297  12.302  12.041 -0.0957 -0.1231  0.0356
15828W        W29242   7.312   8.029  12.363 -0.2508  0.0662 -0.0660
15829W        W29243  17.615  13.445   6.234  0.0133  0.0844 -0.1094
15830W        W29244   4.007  16.996   2.181 -0.1889  0.1946  0.0517
15831W        W29245  11.747   7.162   0.346 -0.1207  0.1213 -0.1835
15832W        W29246   0.584   8.170  13.601 -0.0597  0.1260  0.0860
15833W        W29247  15.586  12.012   1.460  0.1104 -0.0913 -0.0510
15834W        W29248   5.548   4.570  13.886  0.1378  0.1048 -0.2087
15835W        W29249   6.564  14.851  12.987  0.0453 -0.3650  0.1002
15836W        W29250   9.376   6.834   3.461 -0.2053  0.1240  0.0224
15837W        W29251   7.081  14.838  10.825 -0.2053  0.1589  0.2151
15838W        W29252  15.384  18.059   1.446  0.1166 -0.3187 -0.1690
15839W        W29253   7.680   6.122   1.207  0.0732 -0.0406 -0.7240
15840W        W29254  17.635   2.309   0.940  0.1607  0.0383 -0.1004
15841W        W29255   6.488  10.314  14.343 -0.1032 -0.0664  0.0654
15842W        W29256  10.840   1.169  15.719  0.0840 -0.1659  0.0308
15843W        W29257  17.574   5.100  10.246 -0.0615 -0.1263 -0.1588
15844W        W29258   4.075  13.065  14.798 -0.0826  0.1520 -0.2603
15845W        W29259   0.503  11.112   0.404  0.0010 -0.3058 -0.1829
15846W        W29260   3.711   0.526   4.646 -0.0798  0.1762 -0.0382
15847W        W29261   1.728  16.771   5.605 -0.1079  0.1274  0.1944
15848W        W29262  15.462  10.662  11.745  0.1210 -0.0412  0.0319
15849W        W29263   8.843  15.265  10.711  0.2192 -0.0018 -0.1097
15850W        W29264  13.514   8.077  10.281  0.2355  0.2485 -0.0366
15851W        W29265  16.230  12.570  11.973 -0.2355 -0.1761 -0.1740
15852W        W29266  10.351   4.116  13.940  0.1009 -0.2409  0.0940
15853W        W29267   5.887   7.817  12.930  0.3614 -0.0736 -0.0652
15854W        W29268   3.592  15.941   2.203 -0.0786 -0.1059  0.1266
15855W        W29269   1.132   5.705  16.268  0.4937  0.0325  0.0250
15856W        W29270  15.948   3.822  12.918  0.0395 -0.5012 -0.2479
15857W        W29271  14.817  18.028   2.992 -0.0694 -0.2322 -0.0027
15858W        W29272  15.742  15.529   1.200  0.0182 -0.0093 -0.1514
15859W        W29273   4.000  10.205   5.033  0.2826  0.1361  0.4368
15860W        W29274   5.362  14.891  14.805  0.1927 -0.1214  0.0260
15861W        W29275   1.609  12.039  14.136 -0.0958 -0.2962  0.0874
15862W        W29276   6.356  15.200   0.295  0.1840  0.3507 -0.3160
15863W        W29277   2.146   2.868   4.011 -0.1794  0.0224  0.1431
15864W        W29278   8.505   2.662  16.265  0.0184  0.0634  0.0180
15865W        W29279   0.406   0.554   4.976  0.2559 -0.2929 -0.0715
15866W        W29280  13.872   7.185   2.747  0.0126  0.1768 -0.1932
15867W        W29281  14.990   3.011   2.627 -0.2516  0.0567 -0.0203
15868W        W29282   3.063  15.791   2.201 -0.3200 -0.2525  0.0514
15869W        W29283  13.265   5.243  11.468 -0.0842  0.1820 -0.4713
15870W        W29284   0.066   0.609   0.192 -0.3478 -0.0807  0.0446
15871W        W29285   9.679   9.857   4.505  0.0503 -0.2240 -0.0314
15872W        W29286   2.493   7.110   5.359 -0.1093  0.0833 -0.2138
15873W        W29287  12.946  14.082   5.537 -0.0824 -0.1422  0.1272
15874W        W29288   3.190  13.239   6.574  0.2578 -0.1908 -0.1089
15875W        W29289   5.500   6.864  14.102  0.0751 -0.1360  0.0368
15876W        W29290  15.938   0.865   0.208 -0.2221  0.3182  0.0054
15877W        W29291  13.105  16.177   3.614  0.1393  0.0057 -0.0255
15878W        W29292  17.078   4.584  14.988  0.3651 -0.0636 -0.2418
15879W        W29293   0.635   9.539   0.267 -0.0379 -0.0160 -0.3269
15880W        W29294   3.340  13.592   0.650 -0.3701  0.0709 -0.1171
15881W        W29295  16.848  10.378   3.119  0.0610 -0.1289  0.1839
15882W        W29296   9.608   4.480   2.626 -0.2125  0.1021 -0.0874
15883W        W29297   9.624   3.282   5.432  0.0257  0.2896  0.2162
15884W        W29298   8.311  13.479  13.853  0.1287  0.0011 -0.3329
15885W        W29299   6.950  13.704   0.522 -0.5184  0.0304  0.1345
15886W        W29300   4.864  13.887   1.836  0.1881 -0.1960 -0.0536
15887W        W29301  10.638   8.001  11.756 -0.2450  0.1758 -0.2396
15888W        W29302  10.313  15.263  15.964 -0.1460 -0.1524 -0.1496
15889W        W29303  10.576  10.159  13.910  0.0064  0.1664  0.3081
15890W        W29304   8.563   4.582   4.626 -0.3156  0.2333  0.3325
15891W        W29305  16.261  13.660  13.789 -0.1044  0.0765 -0.2448
15892W        W29306   6.447  12.117  14.812  0.0543 -0.0913 -0.2519
15893W        W29307  14.110   6.866  16.513 -0.3343  0.2203 -0.3442
15894W        W29308   9.672   4.270  11.941  0.2489  0.2511  0.0084
15895W        W29309  15.450  17.438   3.674 -0.1096  0.1325 -0.0345
15896W        W29310   5.610   0.700   0.604  0.1403  0.0902 -0.0657
15897W        W29311   3.051  12.359  15.128  0.0756  0.1065 -0.1509
15898W        W29312  14.558   8.935   4.545  0.0151 -0.1172 -0.1324
15899W        W29313   4.044   9.410   3.376 -0.0147 -0.1409 -0.1526
15900W        W29314   2.195   3.826   4.483  0.2883  0.0565  0.2149
15901W        W29315  14.191  12.163   0.096 -0.0440  0.3799 -0.2202
15902W        W29316   4.400   2.252  12.288  0.0664  0.0352 -0.1693
15903W        W29317  15.998   2.893   0.671  0.0809 -0.0786  0.1959
15904W        W29318   7.586   9.591  12.451  0.3216 -0.1917 -0.1450
15905W        W29319  13.091  10.830  15.282  0.1276  0.2405 -0.0434
15906W        W29320   9.673  12.899   2.347  0.1280 -0.0869  0.1794
15907W        W29321  16.267   7.149  15.621 -0.4477 -0.0763  0.0696
15908W        W29322  10.494  11.980  11.604  0.1726  0.1073  0.2239
15909W        W29323   2.009   9.075  12.603 -0.1013 -0.0162  0.1490
15910W        W29324   6.466  11.666   3.101  0.0961 -0.0665 -0.0623
15911W        W29325  14.598   4.879  14.562 -0.0409  0.1005  0.2244
15912W        W29326   9.077   2.728   1.920  0.4151 -0.2714 -0.0597
15913W        W29327   8.874  17.110  13.983  0.3868 -0.0986 -0.0643
15914W        W29328  10.050  12.244  16.448 -0.0396 -0.3149 -0.2364
15915W        W29329  13.620   2.939  11.825 -0.1993  0.1625 -0.2761
15916W        W29330  12.894  17.805   5.415 -0.0544 -0.0463 -0.1002
15917W        W29331   8.972   7.248  12.119 -0.1170 -0.1219  0.0348
15918W        W29332   9.898   1.401  11.750  0.0314  0.4130 -0.1597
15919W        W29333   1.674  14.591  14.934 -0.1242  0.0520 -0.0067
15920W        W29334   7.413  14.316   6.252 -0.0485  0.1136 -0.0180
15921W        W29335  10.289  11.705  14.335  0.1077  0.4007 -0.1686
15922W        W29336   7.309   4.569  11.067 -0.3264 -0.0839  0.3672
15923W        W29337   4.767   8.560   0.595  0.0537 -0.0620  0.0249
15924W        W29338  14.241  11.628   1.837 -0.1004  0.0916 -0.3594
15925W        W29339   0.299  10.885   4.402  0.1827  0.0767  0.2055
15926W        W29340  10.439   9.164   0.339  0.0025  0.2220  0.1211
15927W        W29341   5.458   6.400   4.167 -0.0536  0.0979  0.2522
15928W        W29342  11.575   4.521   5.358 -0.0055 -0.1456 -0.1207
15929W        W29343  14.765   7.240   1.949 -0.3513  0.3665  0.1903
15930W        W29344  12.145   0.095   5.759  0.2102  0.0245 -0.3770
15931W        W29345   6.653   2.018  13.164 -0.2728 -0.0527  0.1125
15932W        W29346   4.274   0.926   4.164  0.0349 -0.0633  0.0269
15933W        W29347  12.967  12.870   2.840  0.1327  0.0984 -0.0976
15934W        W29348  16.483  17.343  13.418 -0.1679 -0.0974 -0.0365
15935W        W29349   4.691   8.632  15.063 -0.0161 -0.3064  0.2022
15936W        W29350   2.434   9.764  10.762  0.0110  0.3610 -0.5784
15937W        W29351   9.765   8.582  15.236 -0.2435  0.2456 -0.1377
15938W        W29352  15.512   8.461   9.672  0.1777  0.0991  0.0677
15939W        W29353  17.526   2.908   5.179 -0.0787  0.1318  0.1575
15940W        W29354   5.160   8.842   4.925 -0.0141  0.0724 -0.1330
15941W        W29355  13.033  14.534  15.869 -0.2181 -0.1259  0.2873
15942W        W29356   8.723  17.823   2.981 -0.1879 -0.1698  0.1236
15943W        W29357   6.940  16.132  12.495 -0.2990  0.4042 -0.1460
15944W        W29358  14.375   1.041  14.699  0.0907 -0.1611 -0.0136
15945W        W29359  13.103  11.924  11.639  0.1325 -0.3995  0.0187
15946W        W29360   5.052   2.075   0.759 -0.0356 -0.0290 -0.0063
15947W        W29361  15.693   3.560   2.833  0.3715 -0.0731 -0.1627
15948W        W29362  17.845   1.437  11.509 -0.1717 -0.0344 -0.0597
15949W        W29363  10.306   0.528   2.536 -0.0349 -0.1913 -0.0163
15950W        W29364   3.194   6.639  10.240 -0.3022 -0.2083 -0.1658
15951W        W29365   3.718   2.885  12.024 -0.1364 -0.2006  0.2715
15952W        W29366  18.147  13.851   0.916  0.2445 -0.0805 -0.0069
15953W        W29367  14.951  17.089  14.703  0.1118  0.1389 -0.0851
15954W        W29368   2.257   7.128   0.757  0.1997  0.3495 -0.3549
15955W        W29369  12.898   2.285   5.632 -0.1492 -0.3068  0.0179
15956W        W29370   6.670  16.359   4.991 -0.3192 -0.0453  0.0119
15957W        W29371   8.773  12.923   1.302 -0.2984 -0.1236 -0.0026
15958W        W29372   4.865  16.483  13.594 -0.0455 -0.1138  0.0475
15959W        W29373  17.664  10.627   3.557  0.0655  0.0305 -0.0599
15960W        W29374   9.203   4.853  11.518 -0.0989  0.1336 -0.2120
15961W        W29375   1.554  11.699  12.825 -0.0720 -0.1086  0.1628
15962W        W29376  17.423   2.820   9.710 -0.0743 -0.0717  0.2054
15963W        W29377   8.642   2.291   5.073 -0.2166 -0.2184  0.0814
15964W        W29378   3.001  11.510  14.232  0.0521  0.1352  0.1037
15965W        W29379   5.914  17.306  15.939 -0.2230  0.3628 -0.0143
15966W        W29380  10.311   0.045   0.626  0.1559  0.1315  0.3573
15967W        W29381  16.125   0.732  10.463  0.1483  0.1000 -0.0765
15968W        W29382   6.902  15.892   4.294 -0.0507 -0.0206  0.2637
15969W        W29383   5.483  11.559  16.090  0.0917 -0.1827 -0.1367
15970W        W29384   4.982  14.684   3.335 -0.1240 -0.0393  0.4282
15971W        W29385  15.112   0.823  14.164  0.1222 -0.0175 -0.0290
15972W        W29386  17.456  16.176  13.517 -0.0736  0.3337  0.0804
15973W        W29387  14.696   8.382  10.606 -0.2819  0.0600 -0.2243
15974W        W29388   1.630  12.263   2.839  0.3378 -0.0207 -0.0801
15975W        W29389  11.857  12.589   5.861  0.0213  0.0753  0.0687
15976W        W29390  11.028  14.626   0.981 -0.3387 -0.0690 -0.3452
15977W        W29391   9.083   7.819   2.684 -0.0082  0.0450 -0.0870
15978W        W29392   5.056  15.657  12.186  0.1049 -0.2808  0.0874
15979W        W29393  10.004   4.928   0.791 -0.0137  0.2618 -0.2390
15980W        W29394  16.013   5.429   5.890 -0.2347  0.1789 -0.1425
15981W        W29395   7.303  11.384  12.644 -0.3850 -0.2041 -0.2723
15982W        W29396   1.350  10.363  12.690  0.2469  0.0345 -0.0769
15983W        W29397   8.711   7.811  15.162  0.0363 -0.0924 -0.0474
15984W        W29398  16.642   4.032   2.328  0.0051 -0.2094 -0.2754
15985W        W29399   3.447  17.144  13.052 -0.0195 -0.1121  0.2201
15986W        W29400  16.649  15.087  13.674  0.1558 -0.0460 -0.2131
15987W        W29401  11.372   0.634   5.734  0.2378  0.1534 -0.3134
15988W        W29402  16.134   8.098  12.189  0.0705 -0.0858  0.0500
15989W        W29403  14.882   0.510  13.423  0.0999  0.0319 -0.1459
15990W        W29404   4.686  16.149   4.243  0.0606  0.0353  0.3847
15991W        W29405   1.121  17.349  11.273  0.0826 -0.0936 -0.0532
15992W        W29406   6.373  14.266  14.111  0.1459 -0.0618 -0.1114
15993W        W29407  12.104   9.449   1.786  0.2149  0.0321  0.1435
15994W        W29408   6.419  16.608   2.314  0.2194 -0.2724 -0.0450
15995W        W29409   6.414   5.214   2.006  0.1303  0.1810 -0.0802
15996W        W29410   0.283   0.964  10.831 -0.0059 -0.0196  0.2060
15997W        W29411  12.912  10.602  11.487  0.1745  0.1806  0.1728
15998W        W29412   2.249  16.041   6.142  0.0807  0.4951  0.0136
15999W        W29413   0.125   7.402   3.344 -0.3265 -0.0136  0.1694
16000W        W29414  12.406  16.085  15.323 -0.0110 -0.1432  0.2030
16001W        W29415   0.698  15.034   1.940  0.0543  0.4079 -0.2485
16002W        W29416   5.597   3.692   9.797 -0.0455  0.1618  0.3332
16003W        W29417   7.876   8.882  16.528  0.3243 -0.1205  0.0217
16004W        W29418  15.592  13.795   5.867  0.0697  0.2600 -0.0238
16005W        W29419  17.114   9.674   1.883  0.1758  0.1129  0.0861
16006W        W29420   0.472   2.836  16.125 -0.0052  0.2751 -0.0541
16007W        W29421   2.333  14.706   2.699 -0.2658  0.3688  0.1839
16008W        W29422   7.529  16.972  13.740  0.2734  0.2498  0.0573
16009W        W29423  11.119   6.586  16.402  0.1087 -0.1010 -0.0261
16010W        W29424  11.018   7.692  14.902  0.0531  0.1163 -0.1501
16011W        W29425  11.150  17.786  12.007  0.1562 -0.0203 -0.2064
16012W        W29426  17.379   1.502  13.055  0.2741 -0.0037  0.1675
16013W        W29427  12.906   0.139  13.128 -0.0994 -0.0250  0.1388
16014W        W29428  14.322   6.663   0.721 -0.3042  0.0086 -0.1987
16015W        W29429  12.522   4.336   5.847  0.2008 -0.2508 -0.0630
16016W        W29430   7.742  13.519   1.234  0.1196  0.1754 -0.0675
16017W        W29431   0.853   7.551  11.440 -0.1741  0.2887 -0.0174
16018W        W29432   2.249  16.126  13.895 -0.1044 -0.1382  0.1943
16019W        W29433   6.733   3.529   1.637 -0.1730 -0.1419 -0.3779
16020W        W29434   7.346  16.794   2.277 -0.1304 -0.1067  0.1726
16021W        W29435  17.283   6.662   1.059  0.0156 -0.3346 -0.0454
16022W        W29436   7.969   7.524  11.066 -0.0204 -0.1885  0.0007
16023W        W29437  17.205   4.712  13.160  0.1598  0.0391  0.0899
16024W        W29438  13.251   9.561  11.886  0.1284  0.2135  0.0118
16025W        W29439  12.397  14.566  15.162  0.1677  0.1833 -0.1985
16026W        W29440   4.065   3.572  12.530 -0.0915 -0.1284  0.4170
16027W        W29441   7.801   5.351  11.290 -0.1706 -0.1466 -0.2377
16028W        W29442   0.181  13.558  14.998  0.1579  0.0060 -0.1682
16029W        W29443   3.854   4.907   4.839  0.0130 -0.0030  0.2885
16030W        W29444   9.695   8.013  12.744 -0.3036  0.2495  0.2339
16031W        W29445   3.249   3.482   4.196 -0.0012 -0.1075  0.1114
16032W        W29446  14.214   2.731   2.155 -0.0583  0.0245  0.1095
16033W        W29447  15.481  10.087  13.920  0.2413 -0.1464  0.1554
16034W        W29448   0.336  16.951   2.594  0.2695 -0.0697 -0.0022
16035W        W29449   2.786  15.466  14.198 -0.3225 -0.0043  0.0586
16036W        W29450   7.011   9.587  10.586 -0.4722 -0.2286 -0.0491
16037W        W29451  11.193   4.727  15.548 -0.0526 -0.0671  0.3104
16038W        W29452   0.241  13.894   5.997 -0.1469 -0.0065  0.2886
16039W        W29453  13.508   6.340  10.591 -0.1655  0.1028 -0.1465
16040W        W29454  17.191  11.568  10.732 -0.0007  0.1289  0.1999
16041W        W29455  17.982  10.261  14.857  0.1428  0.2281 -0.0140
16042W        W29456  15.455  11.804   3.351  0.0681 -0.5095  0.1430
16043W        W29457   7.473   2.423   0.404 -0.1902  0.1213 -0.3667
16044W        W29458   3.258  10.975  12.333  0.0018 -0.2230 -0.3271
16045W        W29459   4.276   0.892   2.649  0.3437 -0.3356 -0.0836
16046W        W29460   1.975  13.818  12.222  0.0640 -0.0024  0.1751
16047W        W29461   4.949   2.562   5.285 -0.2577 -0.1746 -0.0289
16048W        W29462  13.180   1.629   4.259  0.0143  0.3761 -0.2782
16049W        W29463  12.084   8.697  15.327 -0.2198  0.0797  0.0202
16050W        W29464   1.306   8.104  12.467 -0.1975  0.1619 -0.2125
16051W        W29465   3.698   9.464   2.925 -0.1882  0.3907 -0.0356
16052W        W29466  11.682  17.924   3.252 -0.1766  0.1427  0.1325
16053W        W29467  13.243   5.849   2.087  0.1010 -0.2323  0.0768
16054W        W29468  16.776  18.013   1.659  0.0952  0.0440  0.0388
16055W        W29469   6.354   0.704   1.400  0.1469 -0.1317 -0.1138
16056W        W29470   1.656  13.996  11.789 -0.0355 -0.0358  0.0499
16057W        W29471  12.135   3.629  12.230  0.1575  0.2114  0.1145
16058W        W29472  11.085  13.659  15.299  0.2252 -0.1833 -0.2305
16059W        W29473   2.099  16.598   2.943 -0.3649  0.1221  0.1502
16060W        W29474   7.247  16.648   2.739  0.0374 -0.0293 -0.0251
16061W        W29475  15.589   2.660  16.288 -0.2017 -0.2981 -0.0315
16062W        W29476   9.108   0.281  10.853 -0.0777  0.2198 -0.0054
16063W        W29477   7.921   8.800   4.467  0.4000 -0.1574  0.2037
16064W        W29478  11.243   1.781  13.335 -0.0646  0.1197 -0.1448
16065W        W29479   7.284   6.143  15.948  0.2682 -0.3008 -0.1787
16066W        W29480  13.494   1.186  15.703 -0.0418 -0.3364  0.0274
16067W        W29481   7.943   4.703   2.301 -0.1424  0.2628 -0.2097
16068W        W29482  10.714   2.520  15.808 -0.0127  0.0749 -0.0489
16069W        W29483   9.102  10.011  14.924 -0.2579  0.0452  0.1511
16070W        W29484   7.188  16.152  14.842 -0.1760 -0.2669  0.1037
16071W        W29485   2.171   2.196  10.616  0.2252 -0.0612  0.0301
16072W        W29486   2.120   3.111  10.776 -0.1155  0.0567  0.0241
16073W        W29487  13.015   7.417   4.604  0.1325 -0.1164  0.3834
16074W        W29488  10.951   5.866   5.911  0.2065 -0.2434  0.1233
16075W        W29489  10.447   9.574  16.019 -0.1147  0.0908  0.0013
16076W        W29490  10.685  13.689   2.508 -0.1234 -0.1519 -0.2073
16077W        W29491  14.487   3.474  14.683  0.0074  0.1567 -0.1481
16078W        W29492   9.231   0.766   1.697  0.0092 -0.3344  0.1332
16079W        W29493  12.023   8.215  12.808  0.2825  0.1742  0.0749
16080W        W29494  13.958   5.535   2.461 -0.0631  0.0136  0.3033
16081W        W29495  11.981  17.405  14.918  0.2218 -0.3331  0.2610
16082W        W29496   2.267   0.828   5.226  0.1037 -0.0053 -0.0557
16083W        W29497  16.673  13.390   5.487  0.0404 -0.2285 -0.2916
16084W        W29498   9.050   5.704  12.201  0.1846  0.1869 -0.0138
16085W        W29499  14.376  14.356   5.571 -0.1738  0.0208 -0.2372
16086W        W29500  12.975   7.601   2.604 -0.2908 -0.0314 -0.1610
16087W        W29501   1.375  15.053   5.787 -0.3030  0.0150  0.0427
16088W        W29502  12.563   6.891   4.766 -0.2413 -0.0277  0.0159
16089W        W29503  11.993   0.056  11.895 -0.2353  0.0899  0.2718
16090W        W29504  16.984   8.719   3.894  0.2910  0.0452 -0.3798
16091W        W29505   6.725  15.174  12.629  0.2875  0.0839 -0.2095
16092W        W29506  10.501   1.314  15.299  0.0312 -0.3318  0.0032
16093W        W29507   6.495  16.141   2.533  0.1424 -0.3800 -0.2111
16094W        W29508  11.489  10.090  15.683  0.1994 -0.2898 -0.2113
16095W        W29509   6.539   0.166   0.120  0.1167  0.0487 -0.2417
16096W        W29510   6.649  11.493  13.749  0.2000  0.1142 -0.2401
16097W        W29511  16.034  16.034   2.839  0.0638  0.0891 -0.0722
16098W        W29512  14.779   2.555  13.319  0.2421 -0.2507  0.2651
16099W        W29513   8.881   5.542   0.954  0.2378  0.0599 -0.1893
16100W        W29514   0.254  13.701   3.188  0.0764  0.5833  0.0172
16101W        W29515   0.386   7.553  14.915 -0.1831 -0.0951  0.0385
16102W        W29516  13.150   3.792   3.228  0.1592  0.1436 -0.0956
16103W        W29517   7.118   5.912  12.452 -0.1766  0.1800 -0.1786
16104W        W29518  15.168   9.179  13.819  0.1731 -0.1585 -0.1536
16105W        W29519  12.420   0.188   6.797 -0.2011 -0.2235  0.2835
16106W        W29520   7.264   2.220   1.314 -0.3006 -0.0989 -0.1186
16107W        W29521   1.028   1.485  14.902  0.2334 -0.0226  0.0634
16108W        W29522   1.991  16.492  12.666 -0.3055 -0.3672  0.2491
16109W        W29523  17.864   0.116   1.515 -0.2173 -0.3506 -0.2292
16110W        W29524  13.545   7.029  16.362 -0.2224 -0.0212 -0.0597
16111W        W29525  15.820   7.591  16.337 -0.2019  0.1913  0.0049
16112W        W29526   1.632  12.764   0.092 -0.0162  0.0919 -0.3571
16113W        W29527   1.621   6.744  15.759  0.0083  0.0875  0.0644
16114W        W29528   4.277   4.316  11.519 -0.0690  0.0890  0.0100
16115W        W29529  13.811   6.787   3.923 -0.1159  0.0260 -0.0350
16116W        W29530   1.193   7.309   1.110  0.0859  0.0961  0.3756
16117W        W29531  15.494   2.155   4.297  0.3006  0.0242 -0.1128
16118W        W29532   0.822  14.039   2.015  0.0185 -0.2606 -0.0947
16119W        W29533  12.710   4.706   4.313 -0.0540 -0.2030  0.0125
16120W        W29534   7.873  16.867   5.084 -0.0930 -0.3512  0.0728
16121W        W29535   5.525  16.776  11.080  0.3646 -0.1762 -0.3910
16122W        W29536   6.398  10.864  14.495  0.0256 -0.3857 -0.0020
16123W        W29537   7.117   5.187  10.545  0.2179 -0.1287  0.0959
16124W        W29538   0.351  10.884   3.883 -0.1197  0.0483  0.1298
16125W        W29539   5.122  16.031  14.168  0.2377 -0.1413  0.1306
16126W        W29540   2.989   0.457  16.340 -0.1398 -0.1855  0.2101
16127W        W29541  11.726   6.911  14.111 -0.1016  0.3891  0.2433
16128W        W29542   9.937  13.519  13.144  0.0594  0.0241  0.2242
16129W        W29543   7.007  11.195   3.869  0.1069 -0.0608  0.0597
16130W        W29544   0.490  14.663   6.589  0.4047  0.1516  0.2110
16131W        W29545   0.626   1.720   4.939 -0.0934 -0.3842 -0.4542
16132W        W29546  13.321  17.668  16.000 -0.1549 -0.1066 -0.1239
16133W        W29547  10.408  10.721   2.460 -0.1881  0.2423  0.1903
16134W        W29548   1.871  15.724  13.552 -0.0302 -0.0913  0.1529
16135W        W29549   4.628  16.808  10.766  0.1683 -0.1432 -0.2116
16136W        W29550   7.479   6.365   4.036 -0.1217  0.1016  0.0669
16137W        W29551  13.758  11.032   4.598  0.2969 -0.2634  0.0350
16138W        W29552  11.950  10.242  10.873 -0.1440 -0.0191 -0.0017
16139W        W29553  15.511   2.730   3.582  0.2058 -0.1225  0.1227
16140W        W29554  10.767   1.077  16.203 -0.2289 -0.0291 -0.1148
16141W        W29555   9.114   5.783  14.412  0.0067 -0.1221  0.3473
16142W        W29556  11.177   5.351  11.225 -0.2135  0.0353  0.0734
16143W        W29557  11.589  17.817   1.870 -0.0947 -0.1024 -0.1070
16144W        W29558   4.565   5.081   3.242 -0.4323 -0.3457 -0.1879
16145W        W29559  17.727  10.959  14.449 -0.0659  0.2286  0.1918
16146W        W29560   7.101   7.826  14.305  0.1756 -0.0191 -0.0366
16147W        W29561   5.088   9.275   0.929  0.2107 -0.0497 -0.0839
16148W        W29562   6.575   1.722   4.814 -0.0573 -0.3055  0.2870
16149W        W29563   8.740   8.513   0.233 -0.1742 -0.0180 -0.1551
16150W        W29564   8.576   9.419  16.203 -0.0014 -0.0737 -0.1550
16151W        W29565  16.766   1.354   4.151 -0.0349  0.1986  0.0786
16152W        W29566   1.976   5.699   4.986 -0.0127 -0.2104 -0.1991
16153W        W29567   9.566  16.664  13.111  0.0732  0.0603 -0.1712
16154W        W29568   6.550   8.131   2.925 -0.2401  0.0377  0.1007
16155W        W29569   7.185   6.461   0.575 -0.0467 -0.1318 -0.0475
16156W        W29570   6.482   1.596   2.222 -0.2124 -0.1992  0.2017
16157W        W29571  17.030   7.380   3.064 -0.1046 -0.3085  0.0139
16158W        W29572  11.767   7.246   2.772  0.2286  0.0165 -0.3362
16159W        W29573   1.302  10.118   0.944 -0.0285 -0.1239  0.2370
16160W        W29574   9.515  13.513  12.487  0.3042 -0.3554  0.0354
16161W        W29575   1.786   0.552  10.085  0.0239 -0.1369 -0.1095
16162W        W29576   5.572   4.285   3.692  0.1337 -0.1438 -0.1470
16163W        W29577  10.163   8.845   1.084 -0.1818 -0.0841  0.3604
16164W        W29578  17.204   6.901  13.244  0.0749 -0.2485  0.0763
16165W        W29579   1.037   7.991  13.789  0.0660 -0.4433  0.0198
16166W        W29580   2.363  14.392   4.277  0.3066  0.0504  0.2675
16167W        W29581   4.533  15.862  14.457  0.0630  0.0637  0.3880
16168W        W29582  11.282  14.767   0.219 -0.0413 -0.3011  0.0846
16169W        W29583   3.695  17.928  14.642  0.1894  0.0152  0.1892
16170W        W29584   9.431  15.608  11.648 -0.2067  0.1866  0.0352
16171W        W29585   9.311  11.185   3.813  0.0552  0.0695 -0.3742
16172W        W29586  11.251  17.546   4.262 -0.1127 -0.3848 -0.1901
16173W        W29587  16.475  15.771   2.045 -0.2115 -0.2876 -0.4007
16174W        W29588   0.418   1.256  14.156 -0.1712 -0.1590  0.1815
16175W        W29589   7.580   8.075  15.532  0.1599  0.2091 -0.0242
16176W        W29590  11.590  17.357  15.806  0.1557  0.1339  0.0771
16177W        W29591   1.973   0.118   2.129  0.1309 -0.1694 -0.0419
16178W        W29592  16.949  14.685  13.420 -0.2007 -0.0560  0.2421
16179W        W29593  15.625  14.944   1.849 -0.0187 -0.0717 -0.0206
16180W        W29594   7.618  12.899  11.433  0.2199  0.1948  0.0243
16181W        W29595   6.480   7.308  12.277 -0.0976 -0.0117 -0.3011
16182W        W29596   3.395   7.057  13.736 -0.0981 -0.0726  0.2848
16183W        W29597   0.894   0.391   5.002 -0.3252  0.1413 -0.3293
16184W        W29598  14.366  10.862   2.950  0.4931 -0.1298 -0.2407
16185W        W29599  13.524  15.403   2.880  0.2725 -0.4222 -0.0334
16186W        W29600  17.569   4.063   2.195  0.2083  0.0964  0.1111
16187W        W29601   9.320   1.439   5.290 -0.1170 -0.1988  0.1651
16188W        W29602   7.527  13.077  13.244  0.1816  0.1834 -0.0700
16189W        W29603  13.272   2.226  14.569  0.0361  0.0818  0.0047
16190W        W29604   3.842   5.139  13.913  0.0150  0.0581 -0.0872
16191W        W29605   7.077   9.445   2.646  0.1092  0.2957  0.0391
16192W        W29606   9.066   5.004  13.895  0.1980  0.3392 -0.0370
16193W        W29607   7.204  13.995   5.894  0.0937 -0.0578 -0.1053
16194W        W29608   7.869   7.230   1.184  0.2138  0.1391  0.1040
16195W        W29609   1.714   9.941   4.834 -0.2410 -0.4083 -0.3224
16196W        W29610   5.629   5.375  16.548  0.2186  0.2454 -0.0701
16197W        W29611  16.370  11.485  12.999  0.1015  0.3136  0.1899
16198W        W29612  16.703  13.603  11.717 -0.0716 -0.2749 -0.1404
16199W        W29613  12.081   4.550   0.181 -0.3008 -0.0072 -0.0093
16200W        W29614   5.637   3.222   2.460  0.2413 -0.1490  0.0256
16201W        W29615   2.355  17.886   1.640 -0.0152 -0.0555 -0.2363
16202W        W29616   6.549   9.348   0.963  0.0284  0.5419 -0.1019
16203W        W29617   1.570   2.147  16.324  0.0145  0.0877 -0.2583
16204W        W29618  15.176   8.311  15.761  0.0949  0.1691 -0.1242
16205W        W29619  17.359  10.775   4.857 -0.0933  0.1972  0.2980
16206W        W29620  15.376  17.386  11.730 -0.3182 -0.1842 -0.1170
16207W        W29621  15.550  16.228   2.029 -0.1277  0.0674 -0.3090
16208W        W29622   6.593  13.980  10.411 -0.1219  0.2418 -0.0266
16209W        W29623   3.625  16.202   1.400  0.3192 -0.0244  0.0091
16210W        W29624   2.970   9.362  13.592 -0.0556 -0.1368 -0.1675
16211W        W29625  15.028   9.030  15.232  0.1491 -0.1145 -0.1204
16212W        W29626  12.496   5.576  11.626 -0.0656 -0.0248  0.0951
16213W        W29627  11.744   4.163   3.016  0.0294 -0.0722  0.0704
16214W        W29628   5.279   6.467  14.966 -0.1093  0.0164 -0.0803
16215W        W29629  11.570   6.981   1.618 -0.1474 -0.1591 -0.3400
16216W        W29630   4.460   5.596   4.589  0.0252  0.2597  0.0987
16217W        W29631   9.221  12.135   0.756  0.2992  0.2084 -0.1561
16218W        W29632   6.113   4.058   2.149  0.4199 -0.0846 -0.0396
16219W        W29633  14.789   1.550   4.534  0.0767 -0.1513 -0.1758
16220W        W29634   3.327   3.039  12.984 -0.0845  0.0001  0.1556
16221W        W29635  12.364   0.225  12.997 -0.2720 -0.0301 -0.0201
16222W        W29636  17.928   1.702  16.166  0.1730 -0.0388 -0.0188
16223W        W29637   7.781  11.676   4.490  0.2948  0.1226 -0.1445
16224W        W29638   3.830  14.769   1.207 -0.0764  0.0390 -0.1618
16225W        W29639   9.725   8.366   3.075 -0.1869  0.3408 -0.0291
16226W        W29640   0.864   9.045  10.643 -0.1147  0.1346 -0.1398
16227W        W29641   2.921  17.541   4.742  0.4258  0.1838  0.1535
16228W        W29642   7.555   5.641   1.153 -0.3129 -0.1726 -0.0964
16229W        W29643   0.196   2.184  10.478 -0.1471 -0.0658 -0.0833
16230W        W29644   0.507   8.046  13.128 -0.0150 -0.1010  0.1004
16231W        W29645   8.940  17.026   6.164  0.0628  0.0866 -0.3316
16232W        W29646   8.310  11.418  11.014 -0.2296 -0.1961 -0.2391
16233W        W29647   0.411   3.510   4.913 -0.1656 -0.0147 -0.1717
16234W        W29648  10.990   0.208  15.690 -0.1665 -0.1956 -0.0468
16235W        W29649  17.752   8.580   3.456 -0.1249  0.0149  0.3115
16236W        W29650   7.449   6.832   3.148 -0.2061 -0.3130 -0.3040
16237W        W29651  15.353  17.262  14.906  0.2881 -0.1940 -0.1845
16238W        W29652   5.360   5.535   0.973 -0.0084 -0.1291 -0.2639
16239W        W29653  16.781  10.342  10.862 -0.2370 -0.0886  0.4775
16240W        W29654   6.910  12.664  12.897  0.0812 -0.3783  0.0773
16241W        W29655  14.479   5.508  11.378 -0.2190  0.2741  0.0678
16242W        W29656   4.186   3.605  10.768 -0.0918  0.0980  0.2478
16243W        W29657   6.606   9.555  15.824  0.0901  0.1780 -0.2848
16244W        W29658  12.521   8.720  13.667  0.3216  0.3320  0.0428
16245W        W29659   1.151  11.210   5.762  0.1124 -0.0196  0.1833
16246W        W29660   7.359  12.694  12.421 -0.1312  0.3707 -0.1164
16247W        W29661  11.499  13.372   4.691  0.2101  0.3424  0.1187
16248W        W29662   7.389  11.862  10.157  0.3986  0.0473  0.0285
16249W        W29663  12.848  16.824  15.306  0.0252 -0.0926 -0.0740
16250W        W29664   2.700   0.577   3.839  0.0927 -0.0307 -0.2046
16251W        W29665  14.030   6.477   3.539 -0.2072 -0.1103  0.1512
16252W        W29666   2.354  16.714  13.286  0.3045 -0.2123  0.0846
16253W        W29667   3.441   1.260   3.919 -0.0821  0.2007 -0.2452
16254W        W29668  17.216   4.300   3.052  0.2399 -0.1776 -0.2632
16255W        W29669   1.122   1.400   4.095  0.2737 -0.1479 -0.2506
16256W        W29670   3.215   0.983   0.070  0.0849  0.0786  0.0001
16257W        W29671   5.946   1.443   2.919  0.1229 -0.2411 -0.0653
16258W        W29672   2.238  11.251   1.685 -0.4233  0.1051  0.0213
16259W        W29673  10.071   2.829  16.260 -0.1787 -0.2089 -0.1443
16260W        W29674   0.238  13.897   1.365 -0.0267 -0.0320  0.0854
16261W        W29675   6.632   5.735   9.962 -0.0171 -0.2985  0.0582
16262W        W29676  11.151   2.691   1.324 -0.0751 -0.2591 -0.0276
16263W        W29677   9.365   3.867   1.981 -0.0596  0.0066 -0.3738
16264W        W29678   0.472  15.810  11.489  0.0413 -0.0719 -0.0446
16265W        W29679  13.012  14.284  12.314  0.1589  0.1625 -0.0185
16266W        W29680  14.894  13.449  12.484 -0.2481  0.0738  0.0072
16267W        W29681  15.806  14.197  11.414  0.2547 -0.1122  0.0181
16268W        W29682  12.060   5.741  13.217  0.2229  0.2133 -0.0131
16269W        W29683  11.295   0.288  14.378  0.0910 -0.3629 -0.0356
16270W        W29684  16.964  11.488  11.957 -0.0692  0.1622  0.0095
16271W        W29685  10.217   0.500  14.766 -0.1434  0.1794 -0.0756
16272W        W29686  16.992  12.655  16.436 -0.0363 -0.0999 -0.0532
16273W        W29687   6.479   7.783   3.842 -0.1271 -0.0383 -0.0309
16274W        W29688   6.383   2.408  16.516 -0.1015 -0.1221 -0.3263
16275W        W29689   2.871   9.630  12.163  0.2097  0.0192  0.3240
16276W        W29690  14.311   9.595  15.779  0.0849  0.0809 -0.0422
16277W        W29691   3.783   7.915  11.396  0.3723  0.0273  0.2064
16278W        W29692   2.697  17.331  12.422 -0.0389  0.3512 -0.2822
16279W        W29693   4.264  11.731   5.268 -0.0564  0.0261  0.1942
16280W        W29694   4.551   9.014   5.868 -0.0686  0.0539 -0.1715
16281W        W29695  10.469   8.414   2.137  0.2341  0.0213  0.2194
16282W        W29696   1.682  16.759   1.938 -0.0656  0.1526 -0.0570
16283W        W29697   1.140   7.383   4.510  0.3831  0.1313 -0.0998
16284W        W29698   0.873  17.629   4.058  0.0092 -0.0874  0.0863
16285W        W29699  15.258  16.921  15.604  0.0715  0.2022  0.0786
16286W        W29700  12.630  16.572   4.802 -0.0875 -0.0176 -0.0100
16287W        W29701   5.066   4.975  11.434 -0.2407  0.1077 -0.1275
16288W        W29702  14.968  15.756  13.871  0.2171 -0.1425 -0.0589
16289W        W29703   2.233  10.351  12.551 -0.0481  0.0240  0.1481
16290W        W29704   9.136  12.008  16.202  0.0069  0.0356 -0.2871
16291W        W29705   3.715   3.061  12.452 -0.0653  0.2235  0.1836
16292W        W29706   6.157   0.681  12.772  0.4508  0.3176 -0.2382
16293W        W29707   6.702   9.068   2.874 -0.0650  0.1127  0.2521
16294W        W29708   2.424   5.859  15.538  0.1912 -0.0203  0.3417
16295W        W29709   9.142  17.395   5.429 -0.0908 -0.0347 -0.1345
16296W        W29710   5.723  16.458   4.681 -0.0427  0.5179  0.1885
16297W        W29711  14.932  16.542  15.380  0.2272  0.0176  0.0058
16298W        W29712  11.510   0.127   0.170 -0.1097  0.0614  0.1540
16299W        W29713   3.642   7.330  10.814 -0.0527 -0.2049 -0.1575
16300W        W29714   8.994   2.179   6.003  0.0679  0.1123 -0.0751
16301W        W29715   7.888   2.024   4.245 -0.0204 -0.3549  0.0583
16302W        W29716  12.940  15.792   5.574 -0.2840  0.0285 -0.3031
16303W        W29717  15.862   1.342   1.087 -0.1979 -0.3007  0.2233
16304W        W29718   8.775  17.463   6.105  0.0438  0.0018  0.1473
16305W        W29719  13.080  12.653   5.458 -0.2459 -0.0057  0.2229
16306W        W29720   7.724  16.491  13.606 -0.4755 -0.0059 -0.0813
16307W        W29721  12.529   5.473   4.281 -0.1804  0.0072  0.2691
16308W        W29722  11.735   5.599   2.599 -0.3482 -0.1696  0.0770
16309W        W29723   3.777   2.682   0.886  0.1301  0.1607 -0.2529
16310W        W29724  14.348   2.590  13.659 -0.0178  0.2876  0.0531
16311W        W29725   0.072   9.151   5.546  0.0619  0.2100 -0.1245
16312W        W29726   9.982   2.672  12.356 -0.1583 -0.0753 -0.1735
16313W        W29727  14.484  14.833  14.841 -0.1035 -0.0234 -0.2923
16314W        W29728  12.374   3.809  14.027 -0.0641  0.0859  0.1292
16315W        W29729   0.924   0.683  11.475 -0.1323 -0.3496  0.2875
16316W        W29730   0.456   4.432  13.816 -0.0703 -0.0224  0.0647
16317W        W29731  14.593  16.345   5.891 -0.0854  0.1469  0.2049
16318W        W29732  15.621  16.661  10.430 -0.0396  0.0609  0.2657
16319W        W29733   5.189   5.890   3.941  0.1692  0.2447 -0.4664
16320W        W29734   3.036  13.877   5.047 -0.0385  0.0864 -0.0247
16321W        W29735  17.773   1.279   5.552  0.0175  0.1995 -0.0107
16322W        W29736  10.003  10.640  14.676 -0.0601 -0.3815  0.0546
16323W        W29737  12.435  10.386  15.642  0.1594 -0.3136  0.1151
16324W        W29738  14.586  17.894  15.292  0.0290 -0.3181  0.1459
16325W        W29739  10.131  10.802  13.301  0.2267 -0.4422  0.1764
16326W        W29740  15.772   0.657   2.982  0.0624  0.2756  0.1639
16327W        W29741  17.307   6.132  13.718 -0.0293 -0.2577 -0.4074
16328W        W29742  16.686   7.022   4.513  0.0469  0.1482 -0.2364
16329W        W29743   3.635   4.329  13.116 -0.2272 -0.0206 -0.4324
16330W        W29744   5.959  11.088  12.369 -0.0291 -0.1419  0.0032
16331W        W29745   5.889   0.201   2.887  0.1466  0.2161 -0.1231
16332W        W29746   5.499   3.401  10.680  0.2431 -0.1437 -0.2782
16333W        W29747  17.040   1.630   0.020  0.0898  0.1117  0.1834
16334W        W29748   3.894  17.553  12.682  0.0077 -0.3582  0.0981
16335W        W29749   3.973   9.261  13.411  0.2691 -0.1811 -0.0078
16336W        W29750   1.858   1.174   3.682 -0.2081  0.1218 -0.0770
16337W        W29751   6.162  15.293  11.845  0.0366 -0.2178  0.1122
16338W        W29752   9.620   1.645  13.461  0.1930  0.3111  0.1588
16339W        W29753  10.902  14.877   3.914  0.5158 -0.1179  0.2042
16340W        W29754  11.389   7.640  13.676  0.0508  0.1932 -0.0826
16341W        W29755  14.150  10.322   3.021 -0.1134 -0.0383 -0.2565
16342W        W29756   1.256  11.730   2.930 -0.0448 -0.3165  0.3146
16343W        W29757  12.325   9.310   2.391 -0.2951 -0.0737 -0.0078
16344W        W29758   3.923   3.718  11.147 -0.3525  0.0270 -0.0726
16345W        W29759  15.902  10.859   5.635  0.1739  0.0765 -0.2108
16346W        W29760   2.100  13.963  14.968  0.0615  0.1169  0.2923
16347W        W29761   1.699  18.074  15.624  0.1077 -0.0635  0.1486
16348W        W29762   6.731  14.145  14.473  0.2111 -0.2590  0.1784
16349W        W29763  13.318   6.861  14.427  0.1082 -0.1701  0.1485
16350W        W29764  17.234   1.830   4.470  0.1875  0.1503  0.2335
16351W        W29765  15.096  11.354   4.217 -0.3850 -0.4780  0.1807
16352W        W29766   1.328  13.182   5.969  0.3245  0.0769 -0.3002
16353W        W29767   7.039   7.139   3.805  0.0912 -0.1353 -0.3118
16354W        W29768  10.440   8.733  16.499  0.1208  0.2229 -0.3057
16355W        W29769   3.955   7.478   1.898 -0.0496  0.0978  0.1125
16356W        W29770   6.556   1.150   5.890 -0.0334  0.1111 -0.0124
16357W        W29771   5.879   8.496   2.643 -0.0389 -0.0776  0.0414
16358W        W29772   5.207  10.297   4.288 -0.1343 -0.3125 -0.0699
16359W        W29773  13.551   5.631  15.060  0.0431 -0.0727 -0.0492
16360W        W29774  11.668   6.018   2.889  0.1214  0.0122 -0.0410
16361W        W29775  11.733  17.305  12.646 -0.4119 -0.1217  0.1221
16362W        W29776   1.958  16.204  12.181  0.1546  0.0531 -0.1298
16363W        W29777   1.073   2.027  13.404 -0.0561  0.1555 -0.1233
16364W        W29778  18.094  13.432  10.167 -0.2333  0.2147  0.2012
16365W        W29779   0.152  16.843  13.778 -0.0269 -0.4050  0.1601
16366W        W29780  17.010   4.921  10.546  0.0519 -0.1159  0.0956
16367W        W29781  18.211  14.229   5.149  0.0125 -0.2203 -0.0327
16368W        W29782   5.830  15.742   5.399 -0.0539 -0.1843  0.3353
16369W        W29783  17.798   6.342  15.534  0.0886  0.0975  0.0814
16370W        W29784   9.497  17.130  12.857  0.2800  0.1727  0.0707
16371W        W29785   1.517  16.394  12.447  0.1383  0.0918 -0.1013
16372W        W29786  14.673   2.975   5.325 -0.2014  0.1914  0.0607
16373W        W29787   0.827  11.746   3.803  0.0816  0.0748 -0.0994
16374W        W29788  14.709   4.402  16.058  0.1082 -0.0799  0.0297
16375W        W29789   5.200  11.670   4.025 -0.2666 -0.0910  0.0301
16376W        W29790  15.312   4.813   2.810  0.3559  0.0274  0.0876
16377W        W29791   2.811   4.193  11.021  0.0533 -0.1100  0.1955
16378W        W29792  13.132  17.169  15.439 -0.0566 -0.0773  0.0900
16379W        W29793   1.634   5.060   2.292  0.0494 -0.1444  0.3039
16380W        W29794   2.591   4.683   5.148 -0.0828  0.1286 -0.0301
16381W        W29795  15.896   6.024  13.028  0.1847 -0.0509 -0.1022
16382W        W29796  11.021   4.255  12.167 -0.0838 -0.3837 -0.1915
16383W        W29797  14.466   0.867  16.084  0.1774 -0.0949 -0.1402
16384W        W29798  10.445  13.787   2.940 -0.3140 -0.0057 -0.3894
16385W        W29799   1.645  10.243  14.582  0.1113  0.0803 -0.0662
16386W        W29800  13.359   3.986  13.798  0.0591 -0.0629  0.0921
16387W        W29801   7.488  13.856   5.477 -0.2525  0.0588  0.0173
16388W        W29802   8.713  13.673  15.305  0.0371  0.1746 -0.0044
16389W        W29803   2.295   6.864  11.554  0.1033 -0.2306 -0.2261
16390W        W29804  15.375  17.214   1.780 -0.0540  0.0821 -0.2346
16391W        W29805  14.673   4.268   1.334  0.1180 -0.0672 -0.1008
16392W        W29806  11.753  10.533  14.665 -0.2076 -0.2305  0.1971
16393W        W29807   3.099   7.092  16.310  0.0671  0.0431  0.0408
16394W        W29808  14.395  16.418   0.490 -0.0175  0.0356 -0.1991
16395W        W29809  10.973  18.249  12.121 -0.3150  0.0266 -0.0523
16396W        W29810   5.437   3.570   2.736 -0.0020 -0.1096  0.0538
16397W        W29811  10.397   6.487   0.980  0.0563 -0.1975 -0.1291
16398W        W29812  11.287   1.750   4.002  0.2824 -0.1725 -0.0916
16399W        W29813   0.941  12.686   2.302 -0.2095 -0.0136 -0.1942
16400W        W29814  12.410  15.101  12.208  0.1084  0.0560 -0.0184
16401W        W29815  13.573  14.155  13.260  0.0320 -0.1259  0.4030
16402W        W29816  13.991   2.850   0.306  0.1692  0.1430  0.2402
16403W        W29817  14.889   8.627   4.781  0.1429  0.2575 -0.1119
16404W        W29818  14.671   6.909  16.375 -0.0154 -0.0780  0.1649
16405W        W29819   0.054   2.090  11.166  0.0624 -0.1714  0.0462
16406W        W29820   2.240  11.920   1.161  0.1868 -0.1270 -0.0163
16407W        W29821  17.560  11.596   2.466 -0.0613  0.0777 -0.0080
16408W        W29822  10.324  15.112  13.370 -0.0410  0.1010 -0.0248
16409W        W29823  14.593  15.184   2.131 -0.2245 -0.1910  0.1788
16410W        W29824   9.146   7.930   1.532 -0.1368 -0.1004 -0.1080
16411W        W29825  15.124   3.012   3.632 -0.3154 -0.1926  0.0551
16412W        W29826   7.753  16.300  11.207  0.2706 -0.0543 -0.0579
16413W        W29827   2.649  15.751  14.764  0.1892 -0.0361  0.1659
16414W        W29828   0.591   7.024  14.240 -0.3711 -0.0467 -0.2300
16415W        W29829  15.068   0.700  13.021 -0.0425 -0.1508 -0.0345
16416W        W29830   1.140   5.345  10.326 -0.1730 -0.2212  0.1345
16417W        W29831   1.265   8.401  14.099  0.1037  0.1339 -0.1137
16418W        W29832   3.066  10.883   4.134  0.0685 -0.1981 -0.0495
16419W        W29833  16.015   8.919  12.308 -0.3237 -0.3723 -0.0870
16420W        W29834  13.456  17.135   5.882  0.2956  0.1452 -0.1434
16421W        W29835  17.486   3.338  16.354  0.2992  0.0334  0.2863
16422W        W29836  10.825   6.265  12.604 -0.0301  0.4386 -0.0621
16423W        W29837  13.811   2.037  14.525 -0.0219 -0.0042  0.0880
16424W        W29838  12.575  13.326  10.891 -0.2286 -0.2592  0.0749
16425W        W29839   5.601  12.311  15.319  0.0693 -0.0893  0.0640
16426W        W29840  17.183  17.581  11.682 -0.0960  0.0555 -0.0045
16427W        W29841  15.559   1.254   2.786  0.1961 -0.3859 -0.1966
16428W        W29842   8.118  13.301   5.148  0.3226 -0.3500  0.0330
16429W        W29843   0.191   1.219   9.919 -0.1582  0.5938  0.2379
16430W        W29844   8.067  17.949  15.524 -0.0514  0.1051  0.1829
16431W        W29845   8.858  14.547   2.146  0.0423 -0.0319 -0.0170
16432W        W29846   4.300   5.456  11.714 -0.1703  0.2983  0.0064
16433W        W29847   4.194  15.095  12.427  0.0127 -0.1098  0.2256
16434W        W29848   0.598   5.222   1.373  0.1845 -0.1358  0.0468
16435W        W29849   9.419  16.809  14.557 -0.2942  0.0067  0.0680
16436W        W29850  17.107   2.802   3.959  0.0130  0.2417  0.0318
16437W        W29851   4.461  14.804  12.672  0.0012  0.1089 -0.1230
16438W        W29852  11.099   8.631   2.041  0.2741  0.0597  0.0801
16439W        W29853  17.915   6.591   4.807  0.1691  0.1615 -0.0890
16440W        W29854  14.387  10.997   3.696 -0.2544 -0.1694 -0.0538
16441W        W29855   5.621   1.015   0.153  0.2274  0.2039  0.2057
16442W        W29856  16.705  10.492   2.630 -0.0838  0.0179 -0.0126
16443W        W29857   1.729  12.670  12.709 -0.1655  0.1278 -0.2264
16444W        W29858   7.441  11.722   5.630 -0.0638 -0.0264  0.0011
16445W        W29859   3.475   9.644   2.099 -0.0417 -0.2262 -0.0185
16446W        W29860   7.290  16.929   5.568 -0.0253 -0.2360 -0.2989
16447W        W29861   1.560   5.776   4.072  0.0547  0.4744 -0.2220
16448W        W29862   2.085   3.211  14.436 -0.0983  0.1333  0.1231
16449W        W29863   9.406  15.674   1.755 -0.1755 -0.0758 -0.0782
16450W        W29864  15.127   5.839   1.136 -0.2605 -0.2751  0.1089
16451W        W29865   5.870  13.597  14.163 -0.3856 -0.0351  0.0302
16452W        W29866  10.243  11.626  13.345  0.0346  0.2766  0.3462
16453W        W29867  17.222   2.885  11.326 -0.1241  0.1641 -0.1958
16454W        W29868   4.063   0.474  14.887  0.2762  0.1514  0.0671
16455W        W29869   0.603   0.558   0.333  0.2496  0.0730 -0.0243
16456W        W29870   2.102   7.183   5.686 -0.2482 -0.0158 -0.1956
16457W        W29871   5.270   3.146   4.389 -0.0158  0.1289  0.1761
16458W        W29872   6.025   5.130   4.309  0.0665  0.0601  0.1000
16459W        W29873   9.830  10.382  15.159 -0.2345  0.2712  0.1579
16460W        W29874  11.574  13.997   2.157  0.0118 -0.0807  0.1351
16461W        W29875  14.759  12.890  11.666 -0.3405 -0.0786  0.1839
16462W        W29876  16.086  14.761   4.055  0.0537  0.2380 -0.0662
16463W        W29877   5.636   3.821   6.413  0.0825  0.2003  0.0769
16464W        W29878   1.528   7.465   3.330  0.0268  0.0433 -0.1938
16465W        W29879   0.317   5.127   4.305  0.1972 -0.1229 -0.0114
16466W        W29880  10.515  10.074   4.679 -0.1582 -0.2021 -0.0198
16467W        W29881  11.187  13.725   3.739 -0.0692  0.0571  0.1735
16468W        W29882  16.914   0.564   2.203  0.3301  0.2679  0.0425
16469W        W29883  12.830   7.610  10.579 -0.2065  0.0438  0.3918
16470W        W29884  14.594  16.839  11.654  0.2208  0.1369  0.2591
16471W        W29885  12.407  10.582   5.128 -0.1583 -0.0886  0.1347
16472W        W29886   5.654   7.894   2.647  0.3702  0.1132  0.0302
16473W        W29887  11.641   7.287   3.328 -0.4322 -0.2316  0.1009
16474W        W29888   3.352   8.255   1.621  0.1838 -0.1224 -0.0624
16475W        W29889  13.416  14.548   2.972 -0.0340 -0.0569  0.0027
16476W        W29890   2.833   7.821  13.178  0.0916 -0.0624  0.3387
16477W        W29891   7.479  14.787   0.196  0.0037 -0.2373 -0.2648
16478W        W29892   8.067  13.266  11.418 -0.3246  0.1782  0.3689
16479W        W29893  17.923   5.578   4.890 -0.0848 -0.0918  0.1213
16480W        W29894   7.529   1.555  15.539  0.2911 -0.5401  0.0298
16481W        W29895  17.308  12.084  13.313  0.0806 -0.0976  0.0975
16482W        W29896   3.643  17.971  12.793 -0.1077 -0.3437 -0.1962
16483W        W29897   0.797   8.034   0.630  0.0178 -0.1512 -0.3613
16484W        W29898   3.558  11.737  11.674  0.1146 -0.1014 -0.1681
16485W        W29899   6.057  11.802   1.632  0.2893 -0.0678 -0.0426
16486W        W29900  11.099  13.258  16.046 -0.0067 -0.4074  0.0437
16487W        W29901  15.402   6.003   5.427 -0.0629 -0.1022  0.1109
16488W        W29902  17.634   2.707   0.631  0.0654  0.0333 -0.0027
16489W        W29903  14.526   5.609  15.361 -0.0160  0.0216  0.0283
16490W        W29904   9.128   8.355  15.726 -0.3052  0.1851  0.1754
16491W        W29905  17.203  10.435   1.670 -0.2330  0.1769 -0.3725
16492W        W29906  17.818   5.231   1.804  0.0264  0.1119 -0.0052
16493W        W29907   7.421  13.059   1.347 -0.0913 -0.0249  0.1031
16494W        W29908   7.738   6.414   2.945  0.3617 -0.1439  0.1503
16495W        W29909   6.321   2.277   1.567  0.2968 -0.1423 -0.5137
16496W        W29910  11.642  15.013   4.651 -0.3818 -0.1915  0.0496
16497W        W29911   5.974  15.614  11.018 -0.1456  0.2177 -0.1290
16498W        W29912   9.200   7.479   4.970  0.0909 -0.5119  0.0161
16499W        W29913   4.561   7.759   1.873 -0.2231  0.1772 -0.0096
16500W        W29914  11.980   8.971   2.672  0.0491  0.2903  0.0058
16501W        W29915  15.530  10.699   5.374  0.2059  0.0114  0.1224
16502W        W29916  11.343  13.966   0.089 -0.0542  0.0903  0.1898
16503W        W29917  14.010   5.772   4.747 -0.1810  0.0401 -0.2644
16504W        W29918   0.406   1.529   2.288  0.0479 -0.0205  0.1592
16505W        W29919   4.502   2.851   4.567 -0.3345 -0.0120  0.1895
16506W        W29920  15.852   2.488  11.123  0.0904 -0.0333 -0.0241
16507W        W29921   4.160  10.015  12.250  0.0549 -0.0912 -0.0679
16508W        W29922  11.631   1.122   2.586 -0.0853 -0.2015  0.2080
16509W        W29923  11.858  12.698  13.193 -0.0471  0.1083  0.0346
16510W        W29924   2.648  11.624  11.760 -0.1748 -0.1886 -0.1178
16511W        W29925  18.014   8.164   1.160  0.2433  0.2631  0.0667
16512W        W29926   7.824   6.866  12.228 -0.0973  0.2628  0.0470
16513W        W29927   7.886   8.038   1.461  0.0561  0.0735 -0.1341
16514W        W29928  13.086   1.170   1.645 -0.1499  0.2428 -0.1002
16515W        W29929  11.057  17.754  12.996  0.2744  0.1857 -0.2374
16516W        W29930  14.653   8.368  16.481  0.0627  0.2330  0.0347
16517W        W29931  16.748  14.360   0.626  0.1632 -0.1159 -0.2850
16518W        W29932  12.613  10.084   2.812 -0.2643 -0.0941  0.1734
16519W        W29933  16.471  10.749  11.557 -0.1247  0.1923 -0.1238
16520W        W29934   2.478  12.290  16.387 -0.1059  0.2738  0.0006
16521W        W29935  16.270  16.464   5.492 -0.0577 -0.1871 -0.2843
16522W        W29936  10.064  12.029  13.923  0.1715  0.2220  0.0632
16523W        W29937  13.161   8.377   2.973 -0.2169 -0.1826 -0.0620
16524W        W29938  16.084   0.449  14.197  0.1914  0.2246 -0.2857
16525W        W29939  17.757  14.906  16.485 -0.0343 -0.0242 -0.0639
16526W        W29940  11.088   5.617  13.290 -0.1682  0.0844 -0.0668
16527W        W29941  10.649   8.641   1.057  0.0125  0.1042 -0.0698
16528W        W29942  13.389  16.035   5.798 -0.0387  0.1622  0.2063
16529W        W29943  17.859  15.950  11.433  0.2214 -0.3002 -0.0925
16530W        W29944   6.398  15.964   4.121  0.1933 -0.1975  0.0914
16531W        W29945  12.861   9.918   1.729  0.2175  0.1816 -0.2022
16532W        W29946  16.612  16.078   0.525 -0.3225 -0.2427  0.0205
16533W        W29947  15.134  16.456  13.668 -0.0933  0.0451 -0.2020
16534W        W29948   1.315  15.664  11.833 -0.0414 -0.2518  0.2043
16535W        W29949  11.304   8.231   0.806 -0.0209  0.1249 -0.4516
16536W        W29950  14.686   5.032   2.074 -0.0117 -0.0573 -0.2077
16537W        W29951  13.103   0.799  14.126 -0.1387 -0.0186 -0.0344
16538W        W29952  16.166   6.042  10.614  0.0526  0.3262  0.0351
16539W        W29953   1.217   4.918  15.723  0.0117 -0.1888  0.1544
16540W        W29954   0.861  11.256   2.052  0.1708 -0.0171 -0.0009
16541W        W29955  13.275  17.604   1.642 -0.0931  0.0380  0.0820
16542W        W29956  12.061   8.773  13.363  0.0087  0.0588  0.0130
16543W        W29957  10.412   7.645  15.607  0.2179  0.0282 -0.3387
16544W        W29958   8.368   6.910  11.446  0.0535  0.0804 -0.0597
16545W        W29959   4.140  15.971  11.388 -0.0277  0.0965  0.0810
16546W        W29960  14.020   4.598   5.195 -0.1573 -0.0176  0.0825
16547W        W29961   8.698   1.390   3.375  0.2227  0.0186  0.1912
16548W        W29962  13.098   0.309   5.740  0.1226 -0.2400  0.0615
16549W        W29963   3.895   9.693   4.033 -0.0109  0.0911 -0.0119
16550W        W29964  11.826  17.310   2.646 -0.0112  0.2859 -0.1647
16551W        W29965  16.630  14.612   2.650  0.0759 -0.0494  0.0005
16552W        W29966  17.316  12.840   1.261  0.2771 -0.1006 -0.0063
16553W        W29967   2.978   1.957   1.113 -0.0985  0.1566  0.1188
16554W        W29968   4.891  15.754  15.312 -0.0092  0.2766  0.3996
16555W        W29969   1.026   5.711   2.680  0.1892 -0.2103  0.0042
16556W        W29970   4.467  17.074   3.725 -0.3292 -0.0523 -0.0585
16557W        W29971   6.839  13.751   1.476 -0.1559  0.0225 -0.1961
16558W        W29972   7.421  11.381   4.853 -0.0246  0.2318 -0.3518
16559W        W29973   4.843  18.024   6.320  0.0360 -0.0839  0.2486
16560W        W29974  15.542   4.218  16.338  0.0244  0.0829  0.0856
16561W        W29975  12.039   7.782   6.311  0.1044  0.0093  0.0406
16562W        W29976   3.134   4.032  15.186  0.2213 -0.0122 -0.0037
16563W        W29977  13.388  14.799   5.136  0.0215  0.0528  0.1974
16564W        W29978   1.845   5.628  12.727 -0.1803  0.1079  0.0793
16565W        W29979  14.922  10.768  10.481  0.0280 -0.1317  0.1903
16566W        W29980   3.493  18.247   0.791  0.0855  0.0500  0.1406
16567W        W29981   6.745   0.673  12.105  0.0563  0.0353  0.1169
16568W        W29982  17.881  17.945   1.390  0.1190 -0.2079  0.0006
16569W        W29983   1.319   3.327   5.113  0.1751  0.0180 -0.1465
16570W        W29984  14.123   8.983  10.848 -0.0953  0.0885 -0.0243
16571W        W29985   9.299   2.096   1.659 -0.2780  0.0456  0.3273
16572W        W29986   0.120   1.445   0.465  0.0707 -0.0429  0.0034
16573W        W29987  10.219   7.701   4.073  0.0263  0.2740  0.1240
16574W        W29988  10.514   3.057  13.858  0.0868 -0.1371 -0.2468
16575W        W29989  15.300   7.873  12.236 -0.0476  0.0622 -0.0587
16576W        W29990  11.337  17.572   1.436  0.2692 -0.1035 -0.1805
16577W        W29991  14.919   7.390  11.461  0.0077 -0.0976 -0.2614
16578W        W29992   8.460   3.772  12.043 -0.0566 -0.0539 -0.1097
16579W        W29993  10.665  10.548  11.093 -0.0260 -0.1342  0.0111
16580W        W29994  15.531  18.055   6.296  0.0468  0.1199 -0.1799
16581W        W29995   8.011  12.869  14.997 -0.1310  0.1738  0.2256
16582W        W29996  13.634   4.480   2.752  0.0415 -0.0148  0.0139
16583W        W29997  10.776   0.570  12.182 -0.0361 -0.2123 -0.1630
16584W        W29998  13.893  14.154   5.170  0.0376 -0.1513  0.1948
16585W        W29999   8.402   8.741  16.439  0.2955 -0.2420  0.2095
16586W        W30000  14.556   2.226  15.308 -0.1320 -0.1801  0.1018
16587W        W30001  17.488   5.053  10.787  0.2121 -0.1322  0.0316
16588W        W30002   8.762  11.362   3.154  0.1063 -0.0230  0.2956
16589W        W30003   0.202   3.259   2.398 -0.0050 -0.2531 -0.6178
16590W        W30004  14.211  11.033  12.992  0.1024  0.2335  0.0629
16591W        W30005   0.028   6.670   3.901  0.1627  0.0782  0.0544
16592W        W30006  14.153  10.760  11.099  0.0335  0.0244 -0.1934
16593W        W30007  11.834   6.288   3.695  0.2956 -0.1744  0.1804
16594W        W30008   0.179   9.213  12.315 -0.0113  0.1384 -0.2925
16595W        W30009  14.536   5.025  11.405 -0.0467  0.0240  0.0496
16596W        W30010  10.567   5.147  12.129 -0.2234  0.1503  0.0930
16597W        W30011  15.714   5.882   3.614 -0.0960  0.2661 -0.0524
16598W        W30012  10.353  13.752  14.076  0.0092 -0.2512  0.2573
16599W        W30013  17.156   4.735   3.334 -0.1844  0.0900  0.0450
16600W        W30014   0.324   8.888   0.893  0.0788  0.0343  0.0123
16601W        W30015  11.421   6.835  12.839 -0.0803 -0.0085 -0.0443
16602W        W30016   2.732   3.265  14.800  0.3241  0.2110  0.3022
16603W        W30017  10.117   6.280  10.098  0.2063 -0.2222  0.1622
16604W        W30018   5.954   5.372  13.618 -0.0104  0.2198  0.1187
16605W        W30019   3.279   8.585  11.206  0.2057 -0.2318  0.3878
16606W        W30020  11.529   4.302  14.844  0.1754  0.1128 -0.0562
16607W        W30021   2.796   0.214   4.661  0.0473  0.2240 -0.1838
16608W        W30022  11.660   8.886  16.281  0.1176 -0.1652 -0.2609
16609W        W30023   1.873   1.868  15.095 -0.0115  0.0379  0.0227
16610W        W30024  14.171  11.168  16.168 -0.0173  0.0300 -0.0771
16611W        W30025  16.513   7.564  15.611  0.0957  0.2127  0.0658
16612W        W30026  15.540   3.214   3.368 -0.1848 -0.0468  0.2178
16613W        W30027   4.901   9.649   5.000  0.1265 -0.0362  0.2612
16614W        W30028   2.309   6.230   2.524  0.0954 -0.1978 -0.1218
16615W        W30029  17.243   2.737  15.667 -0.1439  0.2480  0.1866
16616W        W30030  17.806   1.187   3.225 -0.0305  0.0852  0.1609
16617W        W30031  11.298   8.637  15.984 -0.2565  0.0083 -0.0087
16618W        W30032  15.956   0.751  15.877 -0.0292  0.0284 -0.0787
16619W        W30033  14.551   7.557   0.538 -0.0401  0.3364  0.0162
16620W        W30034   1.443  13.772   0.316  0.1729  0.0913  0.0976
16621W        W30035   5.930   3.210  12.895  0.1103  0.0954 -0.0392
16622W        W30036  17.047   0.635  11.121 -0.1289  0.4989  0.0533
16623W        W30037   9.573  15.646   4.818  0.0569  0.1616  0.2070
16624W        W30038   0.370   5.531  13.050 -0.0889  0.0562  0.0560
16625W        W30039   3.727   8.504   2.424  0.1148 -0.1982  0.0154
16626W        W30040   4.910   7.049   4.667  0.1045 -0.4407  0.0882
16627W        W30041   2.213  13.279  16.236 -0.1110  0.1334 -0.3231
16628W        W30042   8.903   0.123  14.695  0.0247 -0.0138  0.1781
16629W        W30043  12.877  14.568  12.697 -0.0577 -0.0602  0.0814
16630W        W30044  12.205   5.953  11.501  0.0193 -0.2445 -0.0005
16631W        W30045   8.174  10.208   2.146 -0.0044  0.2144 -0.1588
16632W        W30046  16.200   3.008   1.097  0.1098  0.0772  0.0703
16633W        W30047   0.574   9.673   1.429  0.2605 -0.1239 -0.2765
16634W        W30048  10.590   9.773  15.582 -0.0262 -0.2669  0.1826
16635W        W30049  10.233  12.384  11.306 -0.2632  0.0772  0.0195
16636W        W30050  16.304   7.067  10.224  0.1939 -0.0253  0.1124
16637W        W30051   9.888  17.352  12.630 -0.1274 -0.0834 -0.0718
16638W        W30052  11.647  13.754   4.036 -0.0256 -0.1442  0.0274
16639W        W30053   8.316   7.469  11.519 -0.3246  0.0985 -0.0831
16640W        W30054   5.968  14.766   3.203  0.0089 -0.4411 -0.0293
16641W        W30055  13.748   6.560   0.712  0.1840  0.1053  0.3579
16642W        W30056  15.298   5.648  15.864 -0.0342 -0.2366  0.2207
16643W        W30057  10.889  16.939   0.818 -0.1003 -0.0709  0.2042
16644W        W30058   9.588   2.771  11.138 -0.0104 -0.1304  0.1816
16645W        W30059  12.419  11.104  13.162  0.2895  0.0297 -0.4035
16646W        W30060  13.144  11.759  16.463 -0.1564  0.5404 -0.2340
16647W        W30061   3.287   7.293  12.295  0.0666 -0.3641 -0.2378
16648W        W30062  17.043   8.134  10.458 -0.2812 -0.0525 -0.2949
16649W        W30063   8.641  13.194   5.119 -0.1423  0.1259  0.0124
16650W        W30064   1.663   0.739   3.224  0.1191 -0.0433  0.1118
16651W        W30065  10.625  12.191   1.210  0.0202  0.1161 -0.1623
16652W        W30066   5.611  11.656   5.422  0.2156  0.2088  0.2173
16653W        W30067   1.568   0.445   1.919  0.3509  0.0034 -0.1085
16654W        W30068   5.462  13.858   4.637  0.2700 -0.1164 -0.1431
16655W        W30069  15.621  18.003  12.302  0.1697 -0.0257  0.4548
16656W        W30070   2.284  18.053   5.916 -0.2965  0.0857  0.4050
16657W        W30071  15.685   8.995  13.227  0.2698  0.0554  0.0271
16658W        W30072  10.943   5.642   3.791 -0.0563 -0.0239  0.2027
16659W        W30073  13.937  10.616  14.160  0.3484 -0.0008 -0.1629
16660W        W30074   0.852   9.370   3.082  0.1864  0.0588 -0.1993
16661W        W30075  11.036   0.910   5.097  0.1915  0.1337 -0.2760
16662W        W30076   9.530   0.580   0.680 -0.0003  0.3316 -0.2130
16663W        W30077   1.712  13.599  14.187 -0.3129  0.4923 -0.0690
16664W        W30078  15.182  15.509   6.847 -0.3691 -0.2199 -0.0830
16665W        W30079  13.862  17.067   3.405  0.0501 -0.0075 -0.1492
16666W        W30080   4.213   4.857   2.558  0.2158  0.0741  0.2188
16667W        W30081  16.531   4.303   4.375 -0.0670  0.1215 -0.2474
16668W        W30082  11.478   8.017   4.491  0.0523 -0.1128  0.1421
16669W        W30083  13.482   2.590   0.495  0.0584 -0.0036 -0.0477
16670W        W30084   2.350   0.458   4.802 -0.0393 -0.1854  0.2827
16671W        W30085  15.233  13.004  13.628  0.0977  0.1060  0.1249
16672W        W30086   6.658  10.746   5.159  0.1016 -0.3456  0.2539
16673W        W30087  18.087   8.110   2.128 -0.2773  0.1365 -0.3161
16674W        W30088  11.361   2.811  15.113 -0.0644 -0.1153  0.1240
16675W        W30089   9.253  14.815   5.202  0.1818 -0.0814 -0.1352
16676W        W30090  17.666   7.279   3.750  0.0448  0.0172  0.1766
16677W        W30091  11.104   1.879  14.158  0.0167 -0.0864 -0.0887
16678W        W30092  12.245   4.124  12.141 -0.4148  0.1665  0.1696
16679W        W30093  10.016  13.191   1.536  0.1014 -0.1225 -0.2453
16680W        W30094  10.224  13.459   3.799 -0.0469  0.0405  0.1074
16681W        W30095  18.066  10.681   2.460  0.0289  0.0075  0.1432
16682W        W30096  18.004  17.704  12.338  0.0482  0.0638  0.1028
16683W        W30097  11.126   5.905  11.130 -0.0086 -0.0700 -0.2387
16684W        W30098   7.567  16.243  10.441  0.1230  0.1882 -0.1933
16685W        W30099   7.380  14.136  13.474  0.2479  0.0625 -0.0866
16686W        W30100  13.408   2.976   6.300  0.0610 -0.2371 -0.2626
16687W        W30101   0.517   2.865  11.936  0.3955 -0.1135 -0.0672
16688W        W30102  15.836  11.959  16.424  0.0536  0.0382 -0.3365
16689W        W30103  10.366  17.018  14.551 -0.1763 -0.0125  0.1191
16690W        W30104  18.224  15.167  11.805  0.1878 -0.1283 -0.1193
16691W        W30105  15.055   2.538   5.566 -0.0198 -0.1086  0.0336
16692W        W30106  12.335   5.190   0.202  0.2047  0.1332 -0.0771
16693W        W30107   4.189   3.351   5.966  0.0319 -0.2419 -0.2521
16694W        W30108   0.037  10.860  10.447 -0.2003 -0.0882  0.2078
16695W        W30109   8.165   3.289  15.156 -0.0658  0.0086  0.0889
16696W        W30110   2.114  15.760  16.119  0.2124  0.2707  0.0671
16697W        W30111  16.908  17.437   4.922 -0.0905 -0.1128  0.2926
16698W        W30112   9.655  10.142  11.962 -0.1799  0.1713 -0.0729
16699W        W30113   0.370   6.162  12.379  0.0388  0.1595 -0.1525
16700W        W30114  12.386   5.401  14.244 -0.2034  0.1917  0.1735
16701W        W30115   1.407  14.024   0.781  0.1589  0.0623 -0.1060
16702W        W30116   2.546   4.716   4.631 -0.0976  0.0397  0.1030
16703W        W30117   7.028   6.250   6.198 -0.3084  0.1109 -0.0087
16704W        W30118   9.490  13.407   0.305 -0.1060  0.0871 -0.4552
16705W        W30119  16.277   4.588   3.269 -0.0736  0.1065 -0.2182
16706W        W30120  10.242   0.609  13.657  0.0187 -0.1132 -0.1001
16707W        W30121   8.122  12.436   2.878 -0.0168  0.0381  0.0828
16708W        W30122   1.542  15.222  13.609  0.1165  0.2783 -0.1669
16709W        W30123  14.417   7.278  16.154 -0.2048 -0.4100  0.2268
16710W        W30124  15.681   3.735  10.483  0.1354 -0.0537 -0.3065
16711W        W30125   2.739   3.616   2.858  0.1444  0.1208  0.1417
16712W        W30126  11.558  16.844  15.867 -0.1337  0.1449 -0.0200
16713W        W30127  13.195  16.299   5.432  0.1554 -0.0489 -0.2658
16714W        W30128  16.541   4.000   1.828 -0.3520  0.1434 -0.0018
16715W        W30129   1.838   8.434  14.651 -0.1932  0.2334  0.0026
16716W        W30130  17.389   5.934   5.655 -0.1133  0.2044  0.0204
16717W        W30131  14.118   8.206  14.145  0.0646 -0.4596 -0.4052
16718W        W30132  14.274   3.028  13.819 -0.0792  0.0146 -0.3060
16719W        W30133  14.809  16.599   4.581  0.4894  0.0357 -0.0838
16720W        W30134   9.869   9.173   2.570 -0.0576 -0.0852  0.0355
16721W        W30135  17.763  16.573   1.058  0.0418 -0.1654  0.0994
16722W        W30136   1.517   0.531   0.786  0.0186 -0.2434 -0.3008
16723W        W30137   6.670   6.910   5.519  0.2024 -0.1663 -0.0755
16724W        W30138   1.518  17.374  11.628 -0.2269 -0.0118  0.2432
16725W        W30139   8.881   3.287  10.842 -0.1053 -0.1779  0.1015
16726W        W30140   8.623   1.002  11.340 -0.0925  0.0381  0.0148
16727W        W30141   5.863  11.001   0.438 -0.1609  0.1402 -0.0870
16728W        W30142   0.780   3.419   3.182 -0.1060 -0.2860  0.0139
16729W        W30143   0.760   1.169  10.150 -0.0403 -0.1636  0.1973
16730W        W30144  14.646  17.938  16.170  0.1750  0.0945 -0.4075
16731W        W30145  16.047  11.210  16.432 -0.1239  0.0326  0.2953
16732W        W30146  10.905  10.436  14.470  0.1824 -0.0484  0.0614
16733W        W30147  16.181   3.858   1.561  0.2531  0.2538  0.0635
16734W        W30148  13.258   6.948  11.610  0.1841  0.2605 -0.1359
16735W        W30149   3.947  10.971  11.470  0.0491 -0.1864 -0.1648
16736W        W30150  11.935  15.060  14.171  0.1988  0.3389 -0.5220
16737W        W30151  13.139   0.942  12.114 -0.1466 -0.0910  0.0584
16738W        W30152   1.000  16.145  13.223  0.4638 -0.3026  0.2073
16739W        W30153  16.596  15.264   4.490 -0.0405  0.0899 -0.1138
16740W        W30154   1.661  10.352  15.119 -0.0642 -0.4027 -0.1077
16741W        W30155  14.338  16.867   4.737  0.2098 -0.0073 -0.4614
16742W        W30156   4.896   0.175  14.868 -0.0032 -0.0217 -0.0365
16743W        W30157   1.719  18.085   4.511  0.1084  0.0320 -0.0473
16744W        W30158  17.486   1.849   5.038  0.0373  0.2177  0.1256
16745W        W30159  16.689   8.928   5.799 -0.1204 -0.1761  0.1271
16746W        W30160  12.844   4.083  10.018  0.0405 -0.1437  0.4630
16747W        W30161  17.040   6.299   2.425 -0.4152 -0.3099  0.0007
16748W        W30162  17.046   0.281   0.350  0.2209 -0.2774  0.2087
16749W        W30163   9.951  11.284   4.951  0.1190  0.0385  0.0029
16750W        W30164  18.175   3.615  11.977 -0.1268  0.1160  0.1634
16751W        W30165   5.035   8.528   2.364  0.0938 -0.1737 -0.1109
16752W        W30166  12.562   7.490   5.051  0.0978  0.1079  0.2562
16753W        W30167  10.104  15.732   2.379 -0.1480 -0.3045 -0.0677
16754W        W30168  15.288   1.193  11.580  0.0493  0.0018  0.2043
16755W        W30169   1.551   9.544  10.980 -0.0241 -0.1070 -0.0088
16756W        W30170   8.943  12.697   3.007  0.0115 -0.0234 -0.0639
16757W        W30171   4.974   3.521  13.863 -0.0396  0.2044 -0.1345
16758W        W30172  12.852  17.712  11.458  0.0453 -0.1156 -0.0502
16759W        W30173  17.252   6.112  10.189  0.1125 -0.1310  0.1365
16760W        W30174  12.181  17.724   6.477  0.0031 -0.2583 -0.1135
16761W        W30175   1.217  17.114   4.041  0.2275 -0.1215  0.1620
16762W        W30176   3.582   7.846  10.939 -0.3414  0.2927 -0.3179
16763W        W30177   6.470   8.163  13.197 -0.0126 -0.0338 -0.2309
16764W        W30178  12.260  10.246  11.416 -0.2385  0.0731 -0.0498
16765W        W30179   5.331   7.404   4.799  0.0083  0.0498  0.1041
16766W        W30180  13.755   6.019   3.445 -0.0040 -0.0248 -0.0272
16767W        W30181   2.015   3.404   5.935 -0.1430  0.0114 -0.0965
16768W        W30182  15.913  18.265  15.381  0.1920  0.1136 -0.0711
16769W        W30183   6.815   4.429  12.170 -0.2220 -0.0559 -0.2347
16770W        W30184  17.439  16.508  13.909 -0.0520  0.3031  0.2676
16771W        W30185   1.575   6.985   2.320 -0.2332 -0.3218 -0.0815
16772W        W30186   0.229  11.738  15.102 -0.1627  0.1415 -0.1740
16773W        W30187   0.364   2.853   0.036 -0.0525 -0.0347  0.2636
16774W        W30188  10.107  12.067   0.363 -0.1670 -0.0950 -0.1583
16775W        W30189  13.177  13.693  13.081 -0.3265 -0.1345 -0.1059
16776W        W30190   4.851   0.923  11.288 -0.1181  0.0334  0.1757
16777W        W30191  16.435   7.573   2.176  0.2330  0.0558  0.0393
16778W        W30192  14.359  15.860   5.065  0.0246 -0.0081 -0.1876
16779W        W30193  17.263   9.895  14.725  0.2568 -0.4454  0.0351
16780W        W30194  15.335   1.419   4.348  0.3653  0.0974  0.2372
16781W        W30195  10.363  12.875   1.164  0.1688 -0.3332 -0.1878
16782W        W30196   5.682   4.527  15.570  0.1204 -0.1835 -0.1083
16783W        W30197   1.910   1.442   0.109  0.0160  0.1249  0.0377
16784W        W30198   7.195  15.636  13.200  0.0963  0.0173 -0.0413
16785W        W30199   7.359  11.247  14.114 -0.0950 -0.0761 -0.1801
16786W        W30200   2.603   7.700   2.767 -0.0769 -0.2573 -0.0049
16787W        W30201  10.850   6.414  15.993 -0.2036  0.1264  0.0161
16788W        W30202   3.494  17.955  16.425 -0.3421 -0.1400 -0.3097
16789W        W30203  10.940  14.378  12.720 -0.0526  0.4537 -0.0287
16790W        W30204   9.665  18.061   1.462  0.0157  0.1126 -0.0466
16791W        W30205   3.528   2.876   3.122  0.2760  0.0684  0.1273
16792W        W30206   9.730   5.933   3.169 -0.0892  0.0987 -0.2576
16793W        W30207   5.854   4.875  10.504 -0.1717 -0.3659 -0.1138
16794W        W30208   3.946   5.435  15.909 -0.1665  0.4384 -0.0376
16795W        W30209   6.453   3.651   3.611 -0.0593  0.0684 -0.2419
16796W        W30210   7.857  12.839   1.417 -0.0110 -0.2145  0.3287
16797W        W30211   1.689  12.009   1.333 -0.1268 -0.3058 -0.0930
16798W        W30212  17.504   2.032  10.881  0.0655 -0.0814  0.3431
16799W        W30213  11.499  18.146  15.962  0.1724  0.0925 -0.0801
16800W        W30214   4.167   6.815   2.315 -0.2378 -0.0181  0.3240
16801W        W30215   1.235  14.300   1.776 -0.0818 -0.1797  0.1104
16802W        W30216  12.435  14.895  13.156  0.4368  0.3193 -0.0948
16803W        W30217   6.043   6.883  12.898 -0.0056 -0.0544 -0.0762
16804W        W30218  17.278   9.479  15.086 -0.3372  0.3859 -0.0815
16805W        W30219   6.337   1.460  14.845  0.1844  0.0150  0.2062
16806W        W30220  15.874  12.465  12.901 -0.1314 -0.0256  0.0526
16807W        W30221   1.380   0.311  15.307  0.2543 -0.1877  0.0129
16808W        W30222   0.161   6.260  10.324  0.0108 -0.0109 -0.1430
16809W        W30223   5.515  10.625   4.563 -0.1714 -0.0941  0.3496
16810W        W30224  18.130  17.428   4.051  0.4444 -0.0500  0.1479
16811W        W30225   4.499   9.792  15.528  0.0979  0.0031  0.2628
16812W        W30226  10.910   1.545  12.975 -0.2604 -0.2820 -0.0134
16813W        W30227  12.209  12.179   0.104  0.3300 -0.2551  0.2738
16814W        W30228  14.211  12.577  15.461  0.1562  0.0261  0.1439
16815W        W30229   8.571  13.241  16.304 -0.5333 -0.2199 -0.2014
16816W        W30230   2.668  15.418   1.491  0.1295  0.3724 -0.1268
16817W        W30231   4.949   4.063   4.347 -0.0602 -0.0315 -0.1679
16818W        W30232   1.612  17.368   4.939 -0.0658  0.2477  0.5518
16819W        W30233  12.659  15.327   0.945  0.2489  0.0931  0.1938
16820W        W30234   8.058  16.894  12.938 -0.1808  0.0974 -0.1696
16821W        W30235   9.862   7.742  12.354 -0.0989  0.2605 -0.1251
16822W        W30236  16.258  12.400   4.710 -0.5534 -0.0825 -0.2816
16823W        W30237   3.626  17.167  12.547  0.1687  0.0080  0.0174
16824W        W30238   4.501  10.745   1.694 -0.1775  0.0476 -0.0176
16825W        W30239  18.067   8.496   2.450  0.2086  0.0127  0.1651
16826W        W30240  12.319   7.806  13.831  0.0267 -0.0319  0.2274
16827W        W30241  14.208   8.210  16.206  0.1082 -0.0801 -0.3551
16828W        W30242  13.097   5.959  13.855  0.0424  0.0694  0.2102
16829W        W30243  13.382  13.373   2.207 -0.3287 -0.2014 -0.0905
16830W        W30244  16.648   0.351   4.596  0.0717 -0.2100 -0.0656
16831W        W30245  11.876   7.369  11.022 -0.1948 -0.2841  0.0646
16832W        W30246  15.747  17.491   2.683  0.1526  0.1751 -0.1859
16833W        W30247  17.624  18.077   4.656 -0.0519 -0.2921 -0.0313
16834W        W30248  14.837   7.883   5.357 -0.1678 -0.1575 -0.0548
16835W        W30249  17.193  13.210  14.878 -0.0698 -0.1216  0.2130
16836W        W30250  13.369   4.594   3.180 -0.0615  0.0059 -0.1641
16837W        W30251   9.604  13.416   1.308  0.0951 -0.1454  0.1470
16838W        W30252   1.534   6.008  12.859  0.2540  0.2532  0.0874
16839W        W30253  13.852  14.685   5.444 -0.0258 -0.1271  0.2535
16840W        W30254   5.807   2.149  13.263 -0.1045 -0.0152  0.1231
16841W        W30255  12.984   7.687  16.474  0.0663 -0.1257 -0.2428
16842W        W30256   3.318   2.651   1.224 -0.2424 -0.1080 -0.0511
16843W        W30257   6.812   3.969   1.402 -0.1137 -0.1109 -0.1453
16844W        W30258   6.444  11.192  15.779 -0.3534 -0.2476  0.1060
16845W        W30259   2.588  15.181  15.528 -0.1086 -0.1543  0.1375
16846W        W30260  17.254   7.271   4.125 -0.1985 -0.4109  0.0293
16847W        W30261   8.642   2.225   1.112  0.2947 -0.0724 -0.3016
16848W        W30262  17.023  16.791  13.970  0.0987  0.0583  0.0926
16849W        W30263  13.043   1.709  15.189  0.5253  0.3517  0.0795
16850W        W30264  11.022  11.970  14.314  0.1937  0.0990 -0.0615
16851W        W30265  15.411   7.679   0.297 -0.4318 -0.1249  0.0207
16852W        W30266   8.971  14.851   4.541  0.0922 -0.0555 -0.0503
16853W        W30267   5.828  17.734   5.522  0.0978 -0.0059  0.0184
16854W        W30268   4.103  14.163  13.161 -0.0004  0.0655 -0.0904
16855W        W30269   2.301  13.700  10.510 -0.0190 -0.0174  0.4105
16856W        W30270  17.516  13.963   3.215  0.0702 -0.4399 -0.2339
16857W        W30271   7.040  10.978   0.645 -0.0383 -0.2436  0.3028
16858W        W30272  15.897  10.661  15.118  0.0042  0.1599  0.4394
16859W        W30273   9.403  18.241   4.579  0.0175 -0.2288  0.3282
16860W        W30274   6.327  15.554  14.561  0.0239 -0.2589 -0.0684
16861W        W30275  15.031  15.901   0.551 -0.2462 -0.4000  0.1839
16862W        W30276   8.358   4.055   0.542 -0.0930 -0.0908  0.0011
16863W        W30277  15.771   9.857  12.270 -0.2619  0.0442  0.2235
16864W        W30278  15.621  10.459   2.841  0.0770  0.0390  0.0404
16865W        W30279   9.233  10.725   4.442 -0.1417 -0.0943  0.0481
16866W        W30280   5.272  12.384  14.341  0.2438  0.0087 -0.0898
16867W        W30281  14.530  13.564  15.314 -0.0506  0.3118 -0.0143
16868W        W30282   6.277   6.295  13.580 -0.0318 -0.2099 -0.2906
16869W        W30283  11.398   5.881   3.418 -0.1875 -0.1195  0.2468
16870W        W30284  12.777   1.905  16.031 -0.1928 -0.1364 -0.1323
16871W        W30285  17.239   5.173   1.329 -0.2616 -0.0163  0.0823
16872W        W30286   1.943  11.414   0.250  0.0799  0.0133 -0.1913
16873W        W30287  17.626  17.741   1.755  0.0076 -0.2292  0.0266
16874W        W30288  16.272   3.604  13.357 -0.2010  0.1558 -0.0468
16875W        W30289  17.896  15.998  13.382  0.0355 -0.1348 -0.0402
16876W        W30290   0.802   4.460   2.425 -0.0729  0.0637  0.1770
16877W        W30291   8.559   8.687   3.020 -0.2253  0.0671 -0.1191
16878W        W30292  18.200  16.968   2.898 -0.0598  0.0067  0.3701
16879W        W30293   4.566  15.463   5.003  0.1249  0.1638 -0.1109
16880W        W30294  12.634   6.541  12.791 -0.0809  0.3468  0.2571
16881W        W30295   6.956  15.339   1.466  0.0304  0.0156 -0.0191
16882W        W30296   5.659  14.953   2.181 -0.0816  0.1582 -0.1441
16883W        W30297   0.675  11.904   2.911 -0.4319  0.1089 -0.1905
16884W        W30298  17.448   4.607  16.204 -0.0756 -0.0989 -0.0507
16885W        W30299   5.621   8.174  15.166 -0.0261 -0.0356  0.1274
16886W        W30300   1.244   4.854  12.137 -0.2761  0.0027 -0.0387
16887W        W30301   2.496  10.158  13.744  0.1978 -0.0671 -0.1286
16888W        W30302  15.816   7.618  10.277  0.1135  0.1890 -0.1940
16889W        W30303   4.085   7.381  15.914  0.2205  0.1181  0.1814
16890W        W30304   3.629  17.487   0.151 -0.0582 -0.1798 -0.1645
16891W        W30305  17.565   1.540   5.999  0.2840  0.1213 -0.1786
16892W        W30306   9.806   9.847  11.026  0.1285 -0.2847 -0.0719
16893W        W30307   7.270   8.247   2.009 -0.2785  0.0516  0.1589
16894W        W30308   4.355  14.320   5.615 -0.3298  0.2276 -0.0308
16895W        W30309   0.159  16.202  11.573 -0.0893 -0.2416 -0.6108
16896W        W30310  10.224   7.787  10.926 -0.2531 -0.1765  0.0147
16897W        W30311  16.112   1.454   2.721 -0.0264  0.0971 -0.1978
16898W        W30312   9.512   4.625  10.749 -0.3225  0.0551 -0.0306
16899W        W30313   4.837  15.634   3.597  0.0555 -0.1518  0.0042
16900W        W30314  14.749   7.990  12.184 -0.1207  0.0769 -0.1027
16901W        W30315   1.627   0.349   2.404 -0.1326 -0.1129  0.0519
16902W        W30316  16.058  13.320   6.217  0.1354 -0.2129  0.3127
16903W        W30317   8.900   0.131   4.624 -0.1201  0.1382  0.2631
16904W        W30318  15.535   4.451   9.644  0.0446 -0.0709 -0.0389
16905W        W30319  15.634   2.169  13.081  0.1700 -0.3638  0.0190
16906W        W30320   5.503  13.238   2.667 -0.1374  0.0472  0.3111
16907W        W30321   8.356  11.929   1.605 -0.4148 -0.0764  0.2650
16908W        W30322   4.343  12.116   3.140  0.1195 -0.1893 -0.0046
16909W        W30323   9.267  14.392  11.545  0.2458 -0.1119 -0.0854
16910W        W30324  17.547  14.249   0.714 -0.0150 -0.0596 -0.1122
16911W        W30325  11.159   4.901   0.438 -0.3966  0.0183  0.0502
16912W        W30326  15.299  18.226   0.898 -0.1755  0.1914 -0.2163
16913W        W30327  12.893   3.306  13.375 -0.0202 -0.2303  0.4534
16914W        W30328  14.870  12.221   5.083  0.2395  0.0204  0.1404
16915W        W30329  10.905  18.209  12.970 -0.1247 -0.1050  0.0264
16916W        W30330   4.323  10.922   0.183 -0.0539 -0.1114  0.1362
16917W        W30331  17.476  11.101   5.887 -0.3006 -0.0009 -0.0304
16918W        W30332   5.095  11.832  15.791 -0.4265  0.1514  0.1170
16919W        W30333   7.099  13.241   2.832  0.3601 -0.2153 -0.0419
16920W        W30334   8.539   8.170   3.175  0.3265  0.0172  0.1449
16921W        W30335  15.729  14.356   3.556 -0.0716 -0.0120 -0.0704
16922W        W30336   8.631  14.402   4.115 -0.1831  0.2382 -0.1096
16923W        W30337  10.902  13.281   3.021 -0.0211 -0.1881 -0.1133
16924W        W30338   4.412   7.252   2.033 -0.1380  0.0306 -0.3468
16925W        W30339  16.062   9.456   1.920  0.1388  0.4299  0.1867
16926W        W30340   9.379   4.129   0.504 -0.0993 -0.0479 -0.0624
16927W        W30341  15.622  15.268   4.175  0.0671 -0.2156 -0.1944
16928W        W30342  18.205  16.898   4.891  0.0634 -0.2886  0.0709
16929W        W30343  13.872  10.184  13.843 -0.0828 -0.0240  0.0339
16930W        W30344  15.594   2.322   2.004  0.0450 -0.0002  0.1545
16931W        W30345   9.590  11.638   0.039 -0.1361  0.1496 -0.0288
16932W        W30346  13.814   8.637  14.243  0.1099  0.2421 -0.0598
16933W        W30347   3.047   1.131   3.212 -0.5219  0.2637  0.0291
16934W        W30348  10.855  11.708   3.065  0.0790 -0.2730  0.1345
16935W        W30349   9.606   1.350   3.598  0.0702  0.2202  0.2441
16936W        W30350  11.072  13.115   4.430  0.0029  0.3498 -0.0549
16937W        W30351  16.764   9.113   2.676  0.1847  0.0164 -0.1913
16938W        W30352  12.820  13.892   0.941  0.0302  0.2270  0.1233
16939W        W30353   7.730   9.218  13.912  0.1943 -0.0502 -0.1929
16940W        W30354  17.781   4.952   3.737  0.1320 -0.1812  0.1063
16941W        W30355   6.671   3.489   5.442 -0.0349 -0.0357  0.0411
16942W        W30356  14.522  17.219   4.166 -0.1633 -0.0365  0.0448
16943W        W30357   0.297   6.832   0.744  0.4358  0.1896 -0.3555
16944W        W30358  15.799   7.430  14.736  0.0664 -0.3451 -0.1210
16945W        W30359   0.122  13.405  11.466 -0.0046  0.0503  0.0793
16946W        W30360  10.363   4.654  13.210  0.0990  0.2695 -0.2945
16947W        W30361   7.424  17.290   2.218 -0.3572 -0.2183  0.1546
16948W        W30362  12.780   1.054   3.140  0.0252 -0.1460 -0.0364
16949W        W30363   9.922   6.723  11.673  0.3542  0.2150 -0.4015
16950W        W30364   5.209   3.680   4.541 -0.0168 -0.0345  0.0891
16951W        W30365   4.978   1.619   2.902  0.0983  0.1893  0.0084
16952W        W30366   7.662   3.358  12.128  0.2509  0.0696  0.0790
16953W        W30367  11.221   5.396   0.629  0.0437  0.0279 -0.3789
16954W        W30368  10.612   3.924  16.459  0.1424  0.2223  0.1494
16955W        W30369   9.836   0.921   0.473 -0.0846  0.1033 -0.0431
16956W        W30370  18.151   6.872  11.965  0.1346 -0.0107 -0.0394
16957W        W30371  10.332  17.309   6.138 -0.0254  0.0381  0.0580
16958W        W30372  17.291   2.123  14.007 -0.1190  0.1237  0.0098
16959W        W30373   0.587  13.947   5.296 -0.1411  0.2769  0.1079
16960W        W30374   6.985  17.885   4.524 -0.0173  0.1740 -0.1574
16961W        W30375  13.153   9.397   2.726  0.1513  0.0611 -0.2190
16962W        W30376  17.919  10.048  12.366  0.1032 -0.0819 -0.2221
16963W        W30377   3.656   4.701  11.867 -0.0040  0.0587  0.0286
16964W        W30378   2.103   7.795   9.968 -0.2731  0.2886 -0.2945
16965W        W30379   4.005   3.869  11.646  0.1075  0.2901  0.1490
16966W        W30380   9.133   0.948  13.220 -0.1717 -0.1220 -0.2946
16967W        W30381   6.234  10.012   4.976 -0.0433 -0.0768 -0.0089
16968W        W30382   5.710   3.616   5.402 -0.0679  0.0161 -0.0442
16969W        W30383   6.068  11.386   5.095  0.1506 -0.0541 -0.2281
16970W        W30384  12.148   4.862  13.055  0.1820 -0.0441 -0.0408
16971W        W30385   6.545   1.448  16.306 -0.2851  0.0748  0.0772
16972W        W30386   2.383  16.895   4.238  0.1389  0.2039  0.4933
16973W        W30387   7.934   7.713  15.614  0.0038  0.0787 -0.1627
16974W        W30388   4.059   7.945  12.356 -0.2605  0.2882 -0.0717
16975W        W30389   8.046  18.072  10.751  0.5113 -0.1046  0.0068
16976W        W30390  13.013   9.802  15.402 -0.2564  0.0365 -0.0450
16977W        W30391  12.476   7.471  14.324  0.3681 -0.2476  0.0121
16978W        W30392   0.787   3.487  14.653 -0.0865  0.1380  0.2839
16979W        W30393  13.462  14.521  15.206 -0.1727  0.1789 -0.0385
16980W        W30394   4.492  17.049   2.422 -0.0873  0.2689  0.1300
16981W        W30395   5.586   2.361   2.358 -0.0546  0.2299 -0.1175
16982W        W30396   4.121   4.643  11.125 -0.0403  0.1475  0.1651
16983W        W30397   9.538  14.959   3.109 -0.2158  0.2819 -0.0108
16984W        W30398   2.158   8.504  13.939 -0.0279  0.1364 -0.0204
16985W        W30399  18.176   0.440  15.260  0.0003 -0.3638 -0.1508
16986W        W30400  15.472   6.276   2.978  0.0077 -0.1482 -0.0569
16987W        W30401  12.257   2.826  15.541  0.0031 -0.0477  0.2425
16988W        W30402  12.790   5.399  15.779 -0.0316  0.1785 -0.1025
16989W        W30403   0.200  15.267  14.795 -0.0307  0.4003 -0.1296
16990W        W30404   5.985   9.180   4.128  0.1178  0.0195  0.0536
16991W        W30405   3.242  14.003  12.020  0.3942  0.0116 -0.2734
16992W        W30406   2.222  14.444  12.913 -0.3062 -0.1162 -0.2690
16993W        W30407   7.562  17.883   4.439  0.3065  0.2487  0.0513
16994W        W30408   6.931  13.598   3.682 -0.2187  0.0575 -0.0053
16995W        W30409   7.728   9.568   1.989 -0.2388 -0.0577  0.0474
16996W        W30410   3.641  15.734  11.281  0.0673 -0.2411  0.2912
16997W        W30411  14.077  13.979  15.742  0.2277  0.1885  0.2371
16998W        W30412   3.316  13.889   1.107  0.2865  0.4484 -0.2203
16999W        W30413   0.490  11.890  12.109  0.2360  0.0937  0.2530
17000W        W30414   0.019  18.167   3.366 -0.0630 -0.0421  0.1598
17001W        W30415  10.048   0.886  16.236  0.0848 -0.2782  0.0744
17002W        W30416  10.805   5.170   0.792 -0.1856  0.3096  0.0788
17003W        W30417   9.384   7.979  13.891 -0.3168  0.1546 -0.2350
17004W        W30418   5.936   1.625   5.636  0.0677  0.0573 -0.3501
17005W        W30419   5.620   0.901  13.870 -0.1694 -0.0216 -0.1201
17006W        W30420   1.116  14.332   1.286  0.0295 -0.0946  0.0602
17007W        W30421  11.465   2.241  13.420  0.1049  0.2488 -0.0041
17008W        W30422   2.498  11.227   2.485 -0.1995 -0.0593  0.1518
17009W        W30423   3.426   8.750   2.085 -0.0170  0.0539 -0.1227
17010W        W30424   1.707   4.566  14.488 -0.0808 -0.0757 -0.1242
17011W        W30425   5.633   9.788  11.668  0.3550 -0.0405 -0.4397
17012W        W30426   2.493  16.739   3.778  0.1574 -0.5032 -0.0549
17013W        W30427   0.763  16.491  14.580 -0.1473 -0.1437 -0.0957
17014W        W30428  13.527   7.529  12.871 -0.1325  0.2125 -0.0649
17015W        W30429   8.087   8.266  10.269  0.0803  0.0972  0.2878
17016W        W30430   6.216  18.231  14.797 -0.1211  0.3036  0.2274
17017W        W30431   7.028  17.407   5.408 -0.1700 -0.4068 -0.0698
17018W        W30432  11.211   1.546  11.848  0.1714 -0.4880  0.1010
17019W        W30433  17.581  12.327  11.904  0.0959 -0.2314  0.3504
17020W        W30434   8.438   3.809   5.073 -0.1656 -0.1313  0.0494
17021W        W30435  16.575   3.540  12.294  0.2188  0.1412  0.0935
17022W        W30436   6.524   0.366  12.916 -0.1732  0.0636  0.0376
17023W        W30437   4.020   6.629   3.602 -0.3086  0.0497 -0.0211
17024W        W30438   2.550   3.601  14.431  0.1009 -0.3402  0.1733
17025W        W30439   4.435   8.287  13.007  0.0379 -0.2442 -0.0319
17026W        W30440   4.529  14.223   1.651 -0.0772  0.5007 -0.0342
17027W        W30441   5.970  17.229   5.336  0.2740  0.0471 -0.0690
17028W        W30442  17.847   5.020  14.666 -0.1539 -0.1334  0.0380
17029W        W30443  12.612   6.007  12.322 -0.1010 -0.3679 -0.0610
17030W        W30444  15.083   1.245   2.889  0.1999  0.0111  0.2134
17031W        W30445   3.639  11.060   5.788  0.0384 -0.1777 -0.1956
17032W        W30446   9.737   6.450  13.952 -0.1283 -0.0572 -0.0957
17033W        W30447   6.834   8.070  12.565 -0.0817 -0.1311  0.1132
17034W        W30448   4.630   2.860  11.546  0.1183  0.2836  0.0284
17035W        W30449  10.171  11.585  10.349 -0.2673 -0.0141 -0.1719
17036W        W30450   8.038  14.072   4.687 -0.1186 -0.3525  0.0426
17037W        W30451   7.334  10.285  13.163  0.0156 -0.0871  0.0226
17038W        W30452  10.590  17.767  11.142  0.2247 -0.2484  0.2936
17039W        W30453  12.954  10.941   4.110  0.2051 -0.2098  0.4736
17040W        W30454  14.056  13.939   0.612 -0.0404  0.0557  0.0441
17041W        W30455  16.321  16.851   2.191  0.2188 -0.3599  0.2981
17042W        W30456   4.431  15.508   2.215  0.0684  0.2354  0.0295
17043W        W30457   1.576  18.089   1.365 -0.3300  0.3866  0.0525
17044W        W30458  18.035  15.359   4.507 -0.0525 -0.2730  0.1489
17045W        W30459   3.503   1.152   0.995  0.0494 -0.2237 -0.0101
17046W        W30460  17.248  10.256  11.187  0.0187  0.4139  0.3287
17047W        W30461   2.167   4.581   3.895 -0.1629  0.3395  0.3795
17048W        W30462   1.907   4.879   1.031 -0.0636  0.0760 -0.1329
17049W        W30463  15.184   3.662   0.771 -0.1032  0.0418 -0.0078
17050W        W30464   0.107   0.701   2.661  0.2727 -0.0344 -0.1689
17051W        W30465   6.197   9.770  13.363 -0.0818 -0.2299  0.0450
17052W        W30466   1.678   0.124  12.752  0.2548 -0.0663  0.0673
17053W        W30467  15.917   6.224   1.809 -0.2004 -0.1737  0.4053
17054W        W30468  15.956  12.886  12.325  0.0071 -0.0444  0.1678
17055W        W30469  16.668   5.636   3.755  0.1301  0.1212  0.1116
17056W        W30470   5.013   7.889   3.598 -0.0979  0.0268 -0.1540
17057W        W30471  12.852  11.606   1.143  0.3059 -0.1616 -0.0034
17058W        W30472  16.094   2.818  14.381 -0.2815  0.1623 -0.2014
17059W        W30473   4.373  13.902   3.496  0.0030  0.1194 -0.0135
17060W        W30474  11.199  14.331  16.384 -0.1720 -0.4691  0.0829
17061W        W30475  13.414  12.820  13.643  0.1544 -0.2578  0.0937
17062W        W30476   9.386   6.210   1.639 -0.0927 -0.2017  0.0818
17063W        W30477   7.748   0.621  11.237  0.2524 -0.4713 -0.0223
17064W        W30478   5.772   5.574   1.204  0.1364 -0.0410 -0.1249
17065W        W30479   3.710  16.161   2.690 -0.0258 -0.0647  0.1799
17066W        W30480   2.336   6.782   0.245  0.2317  0.1355 -0.1517
17067W        W30481  11.409   2.602   5.728  0.0724 -0.4221  0.0077
17068W        W30482  12.320   3.914   4.725 -0.1386 -0.0144  0.0494
17069W        W30483  17.298   1.191  15.789 -0.0558 -0.1412  0.0056
17070W        W30484   0.371  13.175  15.223 -0.1204 -0.1935 -0.0673
17071W        W30485  13.106  14.587   5.711 -0.0775 -0.0186  0.5342
17072W        W30486   6.860   2.288  13.944  0.1009  0.2465 -0.1729
17073W        W30487   1.537  17.616   6.530  0.0366 -0.1884 -0.3340
17074W        W30488   0.578  13.627   1.909  0.1172 -0.1365  0.2524
17075W        W30489   1.290  13.924  12.853  0.3717 -0.3077  0.1003
17076W        W30490   5.081   7.814   1.259 -0.0927  0.2527  0.1612
17077W        W30491   9.662  15.485  13.814  0.1105  0.1300 -0.1678
17078W        W30492  15.946   8.078  15.520  0.0193  0.2049  0.1169
17079W        W30493   5.917   9.214  11.314  0.0187  0.3811  0.0445
17080W        W30494   9.728   7.283   3.148 -0.1133  0.1266  0.1996
17081W        W30495  16.585  11.593   2.704  0.0952 -0.0508 -0.3110
17082W        W30496   8.591   9.672  10.521  0.1500  0.1758 -0.0047
17083W        W30497  17.472  16.118  11.168  0.0933  0.2325  0.1369
17084W        W30498  16.592   7.639  15.127 -0.1273 -0.0040  0.1562
17085W        W30499  12.503   6.782   2.533  0.0077 -0.1860  0.1582
17086W        W30500  13.619  17.707  12.401  0.0110 -0.2487  0.3695
17087W        W30501  17.360  12.766   2.305  0.4426  0.0188 -0.2190
17088W        W30502  15.508  18.098  13.173  0.0897  0.0838 -0.0362
17089W        W30503  11.510   2.553  13.791 -0.0850  0.0828 -0.2597
17090W        W30504  11.014   1.717   6.312  0.2310 -0.1865 -0.1491
17091W        W30505   2.981   9.124  14.969  0.1606 -0.0561  0.1480
17092W        W30506   2.891  12.605   0.348 -0.1913 -0.0483  0.0685
17093W        W30507   1.988   3.971  13.696  0.1418 -0.1383 -0.1903
17094W        W30508   2.262   9.145   1.074 -0.0395 -0.0765 -0.3549
17095W        W30509  13.244   7.830  11.994  0.0468  0.2671 -0.1091
17096W        W30510  12.068   4.491  12.493  0.0597  0.4412 -0.3550
17097W        W30511   8.342  15.173  13.085  0.2366  0.1594 -0.0461
17098W        W30512   7.003  17.157  16.011  0.0566  0.1719 -0.0756
17099W        W30513   3.601  17.767  10.884 -0.0776 -0.1501 -0.0175
17100W        W30514   9.884   8.110  16.490 -0.0937  0.0686  0.2432
17101W        W30515   6.500   3.737   2.596 -0.1539  0.0682 -0.0114
17102W        W30516  12.070   8.174  11.161  0.2200 -0.0411 -0.0444
17103W        W30517   7.704  18.001   3.933 -0.0707 -0.2588  0.1156
17104W        W30518   3.606  12.683   2.244 -0.1379 -0.0429  0.0307
17105W        W30519  14.613  13.920  14.509 -0.1004  0.0846 -0.0611
17106W        W30520   8.531   2.399   2.448  0.0964  0.0506 -0.3701
17107W        W30521   3.914   8.436  12.104 -0.3009  0.0663 -0.0098
17108W        W30522   9.061  13.342   1.157 -0.0480  0.2225 -0.0630
17109W        W30523  16.808  16.647   1.970  0.1355  0.0230 -0.0743
17110W        W30524   4.101  16.316   0.273 -0.0938  0.2025  0.0302
17111W        W30525   0.432   8.272  10.247  0.1468 -0.2959 -0.2044
17112W        W30526   7.051  16.211   0.061 -0.1848 -0.0362  0.1732
17113W        W30527  17.383   0.186  11.091  0.1110  0.1047  0.1796
17114W        W30528  15.075   5.829   5.765  0.1971  0.2771 -0.2699
17115W        W30529  11.509  17.653  14.676  0.0526 -0.0543  0.1646
17116W        W30530  13.810   9.008  13.741 -0.3784  0.1164 -0.0304
17117W        W30531  13.800   4.910  10.711  0.0040  0.1296 -0.2933
17118W        W30532   4.334  16.447   4.405  0.2171  0.0717  0.0816
17119W        W30533   9.008  16.419   0.937 -0.2156 -0.0800  0.0025
17120W        W30534   0.883   7.597   0.866  0.2031  0.0792  0.1206
17121W        W30535   0.590  12.161  15.375 -0.2468 -0.0452  0.2524
17122W        W30536   6.341   5.105  11.689 -0.0800 -0.2544 -0.0366
17123W        W30537   6.038  10.046  14.374  0.1115 -0.0726  0.1635
17124W        W30538   0.717   9.597  14.484 -0.2166 -0.1550 -0.0169
17125W        W30539  11.454   2.868   4.822 -0.0669  0.1484  0.0655
17126W        W30540  16.357   2.488   2.800 -0.1051  0.0701  0.0275
17127W        W30541  14.836   7.582   4.889  0.0660  0.2099  0.0454
17128W        W30542   4.125  16.354  15.520  0.0181  0.1186 -0.1062
17129W        W30543   0.218   8.336  14.727  0.2564 -0.2490 -0.0792
17130W        W30544   5.696  16.870   4.979 -0.1013 -0.0632  0.4689
17131W        W30545  12.155   8.091   0.006 -0.3677  0.2095 -0.0028
17132W        W30546   7.938  15.758   1.251  0.0591 -0.0663 -0.2951
17133W        W30547  13.854  15.135   0.539  0.0630 -0.0573 -0.0463
17134W        W30548  14.671  17.775   4.133 -0.0639 -0.0965  0.0895
17135W        W30549   8.817  12.311   0.438  0.2353  0.0329  0.0913
17136W        W30550   3.164   6.277  15.656 -0.1195 -0.0679 -0.1276
17137W        W30551  16.261  18.216  10.793  0.5281 -0.1454 -0.2308
17138W        W30552   5.647   7.285  14.425 -0.0039 -0.1332  0.0294
17139W        W30553  12.457   7.910  10.429  0.1837  0.0999 -0.0235
17140W        W30554   5.790  10.715  13.745  0.0282 -0.2634 -0.1186
17141W        W30555  15.936  15.256  13.970 -0.0539 -0.0084  0.0868
17142W        W30556   6.703  15.639  13.571  0.0057  0.0267 -0.1404
17143W        W30557  10.413   1.934   4.614  0.0917  0.4559  0.2912
17144W        W30558  13.148   4.430   5.171 -0.1051 -0.0674 -0.0865
17145W        W30559   3.258  13.326  14.268 -0.1094 -0.1483  0.1348
17146W        W30560  12.836   4.188  10.487 -0.1659 -0.0599  0.2706
17147W        W30561   4.463   1.634   3.608 -0.0317  0.1360  0.1072
17148W        W30562   8.960   0.217  14.171 -0.0023  0.1339  0.0787
17149W        W30563   3.170  14.442   4.601  0.0035 -0.0317 -0.1174
17150W        W30564  12.157   3.734  13.127 -0.2928 -0.0998 -0.4395
17151W        W30565  12.112   2.134  15.025  0.1211  0.3486 -0.0495
17152W        W30566  14.800  12.719   5.875 -0.3567  0.0366  0.0211
17153W        W30567   9.198   4.404  11.824  0.0392 -0.0717  0.1441
17154W        W30568  10.455   1.114  13.493 -0.0468  0.1301  0.0935
17155W        W30569   1.373  17.776  14.183  0.0666  0.1964 -0.0352
17156W        W30570   6.679   8.941   5.277 -0.1085  0.0872  0.1703
17157W        W30571   9.746   3.960  11.481  0.2844 -0.0372 -0.1995
17158W        W30572  12.540   5.500  13.185  0.1760  0.2395  0.3839
17159W        W30573  14.186   9.785   4.962 -0.1745 -0.0707  0.0496
17160W        W30574   8.748   1.349   5.214  0.1524 -0.2076 -0.0602
17161W        W30575   7.453   9.060  14.834 -0.1454  0.3010  0.0977
17162W        W30576  11.581   5.167  13.149  0.0068 -0.0725 -0.1436
17163W        W30577   6.999   4.444  13.605 -0.3008  0.0532 -0.1672
17164W        W30578   7.605   6.947  14.685  0.0863 -0.0924  0.0544
17165W        W30579   0.963   9.744   5.971  0.1648 -0.1072  0.1181
17166W        W30580   2.058   9.417  14.784 -0.0150 -0.1282  0.3014
17167W        W30581   4.489  14.631  12.061  0.0123 -0.0429 -0.0228
17168W        W30582  13.416  13.333   0.671 -0.0085 -0.0837  0.1459
17169W        W30583   3.998   7.560   0.985  0.0413  0.0710 -0.0979
17170W        W30584   2.489  17.648   3.951  0.0779  0.1637 -0.2289
17171W        W30585  12.449   6.558   1.873  0.1103 -0.2345  0.3140
17172W        W30586   3.531   7.221  16.084  0.0432 -0.2276  0.0517
17173W        W30587   4.099   2.702  13.282 -0.0721  0.2721  0.0253
17174W        W30588   3.124   9.098   0.703  0.0880  0.3136  0.1282
17175W        W30589   4.444  11.248  15.793 -0.0328 -0.1108 -0.0729
17176W        W30590   0.934   6.109   1.218 -0.2505  0.0921  0.3208
17177W        W30591   9.744  13.926  12.231  0.0466  0.0125  0.1173
17178W        W30592   3.744  16.523   2.334 -0.0585 -0.0613  0.1524
17179W        W30593  14.228   4.396   3.084  0.1980  0.0239  0.0565
17180W        W30594   3.769  10.346   2.374  0.3010  0.1009 -0.0061
17181W        W30595  14.604  10.996  13.310 -0.0281  0.0865  0.0484
17182W        W30596   8.674   6.975  14.704  0.0029 -0.0560  0.0063
17183W        W30597   0.360   0.551  11.659 -0.0143 -0.0667  0.0338
17184W        W30598   2.459  17.359  15.767  0.1338  0.3152  0.3212
17185W        W30599   7.149   5.605  14.048 -0.4044  0.0643  0.0819
17186W        W30600   2.750  11.054  14.177 -0.0137 -0.1248  0.1808
17187W        W30601   7.260  14.894   0.612 -0.0532  0.0488 -0.0426
17188W        W30602  17.260  14.137   1.463  0.1342  0.2035  0.0683
17189W        W30603   2.520   1.500  15.021  0.1606  0.3790 -0.1632
17190W        W30604  14.886  15.885   5.854 -0.0510 -0.2387 -0.0832
17191W        W30605  12.948  16.313   2.784  0.0281 -0.2342 -0.1562
17192W        W30606   4.423   0.197   0.519 -0.1953  0.0074 -0.1825
17193W        W30607   7.181   1.964  13.216  0.1815  0.0824  0.0922
17194W        W30608  16.657   4.708   3.570 -0.0650 -0.2167 -0.0565
17195W        W30609   5.682   1.778  16.014 -0.2052 -0.0466  0.0187
17196W        W30610   2.692  15.537   3.066 -0.0669 -0.0926 -0.1175
17197W        W30611  16.722   1.641   3.756  0.0353 -0.0945 -0.1786
17198W        W30612  10.217   2.560   1.712 -0.2280 -0.1434  0.2165
17199W        W30613  17.368   0.128   4.270  0.0015  0.0089 -0.1316
17200W        W30614   2.763  10.722  14.554  0.3611 -0.1316  0.0251
17201W        W30615  17.203  11.859  10.294 -0.0304 -0.1483  0.1348
17202W        W30616  13.408  11.591   2.415  0.0083  0.3158 -0.0893
17203W        W30617   5.471   8.725   1.108 -0.2934  0.1544  0.0989
17204W        W30618   2.693   8.019  10.512  0.0600  0.0741 -0.2006
17205W        W30619   6.613  12.964   4.983 -0.2452  0.0190  0.1945
17206W        W30620  17.020   1.319  12.725 -0.0076  0.1163  0.1610
17207W        W30621  13.824  15.350  10.902 -0.0901  0.0415 -0.1221
17208W        W30622  12.406   1.794   2.833 -0.2322  0.2586 -0.0835
17209W        W30623  16.821   4.313  13.278 -0.0061 -0.2386 -0.2159
17210W        W30624  10.386  13.136   5.003 -0.0920 -0.0131 -0.0986
17211W        W30625   5.520   4.550   2.568  0.3274  0.1518 -0.1019
17212W        W30626  10.465  10.176   1.558 -0.1281  0.0924  0.2410
17213W        W30627   4.338   2.061  11.411  0.1403  0.0657  0.4315
17214W        W30628   3.104   0.994   5.419  0.0438  0.1152  0.1070
17215W        W30629  13.954   5.641  15.525 -0.0822 -0.2617  0.0135
17216W        W30630   8.032  10.083   0.058  0.1446 -0.0360  0.0059
17217W        W30631   0.827   8.036  11.469 -0.2298 -0.0087  0.0078
17218W        W30632   3.468  15.755   5.278 -0.3612  0.0457  0.2803
17219W        W30633   4.716  15.797  12.755 -0.0933  0.0207 -0.0772
17220W        W30634   5.590   0.753   3.797 -0.0065  0.2353 -0.1918
17221W        W30635   5.916   7.239  14.003  0.2070  0.0250 -0.4576
17222W        W30636   0.271   4.043  11.243  0.0136 -0.1341 -0.1061
17223W        W30637   9.472  17.702  14.505 -0.3032  0.1210 -0.2013
17224W        W30638  14.498  10.732  11.606  0.1651 -0.0659  0.0587
17225W        W30639  16.232   2.833  10.463  0.2122 -0.0441 -0.0628
17226W        W30640   9.489  12.656  12.316  0.1957  0.2431 -0.0654
17227W        W30641   3.686  11.328  15.856  0.1898 -0.1131  0.0592
17228W        W30642   2.894  10.833   0.450 -0.0348  0.1146 -0.3729
17229W        W30643   9.051  16.050   2.062 -0.0295  0.4048 -0.2154
17230W        W30644  10.028   2.390  16.532  0.3153  0.1624 -0.0928
17231W        W30645  16.710  14.864   1.969  0.1064 -0.2998 -0.0863
17232W        W30646  12.135  15.075  15.134 -0.1119  0.3394 -0.2835
17233W        W30647  11.320  15.781  14.272 -0.1611  0.0094  0.2881
17234W        W30648  10.691   0.413   2.838 -0.0356  0.0317  0.0279
17235W        W30649   9.571  10.798  12.575  0.1199 -0.0460 -0.0055
17236W        W30650  13.315  10.727  13.444  0.0177 -0.1000 -0.0205
17237W        W30651   5.499   5.297   3.278 -0.3094  0.2934  0.3678
17238W        W30652   4.038  13.790  15.637 -0.2638  0.1107  0.0957
17239W        W30653  18.067   4.615   3.475  0.0577 -0.4064 -0.0627
17240W        W30654   1.380   6.688   0.592 -0.1265 -0.0629  0.3875
17241W        W30655  14.174  16.081  14.358  0.0114 -0.1346 -0.1254
17242W        W30656   3.141  10.165  10.888  0.3601 -0.2346  0.2861
17243W        W30657   7.745  17.128   3.558  0.0974 -0.1764  0.1877
17244W        W30658  11.910  13.890   6.885  0.1579 -0.2549  0.0801
17245W        W30659   8.198  15.720   3.327  0.1538  0.0964  0.1606
17246W        W30660  15.928   4.219  13.196 -0.1274  0.5886 -0.0849
17247W        W30661  10.825  12.449  14.273  0.0596 -0.2653  0.3669
17248W        W30662  14.152   3.942   4.320  0.0624 -0.0592  0.1648
17249W        W30663  11.181   5.251  14.554  0.0561 -0.1018  0.2641
17250W        W30664   0.434   7.698  12.703  0.2365  0.2883  0.1257
17251W        W30665   7.135  13.787   4.168 -0.1837 -0.1749  0.0589
17252W        W30666   7.857  13.414  14.094 -0.0984 -0.2915 -0.0449
17253W        W30667   8.125   1.555   0.517  0.0935  0.0130  0.0420
17254W        W30668  16.651   8.779   3.518 -0.0007 -0.2588  0.2117
17255W        W30669   4.590  17.411  11.050 -0.0921  0.2576 -0.1100
17256W        W30670  18.155  15.833  15.362  0.2560  0.0271  0.1034
17257W        W30671   5.269  15.651   2.211  0.0984 -0.1901  0.0821
17258W        W30672  15.869  17.945  10.557 -0.1058 -0.1260  0.2852
17259W        W30673  17.125   8.639   9.843  0.1076 -0.1800  0.1532
17260W        W30674  17.597   5.890   3.526 -0.2407  0.2858  0.0317
17261W        W30675  14.020  10.140   4.010  0.1366 -0.0284  0.0243
17262W        W30676   6.490   7.453  11.657 -0.1770  0.2072 -0.1711
17263W        W30677   4.913  14.946   5.949  0.0471  0.1190 -0.1718
17264W        W30678   1.707  15.316  11.479  0.0606  0.0347  0.5019
17265W        W30679  15.553  14.445  15.310 -0.2496  0.0663 -0.1675
17266W        W30680  16.640  11.809  15.948  0.4989 -0.0982  0.4169
17267W        W30681   1.966  10.638  13.210 -0.2225  0.0570 -0.0966
17268W        W30682  17.298   1.941  14.481  0.2943 -0.0781 -0.1993
17269W        W30683   0.921  14.531   2.139  0.0374 -0.0324 -0.0998
17270W        W30684  12.233  11.330   0.664  0.1565 -0.2802 -0.2497
17271W        W30685   0.016  14.510   3.704  0.2312 -0.0267 -0.1514
17272W        W30686   1.821   5.902  14.318 -0.2081  0.0021 -0.2165
17273W        W30687  12.835   7.497  16.062 -0.2412  0.0159  0.1367
17274W        W30688   5.381   8.298  14.575 -0.3340 -0.0676 -0.0762
17275W        W30689   3.497   0.082  11.526  0.1300 -0.0500 -0.1467
17276W        W30690  18.251  12.749  12.716 -0.1146 -0.0717  0.1572
17277W        W30691   5.377   0.553  15.934 -0.0042 -0.0664  0.0617
17278W        W30692   2.595  17.967  15.598  0.1483  0.0951 -0.6573
17279W        W30693   7.393   6.759   5.085 -0.2376  0.3757 -0.1833
17280W        W30694  13.106   6.467  11.781  0.0163 -0.0170 -0.1882
17281W        W30695  10.631  10.539   0.676  0.0608  0.3536 -0.0868
17282W        W30696  12.013   3.057  14.913  0.0647 -0.3038 -0.1506
17283W        W30697  12.896  11.272  13.116 -0.0566 -0.3591 -0.1805
17284W        W30698   9.482   7.380  12.198  0.4299 -0.0236 -0.1271
17285W        W30699   6.951   1.270  12.615 -0.2462  0.4485  0.2108
17286W        W30700  17.934  16.057   6.147 -0.0126 -0.2868 -0.1528
17287W        W30701   9.453  11.200  14.769  0.1704  0.1733 -0.1983
17288W        W30702  15.167   0.983  12.199 -0.0161 -0.0920 -0.1603
17289W        W30703   7.871   8.377  11.035 -0.0331 -0.1044 -0.0637
17290W        W30704  10.588   1.322  14.404  0.2421  0.0055  0.2393
17291W        W30705   3.694  18.184   3.525  0.4039 -0.0257 -0.1351
17292W        W30706   2.764   9.867  11.754  0.0135 -0.0951 -0.1035
17293W        W30707   1.069  13.369  15.069 -0.0415 -0.1738 -0.1852
17294W        W30708   7.859  12.554  12.192  0.0390  0.1905 -0.0920
17295W        W30709   6.576   4.121  15.555  0.2006 -0.1949 -0.0775
17296W        W30710  14.093  15.208  11.344 -0.0314  0.0413 -0.2438
17297W        W30711  15.613  17.751   5.924  0.0863  0.1067  0.0069
17298W        W30712   0.184   8.375   3.829 -0.0876  0.0430 -0.1588
17299W        W30713  18.056   0.553  11.555 -0.1169  0.0929  0.0759
17300W        W30714   1.796   9.837   1.033  0.0711 -0.1653 -0.2836
17301W        W30715   6.164   1.633  11.642 -0.2977  0.2383  0.1851
17302W        W30716   4.456  16.164   3.387 -0.2482  0.1683 -0.2930
17303W        W30717   1.372  18.210  11.161 -0.1071 -0.0150 -0.1536
17304W        W30718  14.858   0.112  14.625 -0.0360 -0.1582 -0.1284
17305W        W30719   0.230  10.401  14.645 -0.4072 -0.1364 -0.0518
17306W        W30720   5.851   5.982  11.526  0.0354  0.0705  0.0122
17307W        W30721   6.992   9.983   0.432 -0.1382 -0.0195  0.0216
17308W        W30722   4.502  11.671   2.936 -0.4794  0.2378  0.1972
17309W        W30723   3.885   1.622   0.923  0.1660 -0.0366 -0.0060
17310W        W30724  13.084   9.526   2.220 -0.1325  0.1726  0.1836
17311W        W30725  15.316   9.401   2.905  0.1002 -0.1131 -0.0734
17312W        W30726   9.576  10.137  14.771  0.3616  0.1155  0.0322
17313W        W30727   5.171  17.757   2.785  0.0894  0.0596  0.0108
17314W        W30728   2.721  10.243   5.737 -0.1325  0.2179  0.1087
17315W        W30729  15.186  18.214   3.388  0.0557  0.0458 -0.0387
17316W        W30730  15.905  11.642  14.144  0.3030  0.0907 -0.1080
17317W        W30731   4.057  16.519  12.884 -0.0674  0.1606  0.0834
17318W        W30732   4.834   2.362   3.458 -0.3847  0.3851  0.0459
17319W        W30733   1.959  13.379  12.017 -0.0883  0.0968  0.1360
17320W        W30734   1.610   2.648  16.091  0.2441  0.0344 -0.0205
17321W        W30735  16.238  13.194   4.301 -0.2960 -0.1412  0.0478
17322W        W30736   2.422  16.481  12.832  0.1202 -0.3158 -0.0646
17323W        W30737  14.823  16.608  12.674 -0.0847 -0.0443  0.3004
17324W        W30738  11.192  13.961  12.851 -0.1642 -0.0864  0.0654
17325W        W30739   0.496  12.802  13.230 -0.2567  0.1119 -0.0611
17326W        W30740  10.084   7.944   5.910 -0.0792  0.3738 -0.1041
17327W        W30741  10.124   1.933   4.166  0.1860  0.4052 -0.0511
17328W        W30742   3.135  15.722   0.620 -0.1473 -0.1134  0.0721
17329W        W30743   2.255   8.051   1.776 -0.2808 -0.1421  0.2899
17330W        W30744  13.105  11.622  12.824  0.0208 -0.1487  0.2776
17331W        W30745  16.335   4.502  13.076 -0.0355 -0.2097  0.2061
17332W        W30746  11.283   2.298  15.312  0.0313 -0.0043 -0.2986
17333W        W30747  14.270   2.574  11.706 -0.1090  0.1048  0.2713
17334W        W30748   3.715  13.746   3.791  0.1270 -0.0343 -0.0879
17335W        W30749  11.054  12.068   0.913  0.0004  0.0128 -0.5968
17336W        W30750   5.686   5.323  10.260  0.1779 -0.2266  0.1427
17337W        W30751  10.749   9.424   2.696 -0.1297  0.1375  0.0975
17338W        W30752   4.738   7.432   0.573 -0.0498 -0.1020 -0.1720
17339W        W30753   9.222   7.089   3.956 -0.0352 -0.0024  0.2965
17340W        W30754  13.528  14.580   3.906 -0.3986 -0.2355 -0.0894
17341W        W30755   2.801  13.439  16.240 -0.1607  0.1313  0.2896
17342W        W30756  12.079   6.483  15.830 -0.0361  0.2138  0.3256
17343W        W30757  10.369   1.261  11.562  0.1819 -0.0099  0.0820
17344W        W30758   4.337   7.592  14.735  0.2001  0.3422  0.0146
17345W        W30759  10.785   1.311  12.549  0.0863 -0.1968 -0.1862
17346W        W30760   9.826  14.231   1.787  0.2572 -0.0098 -0.5255
17347W        W30761   0.784  11.714   2.132  0.1344  0.2837  0.0341
17348W        W30762  10.182   5.631   1.371  0.3201  0.1803  0.1391
17349W        W30763  11.202  13.032   5.593 -0.1875  0.1213 -0.0315
17350W        W30764  18.014  11.587  11.465  0.2761  0.0308 -0.0280
17351W        W30765  12.373   4.434   2.049  0.3401  0.0355  0.1179
17352W        W30766  10.849  18.274  11.374 -0.2045 -0.4705  0.0037
17353W        W30767   8.099  17.403   3.720  0.0019  0.0920  0.0215
17354W        W30768  14.777  17.169   2.628 -0.2720 -0.1294  0.2775
17355W        W30769  15.163   4.822  11.737 -0.0016  0.1734 -0.1400
17356W        W30770   1.150   9.969  14.577  0.1184 -0.2209  0.1169
17357W        W30771   9.980   9.062   1.471 -0.0137 -0.1014 -0.0908
17358W        W30772  15.818  14.602   2.142 -0.1514  0.2844 -0.2387
17359W        W30773   5.962  17.357   1.363 -0.4960 -0.2399  0.0429
17360W        W30774  10.994   7.654   3.476  0.0597 -0.0860 -0.0180
17361W        W30775   9.497  16.582   0.883 -0.0524 -0.1198 -0.0881
17362W        W30776  13.998  13.210   5.060  0.0960 -0.1978  0.2803
17363W        W30777   5.664  14.167  13.678 -0.0680  0.3982 -0.0341
17364W        W30778  16.873   4.529   0.522  0.2666  0.1287 -0.0683
17365W        W30779   0.311  15.059  15.713  0.0743  0.1823  0.2463
17366W        W30780  10.020   1.415   3.971  0.0956  0.1851  0.0342
17367W        W30781  14.351  11.144  11.901  0.2496  0.4061  0.0319
17368W        W30782  14.220  12.024  11.433  0.1003 -0.2957 -0.2606
17369W        W30783  14.832   3.480  15.445  0.1838 -0.2299 -0.0973
17370W        W30784  11.759  15.265  12.116 -0.1254 -0.2618  0.0225
17371W        W30785   3.707   3.509  12.219 -0.2037  0.1281 -0.1067
17372W        W30786  14.719   5.057   5.615 -0.3638  0.0158 -0.2286
17373W        W30787   3.822   4.449   2.972  0.4056 -0.1407  0.1102
17374W        W30788   4.509  15.998  12.314 -0.0279  0.3716  0.1427
17375W        W30789  11.686   4.503  11.522 -0.1029 -0.0107 -0.1966
17376W        W30790  12.393   0.375  12.487 -0.1710 -0.0853 -0.0339
17377W        W30791   1.313   9.312   5.766 -0.1423  0.2148  0.0553
17378W        W30792  17.662  14.045   1.198  0.2479  0.4319  0.0148
17379W        W30793   5.516   2.282   0.983  0.0920 -0.1691  0.1236
17380W        W30794  13.027  17.269  14.224  0.1087  0.3364 -0.0602
17381W        W30795  17.984  10.216  13.809  0.0521 -0.2785 -0.0615
17382W        W30796  12.708   8.923  11.660 -0.0569  0.2435 -0.1438
17383W        W30797   4.050  14.048  14.026 -0.1158  0.1922  0.0057
17384W        W30798  13.156  17.528   5.134 -0.2645 -0.0746  0.0488
17385W        W30799  12.461   5.474   3.734  0.1746  0.2512  0.1946
17386W        W30800   2.314  18.251   3.086 -0.1153  0.0682  0.0474
17387W        W30801   0.436   3.354  12.935 -0.1007  0.0966  0.0060
17388W        W30802  10.536  13.618   4.729  0.0417  0.0173 -0.1637
17389W        W30803   7.285  13.350   0.999 -0.3407 -0.1978 -0.0307
17390W        W30804  11.895   1.134   3.016  0.0365 -0.0253 -0.2110
17391W        W30805  14.570  15.829  14.593 -0.1723  0.2923  0.3435
17392W        W30806   1.708  17.418   2.525  0.1385  0.1242  0.0654
17393W        W30807  18.198   2.524   3.293 -0.1465 -0.0361 -0.1486
17394W        W30808   1.298  14.320   3.350 -0.0549 -0.1729  0.0602
17395W        W30809   9.851   9.734  14.521  0.0711 -0.0072  0.2262
17396W        W30810   9.323   9.239   3.822  0.3318  0.0046  0.1482
17397W        W30811  15.921  12.779  14.845 -0.1760  0.1081  0.1939
17398W        W30812   3.481   5.985   5.782  0.0278  0.4538 -0.3177
17399W        W30813   2.348   3.945   5.904 -0.1444  0.1617  0.3320
17400W        W30814  13.619   0.688  14.236 -0.2138 -0.2329  0.0413
17401W        W30815  16.846  11.316   1.755  0.3059 -0.0711  0.0037
17402W        W30816   6.376  11.818  15.189 -0.3642 -0.0332  0.0121
17403W        W30817   1.103   1.238  12.337  0.1775 -0.0910  0.0207
17404W        W30818   8.687   3.185   6.515 -0.0176  0.1239  0.0701
17405W        W30819   8.043   0.037  13.864 -0.0600  0.3260 -0.0289
17406W        W30820  16.863   0.605  10.101 -0.0892 -0.0707  0.2977
17407W        W30821   8.991  16.295  10.483  0.1742 -0.0386 -0.1266
17408W        W30822  14.097  15.103  12.131  0.3129 -0.1085  0.0228
17409W        W30823   8.342   7.608   3.388 -0.0892 -0.3134  0.4119
17410W        W30824  16.379  11.856   2.082 -0.0705  0.0057  0.0103
17411W        W30825   5.460   5.117  14.809  0.2046  0.0638  0.0994
17412W        W30826   0.188   4.094  16.135  0.1024 -0.0749  0.2662
17413W        W30827   2.682  13.974  12.655 -0.1152  0.2914 -0.1862
17414W        W30828  16.016  17.710  13.117  0.0343  0.0355  0.1596
17415W        W30829   3.809   2.568  15.645 -0.2727 -0.1723 -0.0553
17416W        W30830  16.323   1.955   3.770  0.1326 -0.1432  0.0804
17417W        W30831   6.452   1.698   1.749  0.3135  0.0780  0.2982
17418W        W30832   9.475   1.252  12.055 -0.2245 -0.1039 -0.2937
17419W        W30833   2.088   1.791  12.164  0.0688  0.0257  0.0972
17420W        W30834   0.143   7.296   0.823 -0.1102 -0.0558 -0.3475
17421W        W30835  13.835  14.682  15.502 -0.1026 -0.1096 -0.0346
17422W        W30836  17.190  16.791   2.563 -0.1217 -0.0538 -0.1110
17423W        W30837   5.490   6.443   5.074  0.1523  0.0314 -0.1246
17424W        W30838   2.095  15.743  12.194 -0.0297 -0.0199  0.2964
17425W        W30839  10.798   9.669   3.346  0.0070 -0.1897  0.1965
17426W        W30840   8.868  13.945   0.739  0.0906 -0.1386 -0.0850
17427W        W30841   4.735   9.438  12.260 -0.0472 -0.4569  0.1799
17428W        W30842   4.655  16.050   1.473  0.0759  0.0951 -0.0388
17429W        W30843   3.655   9.850  13.345  0.3068  0.1615  0.2336
17430W        W30844   5.890   8.524  15.497  0.4741  0.1720 -0.4377
17431W        W30845  13.218   5.654   0.104  0.0334 -0.2211 -0.1132
17432W        W30846   3.044   4.331  13.519  0.0921 -0.1093  0.0222
17433W        W30847  12.473  15.288   4.336  0.1092 -0.0542 -0.3807
17434W        W30848  16.562   8.370   0.961  0.0259 -0.0277  0.3490
17435W        W30849   5.859  14.241  14.175 -0.3664  0.1436 -0.0885
17436W        W30850   5.229  10.118  11.835 -0.1961  0.0279 -0.1128
17437W        W30851  14.267   7.685  14.331  0.0278  0.1329 -0.1097
17438W        W30852   6.476  17.474  14.737 -0.0732 -0.0930 -0.1521
17439W        W30853  16.451  14.932  12.587 -0.1046  0.0769  0.1689
17440W        W30854   7.134   0.558   3.132  0.2177  0.1451  0.0683
17441W        W30855   6.247  10.633   0.952  0.1354  0.0297 -0.3175
17442W        W30856   7.289  12.691  11.001  0.1068  0.2898 -0.3693
17443W        W30857   8.206  13.660   1.499 -0.1213 -0.2946 -0.0679
17444W        W30858   9.839   4.446  14.621 -0.3116  0.1322  0.0372
17445W        W30859   9.902  12.987  14.729 -0.1006  0.1052 -0.0096
17446W        W30860  10.318   3.323   4.712  0.0493 -0.2472  0.1824
17447W        W30861   5.174   0.731   2.690  0.1309 -0.3528  0.1466
17448W        W30862  11.946   0.124   1.655 -0.2580  0.0482  0.1896
17449W        W30863   1.100  13.479   1.717 -0.1452  0.0905  0.0789
17450W        W30864  12.609   2.592  13.891  0.2247 -0.0506  0.2350
17451W        W30865   0.709  10.612   0.235 -0.1983  0.1966 -0.1497
17452W        W30866  11.909  16.643  14.078  0.2508  0.2587 -0.0060
17453W        W30867  12.251   0.563   5.571 -0.0073  0.2407  0.1482
17454W        W30868  13.378  10.622   4.942 -0.1402  0.1155 -0.2100
17455W        W30869  11.033   8.848   5.925 -0.1386 -0.0627 -0.0400
17456W        W30870   1.020   5.739   0.181  0.1615 -0.2581  0.2350
17457W        W30871   6.868   6.076   2.758 -0.0186  0.1299 -0.0416
17458W        W30872  14.853   1.973   2.649  0.2901  0.2001 -0.1700
17459W        W30873  16.193   3.709   0.281 -0.2003 -0.0145 -0.1352
17460W        W30874  13.352   6.355   3.416  0.0394  0.0675  0.0961
17461W        W30875   5.014  16.565   4.215 -0.0278  0.0817 -0.0870
17462W        W30876  15.707  15.358  12.507  0.2562  0.2774  0.2491
17463W        W30877  10.584   7.513  10.721  0.3089  0.1617 -0.0341
17464W        W30878  14.912  14.385   6.200 -0.1633 -0.3517 -0.1302
17465W        W30879   7.628   6.050  12.515 -0.0861  0.1594 -0.2044
17466W        W30880  14.065   9.543   2.829 -0.1048 -0.3980  0.0255
17467W        W30881   7.405  13.362   0.042  0.1249 -0.5529  0.1047
17468W        W30882   3.626   8.102   2.646  0.0851  0.1686  0.3145
17469W        W30883   9.780   7.899   4.232 -0.0598  0.1084  0.1522
17470W        W30884   5.043   3.158  16.529 -0.3645  0.0513 -0.1586
17471W        W30885   4.231  16.243   4.928  0.2899  0.2318 -0.1141
17472W        W30886  14.011  13.908   1.590  0.0695 -0.0483 -0.0274
17473W        W30887   5.122  10.086  12.942  0.1332 -0.1010  0.0048
17474W        W30888   3.511  10.499  15.653 -0.0497 -0.0233 -0.1069
17475W        W30889   3.473  16.978   0.030  0.0987 -0.1083  0.2496
17476W        W30890   9.732   1.014   4.222 -0.1056  0.0188 -0.1455
17477W        W30891   0.586  16.131  15.602  0.1885 -0.0953  0.0262
17478W        W30892   9.790   5.916   1.280  0.2317 -0.3288  0.2867
17479W        W30893   3.685  16.954  12.071  0.1845  0.0578 -0.0207
17480W        W30894   2.452   3.327  14.051 -0.0507 -0.2847 -0.2294
17481W        W30895  15.397   9.371   0.021  0.0886  0.2329 -0.3566
17482W        W30896   5.975  16.381  15.769 -0.5394 -0.2402  0.0516
17483W        W30897  15.500  15.337  12.053  0.1601  0.2448 -0.2635
17484W        W30898   6.401   6.678  15.741  0.2009  0.0094  0.0632
17485W        W30899   6.621  12.926   3.997  0.0744 -0.0266  0.2073
17486W        W30900  11.189  10.996  16.393  0.1580 -0.3337  0.0640
17487W        W30901  15.737   9.687  11.234 -0.1794  0.1631  0.1243
17488W        W30902   1.075   5.062   3.940 -0.0086  0.0760  0.0061
17489W        W30903   0.683  11.044  10.650  0.0461 -0.3190 -0.4598
17490W        W30904  16.066  15.165  15.765  0.0529  0.3117  0.0766
17491W        W30905   5.414   0.546   6.067 -0.0119 -0.0537  0.0344
17492W        W30906   4.166   3.810   3.695  0.1841  0.1569 -0.0031
17493W        W30907  14.147  17.094  12.449  0.1569  0.0099 -0.1009
17494W        W30908  10.922   1.469   4.767 -0.5025  0.0793 -0.1672
17495W        W30909   7.664   6.471   0.809 -0.2581 -0.0122  0.1346
17496W        W30910  14.000  11.767   0.346  0.0218 -0.3194 -0.0692
17497W        W30911  13.959  11.466  11.691 -0.0149  0.0374 -0.1795
17498W        W30912  17.739  14.556   0.252 -0.1849  0.0797  0.0984
17499W        W30913  11.847   9.830  11.812  0.2237  0.1018  0.0902
17500W        W30914  12.463  11.794   0.821 -0.1768  0.2351 -0.1524
17501W        W30915  14.122   0.723  14.404 -0.0780  0.0088  0.3399
17502W        W30916  10.142  15.493  12.881  0.0141 -0.0261  0.0656
17503W        W30917  15.482   8.929  15.116 -0.2889 -0.0958  0.2854
17504W        W30918  17.585  16.758  11.630  0.0141  0.0522  0.0555
17505W        W30919   9.838   9.497   4.174 -0.1242 -0.0376  0.0250
17506W        W30920  16.970  18.160  12.604  0.1072  0.2019 -0.3011
17507W        W30921   8.534  10.337  12.683 -0.0874 -0.0674 -0.0197
17508W        W30922   7.013  12.202   3.917  0.0143  0.2931 -0.0625
17509W        W30923   5.139  16.909  13.755 -0.2912 -0.0963  0.0529
17510W        W30924  12.204  17.449   1.101 -0.2210  0.0514 -0.0449
17511W        W30925  13.372  15.279   0.425 -0.2330  0.0062 -0.2400
17512W        W30926   1.136  12.426  14.021  0.0439 -0.1018 -0.3847
17513W        W30927   2.362  14.845   5.100  0.1423  0.1886 -0.3008
17514W        W30928   1.510   0.384  12.343 -0.1083 -0.0969 -0.1246
17515W        W30929   9.987   1.208  10.728 -0.1290 -0.0859  0.1876
17516W        W30930  16.668  13.339   4.502 -0.3069  0.1232 -0.1430
17517W        W30931   1.415   1.037   0.680 -0.3505 -0.4251 -0.2469
17518W        W30932  13.538   6.116  13.648 -0.1157 -0.1648  0.1078
17519W        W30933  11.059  12.669  12.677 -0.2464  0.1541 -0.0518
17520W        W30934   0.435  17.441   5.967 -0.1136  0.0118  0.0023
17521W        W30935  14.360   6.687  12.412 -0.1784  0.0064  0.1911
17522W        W30936   0.376   9.969  16.304 -0.0360 -0.0100  0.0795
17523W        W30937  14.784  12.734   3.726  0.0458 -0.1065  0.2065
17524W        W30938  13.291  17.519   2.192  0.0204  0.2550 -0.1426
17525W        W30939  14.256   5.100   2.407 -0.1268 -0.1125  0.1494
17526W        W30940  15.205  16.957   3.021 -0.3286  0.2617  0.0039
17527W        W30941   9.648   2.094  16.476  0.0152  0.1335 -0.0834
17528W        W30942   3.009  16.698   5.370 -0.0436  0.2104  0.0328
17529W        W30943  13.854   2.056   1.092 -0.0140  0.0196 -0.0790
17530W        W30944  15.120   5.250  14.027 -0.2176 -0.1950 -0.3634
17531W        W30945   9.927  16.850   6.889  0.2052 -0.1268 -0.2693
17532W        W30946   2.886   6.177  10.186 -0.1810 -0.1450 -0.3346
17533W        W30947   3.730  12.244  16.063 -0.1690 -0.2149  0.1786
17534W        W30948   2.157   7.046   9.431 -0.1246 -0.2604 -0.0789
17535W        W30949  14.817   7.968  10.178  0.1041 -0.0102  0.2011
17536W        W30950   7.935  16.522  12.480  0.0506  0.3555  0.2370
17537W        W30951   3.173  13.892  11.490  0.0873  0.2332 -0.0623
17538W        W30952   1.289   8.850  13.865  0.2135  0.0262  0.1822
17539W        W30953   4.536  13.979   6.480 -0.1429 -0.1059 -0.0169
17540W        W30954  18.057   0.550   3.913  0.2091  0.1823  0.3574
17541W        W30955   8.752  17.960   6.195  0.2590  0.0403  0.2622
17542W        W30956  12.545  10.555  11.881  0.1180 -0.2518  0.1308
17543W        W30957  12.106   6.322  16.327  0.0133  0.0679  0.1361
17544W        W30958   1.589  14.786   2.436  0.1811 -0.1514  0.3114
17545W        W30959   1.278  14.610   3.848 -0.0944  0.0004  0.1280
17546W        W30960  17.970   1.731   0.478 -0.0792  0.0123  0.2308
17547W        W30961   6.810   7.742   3.135 -0.2084  0.2424 -0.2005
17548W        W30962  12.874   3.435  14.373 -0.1304 -0.0646 -0.1289
17549W        W30963   6.352  15.552  12.750  0.0905  0.1364  0.0485
17550W        W30964   6.920   8.179  16.334 -0.0738  0.0251  0.2416
17551W        W30965  16.705  15.028  11.333  0.4785 -0.1389 -0.1002
17552W        W30966   3.912   9.638   2.435  0.0612  0.1149 -0.0425
17553W        W30967   0.455  17.117  12.637 -0.0259 -0.1336 -0.1104
17554W        W30968   8.885  10.695  15.812 -0.0098 -0.0719  0.1046
17555W        W30969  15.102   2.802   1.828  0.0679  0.2765 -0.0947
17556W        W30970   9.823  14.012   4.967 -0.1712  0.1991 -0.4959
17557W        W30971   6.201   7.652   1.337  0.1396  0.3413  0.1625
17558W        W30972   1.830   0.727  13.318 -0.2790 -0.1898  0.0130
17559W        W30973  12.419   8.731   2.573 -0.0263 -0.1432  0.1910
17560W        W30974  12.607  15.727  12.842  0.0111  0.1624 -0.1327
17561W        W30975  10.613  16.067   0.197 -0.0556  0.0546  0.2302
17562W        W30976   3.274   1.821   2.818  0.1051  0.3652 -0.0413
17563W        W30977   2.455  11.745   6.183  0.0991  0.0263 -0.3451
17564W        W30978   1.105   9.630  14.912  0.0365 -0.1654 -0.1206
17565W        W30979   8.240  11.685   0.752  0.0448  0.2812  0.2191
17566W        W30980   9.647   7.820   0.362  0.1314 -0.0749  0.0315
17567W        W30981   2.333  10.846   2.881  0.1647  0.3154 -0.0785
17568W        W30982  13.582   0.555   3.709 -0.0395 -0.0059 -0.0550
17569W        W30983  16.490  14.503  12.287  0.1309 -0.0114 -0.1566
17570W        W30984   1.237  15.686  13.262  0.0912  0.3805  0.1463
17571W        W30985  12.135  14.867   5.156 -0.2433  0.0189 -0.0609
17572W        W30986  15.661  12.519  15.893  0.0610  0.0029 -0.0881
17573W        W30987   8.703   6.603  11.762 -0.3862 -0.0462  0.0446
17574W        W30988   1.246   6.794   5.595 -0.0851 -0.0163  0.0209
17575W        W30989  16.507   5.698   0.571 -0.0387 -0.3639 -0.3323
17576W        W30990   8.893   1.314   1.228 -0.0232 -0.2527  0.0111
17577W        W30991  13.653  12.488  15.508 -0.2980  0.0843  0.1276
17578W        W30992   6.681   5.231   2.626 -0.1055 -0.1295  0.1118
17579W        W30993   7.073   1.480  14.433 -0.4556  0.1634 -0.1312
17580W        W30994   0.001  17.735   2.260  0.1426 -0.1684 -0.0999
17581W        W30995  11.888  12.684  12.641  0.0860  0.0533  0.0458
17582W        W30996   2.734  11.944   1.304  0.1317  0.2382 -0.0009
17583W        W30997   4.178   2.084  16.319 -0.1354 -0.0441 -0.3883
17584W        W30998   4.704   0.985  11.776  0.0251  0.2011  0.1692
17585W        W30999  10.782  14.091  16.215  0.0640  0.2444  0.0937
17586W        W31000   3.121   7.972   0.730  0.3056 -0.0127  0.0302
17587W        W31001  10.528  17.359  15.253  0.0233  0.0618  0.0133
17588W        W31002   1.810  10.590  15.637 -0.1732 -0.1829 -0.0319
17589W        W31003   5.853   7.673   4.270 -0.1148 -0.2309  0.1756
17590W        W31004   5.686   6.043   5.338 -0.0002  0.2180 -0.1998
17591W        W31005  11.971   5.242  11.463 -0.0636 -0.0804 -0.0354
17592W        W31006  13.435  10.271   0.843 -0.0379  0.0244 -0.1049
17593W        W31007   3.050   9.036   0.081 -0.1736  0.0316 -0.4421
17594W        W31008  17.030  11.909   5.637  0.1755  0.2015  0.2942
17595W        W31009  12.793  17.697  14.481 -0.4074  0.1639  0.1421
17596W        W31010  10.495  16.053  12.333  0.0453  0.0459  0.0615
17597W        W31011   8.377  15.418  13.584  0.1381  0.1858 -0.0858
17598W        W31012  13.703  11.179  15.336  0.2717  0.0947  0.0928
17599W        W31013  14.418   6.429  16.477 -0.0290 -0.1232  0.0571
17600W        W31014   6.555   7.140   0.593 -0.1170  0.0645 -0.0259
17601W        W31015  16.706   8.532  14.974  0.1695 -0.1153 -0.0852
17602W        W31016  13.620   5.101  15.130 -0.1106 -0.1757 -0.0614
17603W        W31017   1.893  13.502  14.719 -0.1509 -0.2524  0.0039
17604W        W31018   9.425  17.923   5.198 -0.4685  0.2410 -0.1055
17605W        W31019   6.753   0.122  11.012 -0.1949 -0.5399  0.0595
17606W        W31020  10.070   1.068  13.128  0.2426  0.1632 -0.0903
17607W        W31021   7.856  13.252   1.696  0.0015  0.0968  0.2195
17608W        W31022   9.927   9.805  13.353  0.1926  0.2870 -0.0535
17609W        W31023   5.125   8.322   1.326 -0.0955 -0.1018 -0.0643
17610W        W31024   4.692   8.000   0.447  0.0345  0.1581  0.2796
17611W        W31025   1.524   2.873  10.487 -0.3490 -0.0683 -0.0229
17612W        W31026  11.735  18.056   2.360 -0.1376 -0.2507 -0.0522
17613W        W31027   9.648   7.046  14.132  0.1398 -0.0161  0.4037
17614W        W31028   7.159   0.942  12.228  0.0548 -0.2434 -0.2635
17615W        W31029   8.793   2.226  13.383 -0.0715  0.0370  0.1516
17616W        W31030  15.854   7.940   3.139 -0.0134  0.3578 -0.3835
17617W        W31031   8.658   8.115   1.552  0.2465  0.1605  0.2173
17618W        W31032  13.037   1.283  13.282  0.0124 -0.5139  0.3935
17619W        W31033  15.978   7.886  13.829 -0.1050 -0.0067  0.0395
17620W        W31034  14.071   4.507   1.328  0.3423  0.1322 -0.5255
17621W        W31035  11.254  12.320   4.286  0.1222 -0.0155  0.3339
17622W        W31036   7.916  11.146   4.696  0.1804  0.0467  0.1323
17623W        W31037   6.869   6.605   5.884  0.0316  0.0685  0.1031
17624W        W31038  16.422   7.150  13.950 -0.0363 -0.0470 -0.0040
17625W        W31039   1.843   9.180   4.077 -0.2372 -0.0455 -0.2091
17626W        W31040  10.667  10.624   4.560  0.0694 -0.1378  0.0284
17627W        W31041   4.075  11.689  14.616 -0.1801 -0.2115  0.1519
17628W        W31042   7.223   9.560   4.902  0.1395  0.0746  0.2018
17629W        W31043   3.554  11.100   3.610  0.3611 -0.0129  0.2633
17630W        W31044  18.256   0.788  15.799 -0.1148 -0.0687  0.1880
17631W        W31045   1.948   8.661   5.428  0.2768  0.0840  0.0557
17632W        W31046   5.262  16.471   2.954  0.0205 -0.1993 -0.1480
17633W        W31047   0.682   5.890   4.215 -0.2813 -0.1533  0.1878
17634W        W31048  10.547   1.753  13.328 -0.2502  0.2638  0.2021
17635W        W31049  16.797   0.812  12.737 -0.3920  0.2747  0.1149
17636W        W31050   6.132   0.491   5.601 -0.0159  0.0669  0.2421
17637W        W31051  11.869   0.438  15.819  0.1809 -0.1097  0.0602
17638W        W31052   3.444  16.358  12.003 -0.0584  0.2125  0.1286
17639W        W31053   4.802   3.596   5.059  0.3115  0.3713  0.0967
17640W        W31054  15.481   6.478  14.798 -0.1839  0.1358  0.1246
17641W        W31055   4.150   3.264   2.485 -0.2584  0.0952  0.0264
17642W        W31056  12.062  16.639  11.529  0.0214 -0.0790 -0.2169
17643W        W31057   7.211   6.799   4.674 -0.0099  0.2955 -0.0375
17644W        W31058   5.432   4.098  15.534 -0.2247 -0.1859  0.1881
17645W        W31059   3.108  16.804  15.536 -0.0473  0.2013  0.0242
17646W        W31060   3.840   6.837  16.033  0.1589 -0.0267 -0.2473
17647W        W31061  12.196  16.447   3.211 -0.2879  0.1405 -0.0166
17648W        W31062   4.570   8.222   2.658  0.0375 -0.3252 -0.3105
17649W        W31063   5.654   8.030   3.521  0.1319  0.0265  0.0975
17650W        W31064   7.664  11.775  12.604  0.0427 -0.0551 -0.2775
17651W        W31065  17.097   8.696  11.702  0.0716  0.2296  0.0183
17652W        W31066   3.133  17.784  13.255 -0.0138  0.0197  0.2410
17653W        W31067  13.222  13.669  14.588  0.0412  0.1291  0.1434
17654W        W31068   4.569   4.419   9.610  0.0361 -0.1212  0.0960
17655W        W31069   3.421   1.715  11.559  0.1271 -0.1235 -0.1055
17656W        W31070  12.189   5.593  11.120 -0.0602 -0.1510  0.2135
17657W        W31071  13.718  12.991  11.862  0.3757 -0.2250  0.4545
17658W        W31072   2.048   7.590   5.397  0.0355 -0.1323 -0.0669
17659W        W31073   8.520  14.136  14.917 -0.2657 -0.0848 -0.2024
17660W        W31074  15.507   6.688   0.037 -0.0674 -0.0101 -0.0697
17661W        W31075  14.521  11.637  11.609  0.2944  0.3894  0.2464
17662W        W31076  17.624  10.592   4.406  0.1083  0.0376 -0.1068
17663W        W31077   7.680   4.724   0.239 -0.1028  0.1747 -0.1268
17664W        W31078   1.253  13.411  12.700 -0.1413 -0.0757 -0.2211
17665W        W31079   4.045   0.228  12.102  0.0984  0.3438 -0.0803
17666W        W31080  16.449   6.910  10.682  0.0720  0.1797 -0.1474
17667W        W31081   5.876  13.068  12.537 -0.1563  0.1770 -0.1003
17668W        W31082  13.210  10.552   3.997  0.2475 -0.1115 -0.3074
17669W        W31083   6.056   2.420   6.039  0.0534 -0.0340 -0.0996
17670W        W31084   6.568   9.563   1.687 -0.0366 -0.2035  0.2442
17671W        W31085  17.467   6.234   2.177  0.1551 -0.2888  0.3671
17672W        W31086   3.811   7.670  16.284 -0.4816 -0.1500  0.2026
17673W        W31087   1.511  14.556   0.946 -0.0238 -0.1742 -0.2604
17674W        W31088  14.080   2.515   2.980  0.0239  0.1912 -0.0423
17675W        W31089  10.778   8.934  15.280 -0.0285 -0.0412  0.2550
17676W        W31090  10.839   6.872  15.769  0.0685 -0.1211 -0.5454
17677W        W31091  13.156   3.731   2.213 -0.0836  0.1171 -0.3373
17678W        W31092  10.033  12.106   4.610 -0.1165  0.0307 -0.3956
17679W        W31093  16.058   8.906  12.892 -0.0829 -0.0007  0.1471
17680W        W31094   3.453  15.423   1.862 -0.2694 -0.1710  0.1575
17681W        W31095   1.195   2.599  12.509 -0.1320  0.1935 -0.0153
17682W        W31096   6.332  11.488   1.952  0.2902 -0.0304  0.0076
17683W        W31097  16.879   8.835  12.308  0.2318 -0.1748  0.2385
17684W        W31098   6.866   3.487   4.518  0.2422 -0.1216  0.3294
17685W        W31099   2.497  12.811   1.579  0.2119 -0.2744 -0.0696
17686W        W31100  11.007   7.649   4.024 -0.2148 -0.0796 -0.2057
17687W        W31101   1.655   6.301  12.467  0.0942  0.1051 -0.1781
17688W        W31102   3.230   4.666   0.126 -0.0868  0.2402  0.2390
17689W        W31103   8.738   2.567   3.827 -0.0942 -0.2232  0.1285
17690W        W31104  12.556   2.146   0.890 -0.0606  0.0225 -0.0768
17691W        W31105  12.355  13.468   2.364  0.3349  0.2167 -0.3548
17692W        W31106   3.609   7.864   1.846 -0.1643  0.2785  0.0401
17693W        W31107   7.269   2.111   5.340 -0.0477  0.1820 -0.2130
17694W        W31108   0.780   7.797  11.916 -0.2562 -0.2998 -0.0774
17695W        W31109   0.945  11.857   3.318  0.3224 -0.2224  0.0173
17696W        W31110   8.825   4.477  13.168 -0.0081 -0.2242  0.0980
17697W        W31111   2.877   9.181  12.482  0.0041 -0.1701  0.0318
17698W        W31112   0.107   9.477   2.555 -0.4436 -0.1611 -0.0426
17699W        W31113  16.097  10.110   1.713  0.2707 -0.4197 -0.1773
17700W        W31114   4.949   8.779  14.316 -0.0448  0.2031 -0.2560
17701W        W31115  12.563  18.237   4.087 -0.3475 -0.2092  0.2383
17702W        W31116   0.258   1.408   1.446 -0.1225  0.0660 -0.0702
17703W        W31117  10.797   2.197   5.244 -0.0321 -0.2123  0.2636
17704W        W31118  14.011   1.124   1.478 -0.2876 -0.0784  0.1839
17705W        W31119  11.737   9.794   0.431 -0.5036  0.0911 -0.1730
17706W        W31120  12.359  15.240   6.000  0.3691 -0.1664  0.2084
17707W        W31121   8.486  18.099  13.594  0.0626 -0.0104  0.0584
17708W        W31122   7.162  13.619   3.218  0.0833  0.0937  0.5191
17709W        W31123  17.052   0.474   0.891  0.0539 -0.1735  0.1697
17710W        W31124  16.427   7.982  13.006 -0.0447  0.2557 -0.1147
17711W        W31125  10.414   6.946  13.599 -0.0686  0.0718  0.2740
17712W        W31126   3.812   0.465  13.328  0.1153  0.2547  0.0196
17713W        W31127   9.806  17.595  14.138  0.1924 -0.0538 -0.1222
17714W        W31128   2.972   4.935   6.068 -0.1927  0.0717 -0.0146
17715W        W31129   6.101   1.263  15.405  0.0694  0.0353  0.3095
17716W        W31130   2.331   0.213   5.308 -0.0706 -0.0685  0.1166
17717W        W31131   1.787   3.730   2.188  0.0303 -0.0278  0.0345
17718W        W31132   6.706   8.789   0.010  0.0454 -0.0764 -0.1229
17719W        W31133   4.143  11.472  11.474  0.0133 -0.0610  0.2092
17720W        W31134   8.925   3.302   0.369 -0.0700 -0.1074  0.1418
17721W        W31135   7.220  18.076  15.620 -0.0517  0.0969  0.1843
17722W        W31136  11.970  14.306   1.059  0.0989 -0.0642  0.0545
17723W        W31137  13.438  11.998   3.594 -0.1165 -0.1828 -0.3464
17724W        W31138  15.356  17.109  13.083  0.2749  0.2552 -0.1259
17725W        W31139   0.955  13.063   5.199 -0.0561  0.2812  0.2038
17726W        W31140   8.718   3.931  16.154  0.0265  0.1875  0.1463
17727W        W31141  11.615   7.463  15.411  0.3549  0.1390  0.1625
17728W        W31142  13.035  16.588   4.464  0.0499  0.2097 -0.0484
17729W        W31143   2.286   6.652  15.083  0.0128 -0.0244  0.0584
17730W        W31144  16.546   1.673  12.198 -0.1270  0.4745  0.0082
17731W        W31145   3.288   2.419   5.375  0.1608 -0.1408 -0.0374
17732W        W31146   8.529  15.598  13.097 -0.0108  0.3043 -0.2954
17733W        W31147   4.768   6.508  10.677  0.1200  0.0966 -0.1489
17734W        W31148   3.625   9.478  11.520 -0.0429  0.0601  0.0876
17735W        W31149  18.036   7.401  15.608 -0.0902  0.0377 -0.1257
17736W        W31150   3.343   8.470   1.153 -0.2317 -0.2635  0.1877
17737W        W31151   2.742  16.962   0.562  0.0539  0.0677 -0.2422
17738W        W31152  17.650   9.310  10.696  0.1197  0.1207 -0.0600
17739W        W31153   4.619  12.966  11.101  0.1005 -0.2028  0.3717
17740W        W31154  17.134   3.934  13.423 -0.0272 -0.0445 -0.1014
17741W        W31155  16.913   2.265  14.334 -0.2751 -0.0646  0.0727
17742W        W31156  17.158  13.651   1.886  0.1819 -0.1142  0.1472
17743W        W31157   0.768   4.522  12.386  0.0517  0.1860  0.1425
17744W        W31158   7.811   3.033   4.065  0.1353 -0.1471 -0.2012
17745W        W31159   6.288  16.771   1.861 -0.2128  0.0574 -0.1137
17746W        W31160   7.642   2.059  13.506 -0.1991  0.1621  0.2671
17747W        W31161   5.492  11.371  15.628 -0.0282 -0.3533  0.2696
17748W        W31162   6.449   0.767   4.080  0.4874 -0.1273 -0.1415
17749W        W31163   7.317   6.732  11.355  0.1512  0.0654  0.3990
17750W        W31164   8.780   2.717  14.338  0.0495  0.0171 -0.1401
17751W        W31165   8.751  12.625   5.258  0.2727 -0.1657 -0.1708
17752W        W31166  16.463   3.823  14.427 -0.0124 -0.1025 -0.4486
17753W        W31167   7.205  16.586  13.581  0.0387 -0.1665  0.1643
17754W        W31168   2.479  12.390   1.299  0.0796 -0.0747 -0.3430
17755W        W31169   3.656  12.784  11.665  0.2387 -0.0232 -0.0886
17756W        W31170   5.255   3.329   4.901 -0.1151 -0.0960  0.0624
17757W        W31171   1.939   4.287   2.211 -0.0334  0.1472 -0.1599
17758W        W31172   6.231   9.065   5.074  0.0312 -0.1442  0.1729
17759W        W31173   4.912  13.204  14.429 -0.0036  0.3327  0.2143
17760W        W31174  12.882   1.817   2.377 -0.2188  0.2265 -0.2122
17761W        W31175   3.881   5.582   1.625 -0.0258  0.2112 -0.0222
17762W        W31176   8.828   1.704  15.287 -0.0068  0.0939  0.1247
17763W        W31177   3.639  14.549   2.187 -0.1199  0.1174 -0.0919
17764W        W31178  11.173  11.461   2.357  0.2724  0.2202 -0.0189
17765W        W31179   8.037   5.156   5.062 -0.1379  0.0020 -0.1636
17766W        W31180  11.932   3.465   2.155  0.0635  0.0184  0.2109
17767W        W31181  15.391   0.351   1.606  0.0946 -0.0270 -0.1000
17768W        W31182  17.536   6.599  11.289  0.1044 -0.2254  0.0448
17769W        W31183   3.881   1.126   4.928 -0.0698 -0.1150  0.1998
17770W        W31184   9.037   2.803   3.419  0.1345  0.0105 -0.0425
17771W        W31185   8.705   3.622   2.518 -0.0121  0.0293 -0.0545
17772W        W31186   5.686   4.813  14.435  0.2461 -0.0023 -0.1154
17773W        W31187   4.480   3.930   0.826  0.0910 -0.1937  0.1233
17774W        W31188   3.983   6.436  10.953  0.2489  0.1340  0.0381
17775W        W31189  13.954  11.076  14.558 -0.1623 -0.1725  0.1142
17776W        W31190   0.407  14.944   2.984 -0.2473  0.0988 -0.0343
17777W        W31191   2.772  16.437  15.663  0.0617  0.0290  0.0520
17778W        W31192   9.043   3.654   3.768  0.1177  0.0274  0.0786
17779W        W31193  11.788   2.979  10.969 -0.0110  0.0465  0.0048
17780W        W31194   9.515   2.498   1.086 -0.1448  0.0452  0.1965
17781W        W31195  16.423   7.999  13.652  0.1226  0.0578  0.0838
17782W        W31196   2.486  15.785   1.853 -0.0153  0.1654 -0.2372
17783W        W31197   4.660   3.533   1.746  0.1307 -0.0101  0.2423
17784W        W31198  17.353   3.364  11.075 -0.0387 -0.0072 -0.0917
17785W        W31199   7.544   4.718  12.760  0.3749 -0.0026  0.0374
17786W        W31200  13.850   4.945   0.142 -0.1361 -0.2483  0.1762
17787W        W31201  12.982   5.675  11.614  0.0738  0.1215 -0.3337
17788W        W31202   1.864   3.428   0.321  0.1614  0.0048  0.3140
17789W        W31203  11.220  18.135   3.236  0.1026  0.1034  0.0378
17790W        W31204  14.099  16.931   5.205  0.0585  0.0011  0.1015
17791W        W31205   2.557  14.840   0.468 -0.0912  0.0015  0.2443
17792W        W31206   5.507   2.200  13.642 -0.0149  0.3008 -0.3630
17793W        W31207  16.597  12.636  13.676 -0.3615  0.0856  0.2644
17794W        W31208   9.618   2.568  16.341 -0.1825  0.1180 -0.2679
17795W        W31209   4.450  10.041   0.577 -0.2900  0.1561  0.1470
17796W        W31210   3.970   5.151   1.988 -0.1582  0.2441  0.2021
17797W        W31211   3.010   5.123   5.292  0.0162  0.1182 -0.1691
17798W        W31212   2.499  15.769   5.059 -0.2868  0.2394 -0.2327
17799W        W31213   4.338   7.697  16.213  0.0420 -0.1705  0.0821
17800W        W31214   9.084  15.755  13.051  0.0565 -0.2407 -0.1028
17801W        W31215   4.199  14.712   2.839 -0.1590 -0.0748  0.0181
17802W        W31216  10.890   1.814  13.668  0.2841 -0.0920 -0.0529
17803W        W31217   0.116  11.901   6.086 -0.0318  0.0458  0.2846
17804W        W31218   2.707  10.493  11.504  0.2296  0.0788  0.0804
17805W        W31219  13.222   0.974   3.458  0.2181 -0.0485 -0.0518
17806W        W31220  13.886   1.657  13.511 -0.0212  0.1027  0.0341
17807W        W31221   6.695  17.026   2.919 -0.1976  0.1301  0.3539
17808W        W31222   4.446   6.844  14.944  0.1010 -0.1587 -0.0790
17809W        W31223   2.699   9.146   0.941 -0.0238  0.0944  0.1573
17810W        W31224   1.303  11.314  15.582 -0.1846  0.2275 -0.1342
17811W        W31225   9.070   4.944  13.332  0.4445  0.0988  0.0313
17812W        W31226  13.728   3.467  13.182 -0.2617 -0.1607 -0.0226
17813W        W31227   0.695   6.179   0.786  0.3779  0.2589 -0.2792
17814W        W31228   5.238  10.703  10.536  0.0985 -0.0750 -0.2662
17815W        W31229  15.629   6.945   9.561  0.1612  0.1038 -0.0783
17816W        W31230   9.750   7.718   5.009  0.0094 -0.0462  0.0082
17817W        W31231   3.941  15.419   1.089  0.3123  0.0823 -0.1353
17818W        W31232   4.085  13.655  13.000 -0.2324  0.2138 -0.3683
17819W        W31233  12.571  11.816   5.442  0.2141 -0.1838 -0.0977
17820W        W31234   0.369   3.362  11.889 -0.0629 -0.1872  0.0392
17821W        W31235  10.428   5.813   4.711 -0.0690 -0.0436  0.2967
17822W        W31236  12.079   1.961  14.059 -0.3073  0.2212  0.0145
17823W        W31237  13.578  14.750  15.958  0.1840 -0.1539  0.0879
17824W        W31238   5.627  12.850  15.557 -0.1755  0.0208 -0.0617
17825W        W31239   9.247   4.758   5.497 -0.1257 -0.0307 -0.0775
17826W        W31240  12.570   6.261  10.527 -0.0501 -0.2565  0.0610
17827W        W31241  14.270  15.457   4.264  0.0362 -0.3771  0.1156
17828W        W31242  13.006  12.774  12.077  0.2503  0.2262  0.0132
17829W        W31243  16.945   0.203   1.498 -0.3127  0.2983 -0.0060
17830W        W31244  15.630  11.038  16.027  0.1453  0.0426  0.0369
17831W        W31245   4.517   3.102   3.609  0.1441 -0.0085 -0.1856
17832W        W31246   8.824  17.605   2.110 -0.1823  0.1428 -0.0907
17833W        W31247  16.706   6.834   1.687 -0.1887 -0.1739 -0.0237
17834W        W31248   3.330   9.657  14.814  0.0893  0.0522  0.5034
17835W        W31249  12.291   9.382  13.392  0.1540  0.2935 -0.2926
17836W        W31250   1.802  10.546   5.514 -0.0812  0.0123 -0.0797
17837W        W31251  18.079   1.648   1.336  0.0765 -0.1891 -0.2200
17838W        W31252   1.484  13.925  10.879  0.4226  0.0551 -0.1358
17839W        W31253   8.966  11.634  13.264  0.1405  0.0331  0.0072
17840W        W31254  17.774   8.106  11.497 -0.0687  0.0585  0.2516
17841W        W31255  15.301  16.813   4.398 -0.0373 -0.3419  0.0735
17842W        W31256  16.839   5.099  11.053  0.1367 -0.0259 -0.1760
17843W        W31257   0.175   4.863  13.737  0.1143 -0.2772  0.1879
17844W        W31258   3.450   5.389   1.921  0.1396  0.1002 -0.1772
17845W        W31259  17.728   7.662  11.212  0.1610 -0.2320 -0.3175
17846W        W31260  12.014   9.697  13.074 -0.1416 -0.1633 -0.0614
17847W        W31261   3.457   0.624  16.421 -0.0858 -0.0946 -0.0595
17848W        W31262   5.470  17.357   5.480  0.0507  0.3584 -0.0865
17849W        W31263  10.090   2.991   3.657 -0.0143  0.0320 -0.1223
17850W        W31264   4.948  10.644  14.936  0.1000  0.1291 -0.0928
17851W        W31265   6.252  13.486   4.938 -0.2063 -0.1904 -0.2134
17852W        W31266  15.757   5.475  13.260  0.0972 -0.0247 -0.1551
17853W        W31267   6.408   1.279   3.701 -0.0248  0.3158 -0.0098
17854W        W31268  14.649   6.555   1.159  0.0394 -0.0173  0.1869
17855W        W31269   7.949  11.258   4.142  0.0588  0.0545 -0.2583
17856W        W31270  17.192  10.031  10.750 -0.1585 -0.2007 -0.0117
17857W        W31271   4.712  12.869   1.081 -0.1280 -0.0282  0.3189
17858W        W31272  15.957   1.945  13.835 -0.0457  0.2484  0.0082
17859W        W31273  10.819   7.391   4.665  0.0976  0.3650 -0.0159
17860W        W31274   2.159  15.292  16.009 -0.4298  0.1701  0.1228
17861W        W31275  12.263   9.108  12.296 -0.1162 -0.1262  0.1400
17862W        W31276   1.751  11.212   1.687  0.1218  0.2684 -0.1612
17863W        W31277   1.933  17.141  16.386  0.1752 -0.1228 -0.0198
17864W        W31278  17.650  11.960  12.616  0.0151 -0.2883  0.1072
17865W        W31279   1.528  10.781   2.656  0.2165  0.2058  0.2986
17866W        W31280   5.084  11.248   0.706 -0.1326 -0.0944  0.1543
17867W        W31281   5.825  15.102  12.255 -0.0064 -0.0614  0.0376
17868W        W31282   0.344   1.086   5.681 -0.2172 -0.2610 -0.3165
17869W        W31283   4.005   8.487   4.616  0.3142 -0.0757  0.0038
17870W        W31284   8.796   9.174   2.879 -0.1267 -0.0343 -0.3270
17871W        W31285   5.343   0.431  13.913  0.0459 -0.2504 -0.0860
17872W        W31286   2.030  17.841   2.909 -0.2548 -0.1258 -0.0479
17873W        W31287   3.435  12.985   2.772  0.4783  0.1562 -0.0290
17874W        W31288  14.484   8.035   1.563  0.0584 -0.2396 -0.1615
17875W        W31289  12.533   3.222  15.647 -0.2749 -0.1574 -0.1024
17876W        W31290   8.629   5.828   3.553  0.0517  0.0029 -0.0555
17877W        W31291  10.844   0.351  11.717 -0.2480  0.1317  0.1209
17878W        W31292   5.592  10.580   2.223 -0.1412 -0.0150 -0.0040
17879W        W31293   6.932   5.735   4.105 -0.0912 -0.0989 -0.0073
17880W        W31294  15.271   1.467  10.656  0.0195  0.2364  0.1839
17881W        W31295  16.129   2.164   9.761  0.0042 -0.1866 -0.0969
17882W        W31296  16.274   9.714  11.162  0.3726  0.4415 -0.3416
17883W        W31297  15.118   8.426   2.244 -0.3076 -0.0464  0.0383
17884W        W31298  14.504  16.732   3.987 -0.1106  0.2422 -0.1179
17885W        W31299   2.239   1.902  13.320  0.1611  0.2992  0.0129
17886W        W31300   8.772   8.106  13.202  0.0086  0.1449  0.3095
17887W        W31301  12.947  13.584   7.233 -0.0923 -0.0722 -0.1563
17888W        W31302  15.683  18.233   4.847  0.1925 -0.0141  0.2859
17889W        W31303  14.730  15.442   4.537 -0.1229  0.0199 -0.1962
17890W        W31304  12.288  10.477   0.640 -0.1141 -0.2689 -0.1848
17891W        W31305  14.810   5.205  15.565  0.1508 -0.2557  0.0612
17892W        W31306   4.648  17.073  13.881 -0.2812 -0.0056 -0.1261
17893W        W31307   1.149  16.745   5.800 -0.2335 -0.0675  0.1394
17894W        W31308   6.942  13.475  15.337  0.1435 -0.1307  0.1819
17895W        W31309   5.563   3.765  12.238  0.0310  0.1854 -0.0265
17896W        W31310   0.488  15.307   4.525  0.0578 -0.0790 -0.1177
17897W        W31311  10.229  11.455   1.449  0.0622  0.0663  0.3922
17898W        W31312   2.126   8.294   0.785 -0.2590 -0.1821  0.0583
17899W        W31313   3.895   0.634   1.840  0.2683 -0.0747 -0.2640
17900W        W31314   2.855   3.432   5.264 -0.1301  0.0185  0.2796
17901W        W31315   1.330   0.749  13.300  0.2277 -0.0952  0.1478
17902W        W31316   3.875  11.731   5.553  0.3005  0.2448 -0.1149
17903W        W31317   0.236   7.689  11.175  0.2684  0.2461  0.5113
17904W        W31318  13.471  14.836   0.681 -0.0534 -0.1865 -0.0667
17905W        W31319   3.147  11.037  11.009  0.0946  0.3938 -0.0270
17906W        W31320   5.179   3.685   5.401 -0.2582 -0.1494 -0.1430
17907W        W31321   4.621  14.845   0.585  0.0748  0.0572 -0.1776
17908W        W31322   6.224   6.506   0.236 -0.1353  0.1531 -0.0562
17909W        W31323   7.866   0.047  13.241  0.1560 -0.2902 -0.0529
17910W        W31324   1.918   1.246   5.029  0.0492 -0.1484  0.2091
17911W        W31325   8.049   3.106   2.460  0.0168 -0.1108 -0.1139
17912W        W31326   3.075  15.993   2.789 -0.0775 -0.3944  0.0606
17913W        W31327  14.098  14.836  13.081 -0.2925 -0.1023  0.2615
17914W        W31328  13.559   2.457  15.915  0.0549  0.2546  0.2672
17915W        W31329   7.493  17.199   3.105 -0.2007 -0.0771 -0.2416
17916W        W31330   5.753   3.402   0.722 -0.0395  0.1392  0.0990
17917W        W31331   2.532  16.081   4.660  0.0180  0.0616 -0.1002
17918W        W31332   3.846  17.680   2.767 -0.1707  0.0424  0.2869
17919W        W31333   9.867  10.026   5.512  0.1109  0.1524 -0.2256
17920W        W31334  10.144   1.103   4.470 -0.0258 -0.0185  0.2064
17921W        W31335  13.400   1.219  14.348  0.0749 -0.0801 -0.0614
17922W        W31336   9.588   3.114   3.632  0.3309 -0.1994  0.2677
17923W        W31337   1.899  13.981   5.978  0.0449  0.0968  0.0655
17924W        W31338   8.820   3.831  14.476  0.2712  0.2010  0.1529
17925W        W31339   2.886  15.229   3.797  0.2222  0.0281  0.0334
17926W        W31340   9.750   6.490   2.573  0.1657 -0.0938  0.0682
17927W        W31341   3.149  11.283   3.255  0.0411 -0.1132  0.2107
17928W        W31342  16.073  15.184  13.493 -0.1847  0.0450 -0.4174
17929W        W31343   2.713  11.252   0.648 -0.0308 -0.0706  0.1806
17930W        W31344  15.132  11.196  13.263  0.0248 -0.1580  0.1179
17931W        W31345  11.323  17.335   0.188  0.1621 -0.1194  0.1813
17932W        W31346   4.631   2.902  11.047  0.0914  0.0455 -0.1841
17933W        W31347  17.974   9.563  12.456  0.0384  0.2080  0.2129
17934W        W31348  17.797  10.276   2.706 -0.2906 -0.0440 -0.1804
17935W        W31349  15.871  18.160  14.930  0.3156  0.0719  0.1892
17936W        W31350   4.493  11.313  12.437 -0.0212 -0.0094 -0.2296
17937W        W31351  17.740  11.005  11.900  0.0286 -0.2013  0.0833
17938W        W31352   5.678  16.113   3.520 -0.0481 -0.0905 -0.1006
17939W        W31353   5.205  16.117  13.353 -0.1061  0.1719  0.0021
17940W        W31354  12.856   4.600   2.111  0.0477  0.1852  0.2392
17941W        W31355  15.465   4.157  13.378  0.3247  0.2097  0.0453
17942W        W31356  11.898   6.429  13.972  0.0367 -0.1710  0.0499
17943W        W31357  11.974  13.188  15.262 -0.2440 -0.3373 -0.1673
17944W        W31358   3.736  14.832   3.183  0.3147  0.2284  0.1023
17945W        W31359   2.044  14.857  12.655  0.0304 -0.0736 -0.1406
17946W        W31360   0.072   0.104   5.157  0.1702  0.0233 -0.0911
17947W        W31361  16.920  16.216   4.612  0.3295 -0.1048 -0.1059
17948W        W31362  11.992  13.336   2.710  0.0708  0.0806 -0.0901
17949W        W31363   0.646  17.659  11.424 -0.1126  0.0370 -0.1589
17950W        W31364  14.343  16.856   2.657  0.0773  0.4095  0.0577
17951W        W31365  15.893  12.947   0.613  0.0021  0.2862 -0.0993
17952W        W31366   3.074   8.508   0.718  0.0408  0.1894 -0.1682
17953W        W31367  14.323   8.408   4.644  0.0412  0.1049 -0.1201
17954W        W31368   6.752  13.427  16.067  0.2090  0.0402 -0.0149
17955W        W31369  17.766  17.160   2.814  0.0883  0.0820  0.0366
17956W        W31370  18.247  11.470  10.988 -0.0481  0.2583 -0.4342
17957W        W31371  12.509   1.460  14.488 -0.0752 -0.1982  0.1543
17958W        W31372  12.057   7.414  14.047  0.0244  0.0098 -0.0052
17959W        W31373   1.194   6.802   1.057  0.2030 -0.1738  0.0508
17960W        W31374  15.976   4.128   0.349  0.2256 -0.0958 -0.0325
17961W        W31375   3.355  10.531   3.694  0.0968 -0.1312  0.1305
17962W        W31376   0.406  16.853   3.557  0.0800 -0.0754 -0.0374
17963W        W31377   0.798   1.422  15.752  0.0790 -0.1776 -0.0602
17964W        W31378  17.002   1.628  11.587 -0.1389  0.1940  0.1780
17965W        W31379   5.621  12.674   5.232 -0.0891  0.1954  0.0303
17966W        W31380  12.378  12.860  13.279 -0.3021  0.0482 -0.0268
17967W        W31381   9.267   5.901  13.290  0.1538 -0.1431 -0.1396
17968W        W31382   0.265  12.582   4.561  0.0220  0.2262 -0.1059
17969W        W31383  17.153   3.422   5.130  0.3560  0.0742 -0.1294
17970W        W31384   9.533   4.582  13.711 -0.0665  0.2842  0.2301
17971W        W31385   8.268  12.707   5.088 -0.1861  0.4815 -0.4361
17972W        W31386   4.049  13.540  14.688  0.1586  0.0642  0.2849
17973W        W31387  15.147   2.649   1.312 -0.0737  0.0105  0.1950
17974W        W31388  16.033   2.777  15.831  0.1420 -0.1167 -0.0863
17975W        W31389  11.574  13.861   5.615  0.0998 -0.0260  0.0080
17976W        W31390  16.587  11.502  14.807 -0.3241  0.4101 -0.0640
17977W        W31391  13.136   0.376   4.956  0.0888  0.2616 -0.0646
17978W        W31392  16.974  12.735  15.528  0.0032 -0.0376 -0.0110
17979W        W31393   4.087  13.135  16.184 -0.2049  0.2695  0.2956
17980W        W31394   2.682   0.566  11.309 -0.1778 -0.0242 -0.0809
17981W        W31395  15.311  14.814   1.453  0.1170  0.1491  0.1163
17982W        W31396   8.309   6.978  15.683 -0.2227 -0.2201 -0.0209
17983W        W31397   4.772  12.606   3.296 -0.0117  0.0501 -0.0969
17984W        W31398   2.428   2.927  12.897 -0.0274 -0.0476 -0.2048
17985W        W31399   7.411   6.250   6.603 -0.0984 -0.1604  0.2209
17986W        W31400   3.840   9.427  14.697  0.0507  0.0297 -0.2900
17987W        W31401   6.162   0.860   1.958  0.1742  0.4611  0.0964
17988W        W31402  14.545   2.879  10.717 -0.1176  0.0185 -0.1906
17989W        W31403  11.302   9.818  15.250  0.2428 -0.1171 -0.1704
17990W        W31404  13.193  14.975   3.966  0.5785 -0.3465 -0.3929
17991W        W31405  14.452   6.676   5.666 -0.0484 -0.0267 -0.0198
17992W        W31406   2.712  17.740  11.274  0.0049 -0.0778  0.0897
17993W        W31407  18.256  10.006   0.858 -0.0154  0.3233 -0.1253
17994W        W31408   0.898  12.954  11.221 -0.0656  0.1651  0.4655
17995W        W31409   8.275   6.248   2.352  0.0332  0.2503  0.3490
17996W        W31410  11.372   3.350  14.317 -0.2537  0.5884  0.2041
17997W        W31411   0.290  14.219  12.960 -0.2464 -0.0411  0.3067
17998W        W31412  17.769  12.763  15.430 -0.0337  0.1022  0.1849
17999W        W31413   0.911   5.715   3.263  0.0655  0.1374  0.1764
18000W        W31414   9.542  14.518  16.413 -0.1795 -0.1814  0.0405
18001W        W31415   0.189  13.271  14.127  0.0656 -0.3025  0.1363
18002W        W31416  11.128  17.330   1.022 -0.0304  0.3926 -0.1536
18003W        W31417  14.609  12.423  11.425  0.0736 -0.0727  0.1840
18004W        W31418  14.675  14.702  12.140 -0.1901 -0.0039 -0.2638
18005W        W31419  16.917  10.347   2.112  0.3890  0.0517  0.2071
18006W        W31420   5.879  11.503  11.238 -0.1298 -0.0695 -0.0651
18007W        W31421   3.814   9.229   3.787 -0.3125 -0.0928 -0.2266
18008W        W31422   9.142  15.828  11.240 -0.2133 -0.1336 -0.3720
18009W        W31423   0.782  12.366   6.134  0.5698  0.0857  0.0941
18010W        W31424  16.316   7.823   3.176  0.0234  0.2433 -0.0313
18011W        W31425  12.588  11.965  14.317 -0.0109  0.2484  0.0818
18012W        W31426   3.578  10.218   1.845 -0.0145 -0.1155  0.1865
18013W        W31427  16.738   0.538   1.760  0.3431 -0.1194 -0.1067
18014W        W31428  18.163   8.074  11.129  0.1868 -0.2332  0.0427
18015W        W31429  15.075   9.088   6.059 -0.1318  0.0830  0.0894
18016W        W31430   1.791   4.336  11.658  0.1530 -0.1539  0.2281
18017W        W31431   7.473   5.473   3.414 -0.0165 -0.0682  0.0979
18018W        W31432  11.846  16.868  12.400 -0.3982 -0.0245 -0.2165
18019W        W31433  10.327  14.227  13.468 -0.1764 -0.1298  0.1315
18020W        W31434   9.864  15.947   1.539 -0.1476 -0.1168 -0.1641
18021W        W31435   3.553   3.830   0.198  0.1580  0.2104 -0.3600
18022W        W31436  14.262   4.859  15.359  0.1099  0.1394 -0.0924
18023W        W31437   8.868   6.486   0.405  0.1704 -0.0975 -0.0361
18024W        W31438   1.292   1.298  11.091  0.1661 -0.2233  0.4028
18025W        W31439   1.552   9.391   3.739  0.0528  0.1281 -0.0802
18026W        W31440  10.780  13.424  11.698  0.2161 -0.2402 -0.1274
18027W        W31441   9.108  13.019  10.952  0.1179 -0.1040 -0.2125
18028W        W31442  15.777  13.016  14.389  0.0830 -0.3283  0.0728
18029W        W31443   2.266  13.848  16.294 -0.0014  0.2721 -0.0831
18030W        W31444  17.566  14.336   2.401  0.0813 -0.0036 -0.1814
18031W        W31445  13.286   3.278  12.074 -0.0051  0.1386 -0.0428
18032W        W31446  16.892  14.818   0.432 -0.2606  0.1540  0.0669
18033W        W31447  17.532  14.756  14.827  0.0039  0.3235 -0.0286
18034W        W31448  17.002  10.151  12.481 -0.5212 -0.2230  0.1853
18035W        W31449   2.942  17.495  10.811 -0.1402 -0.0318 -0.1427
18036W        W31450   5.472   1.874   2.183 -0.1559 -0.0541  0.4607
18037W        W31451   1.894   4.267   0.110 -0.3897  0.0083 -0.0361
18038W        W31452  13.796  15.412  12.555  0.0686  0.1460  0.3288
18039W        W31453   7.106   8.847   0.464  0.3517 -0.0945 -0.1744
18040W        W31454  14.962  16.399   3.300  0.4761  0.1322  0.1436
18041W        W31455  15.137  12.298   1.760 -0.0404  0.0570  0.2200
18042W        W31456   9.981  14.602  15.294  0.2012 -0.0166  0.1070
18043W        W31457   1.797  17.813   5.704 -0.1842  0.1451  0.2172
18044W        W31458   6.951  16.349   2.362 -0.4607  0.1141  0.1775
18045W        W31459  14.606   1.222   1.607 -0.4253 -0.0148 -0.0487
18046W        W31460   8.498   9.923   1.331 -0.1088 -0.1685 -0.2809
18047W        W31461   4.088   5.933   4.414 -0.2305  0.0086 -0.0180
18048W        W31462   2.478   2.067  12.352  0.0089  0.1868  0.1683
18049W        W31463   7.926  18.013  11.795  0.0134  0.0521 -0.2296
18050W        W31464   7.299   5.376   0.812 -0.1003 -0.1031  0.0314
18051W        W31465   6.389   6.790   3.303  0.0595 -0.0317  0.0860
18052W        W31466  15.710  18.105   0.137 -0.0682 -0.0887  0.2322
18053W        W31467  15.335  16.256  15.111 -0.0238 -0.2022  0.0117
18054W        W31468   1.058  10.295   3.020  0.0284  0.1452  0.1294
18055W        W31469  12.663   9.390  11.480 -0.0580  0.1879  0.2858
18056W        W31470  13.331   8.304   4.106 -0.0467 -0.1971 -0.2025
18057W        W31471  12.335  13.833  12.783  0.2185 -0.1819 -0.1802
18058W        W31472   1.005   1.885  15.780 -0.0084 -0.0405 -0.2086
18059W        W31473  15.212  17.473   6.145  0.3598 -0.1843 -0.1964
18060W        W31474   5.483   6.750  14.608  0.0328 -0.0041 -0.0492
18061W        W31475   9.381  14.949   5.644  0.4103 -0.1899  0.1416
18062W        W31476   1.878  13.500  15.242  0.1087  0.0579 -0.0347
18063W        W31477  17.786   3.848   2.957 -0.1110 -0.0787  0.0684
18064W        W31478  10.062   3.707   3.045  0.0333 -0.0848 -0.0251
18065W        W31479   2.515   9.319  14.492 -0.0168  0.1368 -0.4825
18066W        W31480  17.558   3.395  13.476 -0.1541  0.0389 -0.2210
18067W        W31481  10.363  13.143  11.535 -0.3905 -0.2238 -0.0935
18068W        W31482  11.201  12.412   0.013  0.2759 -0.1424  0.2396
18069W        W31483  10.833  17.024  13.666  0.1638 -0.1631  0.0107
18070W        W31484  16.365   5.065  10.526 -0.0919  0.0947  0.1998
18071W        W31485  10.502  15.739  14.144 -0.0522  0.0434 -0.3287
18072W        W31486  14.481   6.111   5.038 -0.0465 -0.1547  0.0721
18073W        W31487  13.690   1.255  11.360 -0.1500 -0.0463 -0.2578
18074W        W31488  17.184  13.858  15.511  0.1026  0.2963  0.1503
18075W        W31489  12.433  13.205   5.516 -0.0551 -0.1913 -0.1569
18076W        W31490   9.845   0.880   1.079  0.0457 -0.1446 -0.3075
18077W        W31491   0.666  12.278   4.558  0.0546 -0.0716 -0.1376
18078W        W31492   0.785   1.076  12.888  0.1322  0.3604 -0.0452
18079W        W31493   6.358   6.270   0.658 -0.2284 -0.1356 -0.1572
18080W        W31494  15.812   1.307   4.126 -0.3869  0.1431 -0.2063
18081W        W31495   7.033   4.439  12.652  0.1466  0.1108 -0.2603
18082W        W31496  11.691  10.730  15.192 -0.2503  0.1905  0.0742
18083W        W31497   6.875  17.782   3.570 -0.0733  0.0420 -0.0604
18084W        W31498  12.209   8.871  10.878 -0.0168  0.0388  0.1223
18085W        W31499   2.006  17.102  14.367  0.0345 -0.1292  0.1962
18086W        W31500  16.099  14.202  11.963 -0.3094 -0.1681  0.0556
18087W        W31501  12.083   5.780  14.640  0.0769  0.0024 -0.2088
18088W        W31502   0.573  10.329  15.173 -0.1519 -0.0699 -0.1192
18089W        W31503  11.866   8.102   2.953 -0.1491 -0.3226 -0.0332
18090W        W31504   2.896   9.663  15.071 -0.1405 -0.1680 -0.2060
18091W        W31505   4.636   9.000  12.052  0.1063  0.1062 -0.2852
18092W        W31506   3.662  16.903   0.942  0.3031 -0.4005  0.3054
18093W        W31507   8.164  18.244  12.240 -0.1521 -0.1385  0.0515
18094W        W31508   9.747  15.023  15.348 -0.0092  0.1798 -0.2319
18095W        W31509  16.534   7.483   4.258  0.0982  0.2073  0.0467
18096W        W31510  15.797  13.550   1.473  0.1755 -0.1769 -0.1612
18097W        W31511   2.436  17.416  14.525 -0.0946  0.2603  0.0299
18098W        W31512   7.406  11.842   2.285 -0.1187 -0.0585 -0.1276
18099W        W31513   8.021   7.138   2.029  0.1076  0.0766 -0.1931
18100W        W31514  17.857   2.759   1.850  0.1061  0.5353 -0.1272
18101W        W31515  17.545   7.100   4.973  0.0037 -0.3324 -0.0715
18102W        W31516  12.899  12.189  15.331 -0.0736 -0.0713 -0.3537
18103W        W31517  12.918   7.400   3.614 -0.0142 -0.0203 -0.1083
18104W        W31518   3.609   0.527  11.692  0.0346  0.5303 -0.3158
18105W        W31519   2.015  12.495   5.843 -0.1840  0.1808  0.0463
18106W        W31520  10.844   1.982  16.012  0.1721 -0.0693 -0.0449
18107W        W31521   0.472   8.533  15.171 -0.1246 -0.0918  0.0375
18108W        W31522   8.341   5.815  14.808 -0.1663 -0.0868 -0.0848
18109W        W31523  17.694  16.175   4.915  0.0027  0.1238  0.3078
18110W        W31524   5.112  13.845   5.781 -0.1639 -0.0407 -0.1910
18111W        W31525   3.184  17.416   1.160  0.0506 -0.2194  0.1376
18112W        W31526  11.717  16.757   5.446  0.3290  0.2544  0.1344
18113W        W31527   0.908  16.254  14.114 -0.2816 -0.0444  0.0791
18114W        W31528  10.867   1.725   4.288  0.1268  0.1723  0.0255
18115W        W31529   6.893  17.533   0.228 -0.0629  0.2138 -0.1551
18116W        W31530   7.821  18.231   3.480 -0.2045 -0.0695 -0.1263
18117W        W31531   3.819  13.045   3.607 -0.0284 -0.2403 -0.0557
18118W        W31532   7.391  14.468   4.042  0.0749  0.0687  0.0406
18119W        W31533   4.662   7.521  10.510  0.1311 -0.1289  0.0605
18120W        W31534  17.926   1.929   6.158 -0.0641 -0.0953  0.2038
18121W        W31535  16.796  14.849  11.964  0.1306 -0.2679  0.1447
18122W        W31536   7.507   0.058   0.030 -0.2955  0.0006 -0.2139
18123W        W31537   2.928  18.198   2.653 -0.1880  0.0053 -0.0608
18124W        W31538   1.951  14.541   5.211  0.3117 -0.3207  0.0234
18125W        W31539   9.096  10.204   6.289  0.1498 -0.0880 -0.3748
18126W        W31540  12.399   5.672  15.960 -0.0556  0.0250  0.1341
18127W        W31541   6.783  13.546  11.665  0.3039  0.0951 -0.4283
18128W        W31542  15.605   4.989   3.686 -0.2448  0.0407  0.1280
18129W        W31543   2.946   5.684   1.353 -0.1156 -0.2277  0.0168
18130W        W31544  14.319   5.731  13.000 -0.1650 -0.0950  0.1293
18131W        W31545   4.014  10.485   3.853  0.0435  0.1221  0.2653
18132W        W31546   4.406   0.189  15.130  0.2241  0.4318 -0.0963
18133W        W31547   3.571  15.977  12.354 -0.0821 -0.0383  0.0802
18134W        W31548  17.164  16.566   3.481 -0.2407 -0.1056  0.2254
18135W        W31549  17.155   9.884  12.912  0.0366 -0.0797 -0.1424
18136W        W31550   9.057   2.150  15.221 -0.0040  0.0860  0.1291
18137W        W31551   1.463   0.293   3.347 -0.1518 -0.1128 -0.2998
18138W        W31552   3.598   7.119   1.126 -0.5439  0.0082 -0.2912
18139W        W31553   5.941   1.073  11.515 -0.0034  0.1259  0.2601
18140W        W31554   1.790   2.487   5.576 -0.0277  0.2472 -0.0503
18141W        W31555   5.150   9.633   3.944  0.1050 -0.1781  0.0500
18142W        W31556   0.634  13.149   6.513  0.1625 -0.1237  0.0786
18143W        W31557   5.069   4.035  14.123  0.0047  0.2534 -0.2061
18144W        W31558   4.054   5.171  10.577  0.1108  0.0101 -0.2647
18145W        W31559   7.675  14.824   1.511  0.2467 -0.1461  0.1636
18146W        W31560   8.452   7.942  10.494 -0.0657  0.2675  0.0838
18147W        W31561  14.933  10.940   1.647 -0.0506  0.0737  0.0030
18148W        W31562   9.361  15.029  15.716  0.1119  0.0107 -0.3776
18149W        W31563  17.326   1.150  14.813 -0.1742 -0.1256 -0.2121
18150W        W31564   7.885   6.593   3.434 -0.2166 -0.1864  0.0610
18151W        W31565   4.172  14.372  12.663  0.0217  0.4334  0.1298
18152W        W31566  17.157   0.991   2.390 -0.0102 -0.1019  0.0449
18153W        W31567   4.841  10.346  13.637 -0.1295  0.0804  0.0855
18154W        W31568   1.666  10.875   0.405 -0.2859 -0.1358  0.0694
18155W        W31569  11.282  10.930   2.484 -0.1911 -0.1118 -0.2384
18156W        W31570  11.328  12.519   5.919  0.0073  0.2729 -0.2622
18157W        W31571   7.713   8.954  11.298 -0.1730  0.2533  0.0034
18158W        W31572  10.805  11.176   3.342  0.1618  0.1253 -0.2079
18159W        W31573   9.897   5.535   2.328  0.0438 -0.1955  0.1025
18160W        W31574  13.168  12.355  11.851 -0.1101 -0.3371 -0.3437
18161W        W31575   8.438   0.275  15.074  0.1227 -0.1303  0.0623
18162W        W31576   5.778  16.504  15.354  0.0622  0.0438 -0.0608
18163W        W31577   1.356   8.914   3.429 -0.0406 -0.2983 -0.1436
18164W        W31578  11.474  11.462  15.073 -0.2126  0.0246 -0.3628
18165W        W31579  14.913   1.903  15.231 -0.1255  0.0562 -0.1663
18166W        W31580   7.358  10.349  14.552  0.2443 -0.2300  0.1563
18167W        W31581   9.182  17.851   4.706 -0.1015 -0.1318 -0.1373
18168W        W31582  13.352  16.367  13.158  0.0191 -0.2806  0.0607
18169W        W31583  11.784   3.657   3.070 -0.1694  0.1377  0.0846
18170W        W31584  18.158  17.520  10.977 -0.0832  0.0899  0.2186
18171W        W31585   6.247  15.240  13.100  0.0868 -0.2088  0.1452
18172W        W31586  15.763  10.075  15.137 -0.2765 -0.1718  0.0005
18173W        W31587   3.354   4.888   1.186 -0.0441 -0.0208 -0.0461
18174W        W31588   7.841  11.982  10.520 -0.0463  0.5729  0.4035
18175W        W31589   4.247  14.409  13.674  0.0345  0.0410 -0.0222
18176W        W31590   5.618   5.020  12.351 -0.0517 -0.0400  0.1162
18177W        W31591   0.331   5.096  14.166 -0.2609 -0.0227  0.1250
18178W        W31592   1.272   9.834  11.296 -0.0712 -0.2266 -0.2034
18179W        W31593  16.823  12.518  11.501  0.1525 -0.0962  0.0347
18180W        W31594   9.675   5.542  14.241  0.3434  0.0345  0.2478
18181W        W31595   5.500   4.988   1.694  0.0046  0.2077  0.1070
18182W        W31596  12.496   4.427   2.601  0.0095 -0.2069 -0.1952
18183W        W31597   3.553   7.726  13.919  0.0976 -0.0099  0.1364
18184W        W31598   8.837  11.167  13.123 -0.1674 -0.0998  0.1221
18185W        W31599  13.136   1.548   1.355 -0.1444  0.0333  0.3013
18186W        W31600  13.683  18.092  13.346  0.0800 -0.3683  0.0180
18187W        W31601   1.472   9.092   4.654 -0.2314  0.3065 -0.1053
18188W        W31602   1.192  10.829  11.313 -0.1490  0.0566  0.1293
18189W        W31603  11.209   3.202  15.420 -0.0421 -0.1912  0.1633
18190W        W31604  13.174   4.929  15.665  0.0091  0.2282 -0.1693
18191W        W31605  14.951   4.301  13.156 -0.1582 -0.0920 -0.3571
18192W        W31606   9.583  15.310  16.525  0.1059  0.1311  0.0173
18193W        W31607  13.757   3.794  14.042  0.1088 -0.0798 -0.2622
18194W        W31608  16.567  16.031   1.110  0.0597 -0.2331  0.2176
18195W        W31609   0.224  17.265  16.151 -0.1508 -0.2494  0.2531
18196W        W31610   2.127   5.797   0.706 -0.1254 -0.1756  0.1784
18197W        W31611  10.882  13.704  11.233 -0.4482 -0.0299 -0.0842
18198W        W31612   3.715  13.728  16.001  0.1353 -0.0533  0.2959
18199W        W31613  12.007  10.288   1.606  0.0066 -0.2009  0.0243
18200W        W31614   0.530   0.719  16.456  0.0507  0.0724  0.1674
18201W        W31615  13.991   6.071   1.637 -0.1541  0.0340 -0.0441
18202W        W31616   3.389  11.141  13.348  0.2660 -0.3589  0.0733
18203W        W31617  13.299   9.626   4.826 -0.1637 -0.1703  0.3367
18204W        W31618  16.327   3.577   4.826  0.3209 -0.0776  0.0872
18205W        W31619   5.349  12.794   4.806 -0.0844 -0.0048 -0.1179
18206W        W31620   3.353  13.983   2.114  0.0004  0.0406 -0.1668
18207W        W31621  10.609   6.389   9.985  0.1235  0.0165 -0.0029
18208W        W31622   7.037   9.350   3.284 -0.1285  0.0190 -0.0696
18209W        W31623  10.393  14.529   6.692  0.0102  0.1267  0.2996
18210W        W31624  17.144  16.599  11.948  0.0784 -0.0385 -0.4197
18211W        W31625  12.942  16.675   5.143 -0.0947 -0.1075 -0.3621
18212W        W31626   7.600   5.609  14.308  0.0322 -0.1098 -0.2460
18213W        W31627   4.158  12.543  16.128  0.0507 -0.0529 -0.0675
18214W        W31628  10.390   9.862  12.786  0.1339  0.0629  0.1191
18215W        W31629  18.214   9.541   0.982  0.0141  0.2451  0.0401
18216W        W31630   0.222   6.167  14.034 -0.2693  0.1440  0.0198
18217W        W31631  12.027  12.295  13.454 -0.0467 -0.2054 -0.0010
18218W        W31632   3.600  11.750  14.864  0.1174  0.1884 -0.1251
18219W        W31633  16.976   7.681  12.047 -0.0334 -0.1437 -0.2980
18220W        W31634   2.772   7.949  11.651  0.4828  0.0094 -0.1340
18221W        W31635  13.240   0.367  15.131  0.3704  0.3309 -0.4228
18222W        W31636   7.384  14.877  14.295  0.1317 -0.0291  0.1908
18223W        W31637  16.589   0.843  14.759 -0.0432 -0.1788  0.0853
18224W        W31638   0.175  12.568   5.371 -0.0354 -0.1897 -0.0986
18225W        W31639   6.808  10.900  11.622  0.0027  0.1486 -0.1698
18226W        W31640   9.187  14.003  10.488 -0.0474 -0.0591  0.3017
18227W        W31641  14.464  11.057   2.029 -0.0134 -0.3712 -0.1844
18228W        W31642   9.619  12.244  14.911  0.0444  0.0943 -0.1376
18229W        W31643  12.866   4.137   5.594 -0.0832  0.2853 -0.2025
18230W        W31644   4.269  17.292   4.716 -0.0348 -0.0304  0.1792
18231W        W31645   0.815   1.882  12.958  0.1776  0.0890  0.2529
18232W        W31646   0.177  11.489  14.630  0.0992 -0.2728 -0.0448
18233W        W31647   2.657  12.504   4.564  0.1843  0.1881 -0.0535
18234W        W31648  15.651   0.295   1.179  0.2835  0.1544  0.2730
18235W        W31649   0.962  15.543   3.479 -0.0248 -0.0466 -0.0576
18236W        W31650  16.183  16.087   1.776 -0.0864 -0.0379  0.1564
18237W        W31651   5.996  18.237  14.222 -0.0246 -0.0694 -0.1258
18238W        W31652  10.207   5.845  13.308  0.0694  0.0400 -0.1648
18239W        W31653  11.676   1.494  14.724 -0.0007 -0.3359 -0.4375
18240W        W31654   4.657   3.246   2.202  0.0028 -0.0471 -0.0409
18241W        W31655   1.758  14.857  11.674  0.1835  0.2519  0.2642
18242W        W31656   3.655   5.222  11.333  0.2933 -0.1696  0.0499
18243W        W31657  15.402  17.260   0.264 -0.0667  0.5189 -0.0644
18244W        W31658  11.108   5.785  14.508  0.2109 -0.0168 -0.1223
18245W        W31659   3.300   8.847  15.333 -0.0318  0.1191 -0.2077
18246W        W31660  13.258   6.930  13.815 -0.2380  0.1355 -0.2831
18247W        W31661   4.363   7.180  10.256 -0.0962  0.1016 -0.2783
18248W        W31662   4.374   5.264   1.051 -0.2217  0.0550 -0.2928
18249W        W31663  13.609   9.585   2.019 -0.0154 -0.1915 -0.1529
18250W        W31664   1.874   1.723   3.707  0.2309 -0.1097  0.0321
18251W        W31665  10.630  16.772   1.685  0.3091 -0.2064 -0.2178
18252W        W31666  15.572   0.286   0.017 -0.1127  0.1018 -0.0878
18253W        W31667   2.405   7.174   6.151 -0.2048  0.2656  0.1095
18254W        W31668  17.344  14.892   0.205  0.0063 -0.1168  0.0301
18255W        W31669   1.396  17.075   5.426 -0.3331 -0.1212 -0.1252
18256W        W31670   0.319   3.759  15.565 -0.1125 -0.1543  0.4346
18257W        W31671   6.664  10.535  13.451  0.2430  0.0235 -0.2427
18258W        W31672   1.568   5.920   0.310 -0.0476  0.1209 -0.1505
18259W        W31673   2.637   7.267  13.805 -0.0768 -0.0949  0.2297
18260W        W31674   8.872   4.832  16.431 -0.3562 -0.2843 -0.3116
18261W        W31675  11.823  13.563   3.235  0.0084 -0.3679  0.0230
18262W        W31676  14.452  11.823   3.564 -0.0865  0.0214  0.2337
18263W        W31677   5.031   6.574   6.349  0.1624  0.0769  0.0293
18264W        W31678   1.088  15.559   2.680 -0.0460 -0.3544  0.0573
18265W        W31679  16.246  11.689  16.236 -0.2138  0.0670 -0.1234
18266W        W31680  17.787  17.096  16.309 -0.0606 -0.0573  0.0085
18267W        W31681  13.696   2.922  16.429  0.2103 -0.1036 -0.0257
18268W        W31682   6.187   6.956   1.521  0.0041  0.3779  0.1770
18269W        W31683   3.530   6.992  10.428  0.0535  0.2051  0.2164
18270W        W31684  11.535  11.935  15.326  0.1524  0.1725 -0.0356
18271W        W31685  11.989   3.418   4.059  0.0250  0.4424  0.0020
18272W        W31686  17.206   8.636   3.429  0.2743 -0.0268  0.1852
18273W        W31687  17.306   6.918   3.779 -0.1272 -0.2373  0.1661
18274W        W31688   3.770   1.930   3.167 -0.2727  0.1752 -0.2103
18275W        W31689  10.547  10.380  13.280 -0.4473 -0.1445 -0.0844
18276W        W31690   8.339   4.069   1.562  0.0040  0.1490  0.1949
18277W        W31691   5.033   7.815   2.656  0.3217 -0.0474  0.1003
18278W        W31692  16.753  16.479   0.839 -0.1515 -0.1187 -0.2390
18279W        W31693   6.350   4.793   1.537  0.0004 -0.0736 -0.0474
18280W        W31694  11.928   4.611   2.686 -0.1730 -0.3086 -0.1062
18281W        W31695  12.032   4.028   0.329  0.0170 -0.2179 -0.3084
18282W        W31696   3.115   1.893   1.982 -0.0795 -0.2101  0.1816
18283W        W31697  15.860  17.509   3.997  0.0389  0.0495  0.2676
18284W        W31698   1.404   8.344  14.991  0.0341  0.1407 -0.0620
18285W        W31699   6.874   6.402   5.282 -0.0761  0.3395 -0.2788
18286W        W31700   5.345   0.705  16.473  0.2412 -0.0401 -0.0072
18287W        W31701   4.701  12.702  15.445 -0.0907 -0.2795  0.0782
18288W        W31702   3.316  12.916  13.792 -0.0500 -0.0955 -0.1874
18289W        W31703   0.540  16.207   5.989 -0.3318  0.2409  0.0975
18290W        W31704  11.334  11.069   2.016 -0.0208 -0.0729 -0.0222
18291W        W31705   5.420  17.259   1.096 -0.0461  0.2754  0.2459
18292W        W31706  14.637  11.939  13.525 -0.6076  0.3445  0.3820
18293W        W31707  13.389  16.120   0.308 -0.0070  0.3264 -0.0880
18294W        W31708   3.211  15.891  13.778  0.0518 -0.1127  0.1223
18295W        W31709  10.661  17.707   4.395 -0.0796 -0.3672 -0.0255
18296W        W31710  12.232  11.487   5.651  0.1022  0.0465 -0.1984
18297W        W31711   5.447  18.149  13.527 -0.0346  0.3493  0.2077
18298W        W31712   5.582  13.931  16.462  0.1948 -0.0173 -0.2139
18299W        W31713  15.597  16.824  16.035 -0.2081 -0.0136  0.0665
18300W        W31714  17.099  14.763   3.430  0.0870  0.3429  0.1915
18301W        W31715  14.912  14.963   5.665  0.0287  0.2447 -0.0063
18302W        W31716  12.798  17.912  12.863 -0.1043 -0.0976  0.2312
18303W        W31717   0.636  13.610   4.424  0.0695  0.1947 -0.0830
18304W        W31718   8.165   8.382  12.567 -0.3274  0.1029  0.3590
18305W        W31719  16.640  12.891  16.152 -0.0174 -0.0464  0.2463
18306W        W31720  14.254  16.167   5.437  0.3148 -0.0352 -0.2247
18307W        W31721   9.110   8.677  15.037 -0.2419 -0.2169 -0.1814
18308W        W31722  12.333   9.022  13.010  0.0104  0.0730 -0.1078
18309W        W31723   9.489  16.930  16.174  0.0715 -0.0626 -0.0693
18310W        W31724   8.061   6.883   1.444 -0.1134  0.0154 -0.3535
18311W        W31725   9.296  10.597   6.006 -0.1935 -0.0093  0.1536
18312W        W31726   5.985   6.638   4.900 -0.0790  0.0513  0.0282
18313W        W31727  13.228  15.424  11.729 -0.1418 -0.4509 -0.0495
18314W        W31728  16.168   5.738   0.091 -0.1873 -0.0477  0.1518
18315W        W31729   3.000  10.058   2.836 -0.0992 -0.1436  0.1523
18316W        W31730   1.592   7.576   5.259 -0.0245 -0.1743  0.0113
18317W        W31731   5.723   8.525   3.664  0.0196  0.1314 -0.0976
18318W        W31732  17.813  12.716   1.664 -0.0043 -0.2176  0.1298
18319W        W31733   0.062  11.725   4.984 -0.0567 -0.1526 -0.0332
18320W        W31734  10.745  13.775   3.414  0.0378 -0.0526 -0.0600
18321W        W31735   3.441   8.948  16.260 -0.0656 -0.2775 -0.2268
18322W        W31736  18.025   9.268  11.930  0.1819  0.0127  0.2405
18323W        W31737   3.616   1.020  15.757  0.0053  0.1140 -0.2879
18324W        W31738  11.512   6.033   5.696 -0.1150 -0.2621  0.1821
18325W        W31739   3.197   8.769   3.165 -0.1198  0.2106  0.1237
18326W        W31740   4.945   1.982  14.865 -0.2053  0.0286  0.0056
18327W        W31741   2.626   7.695  15.134 -0.1378  0.1950  0.0828
18328W        W31742  11.766  12.343   0.317  0.0663 -0.3199 -0.4213
18329W        W31743   7.373   4.138  11.907 -0.1052  0.1854  0.1151
18330W        W31744  11.500   1.122   4.966  0.0100  0.0261  0.1098
18331W        W31745   1.214  10.001   1.435 -0.1070 -0.0078 -0.1064
18332W        W31746  14.934   5.609  16.256 -0.0435 -0.1075 -0.0811
18333W        W31747  18.087   6.918   4.258 -0.2267  0.0683 -0.1803
18334W        W31748   8.619   4.217   5.976 -0.2900 -0.1141 -0.0209
18335W        W31749   8.629  14.907   1.306  0.1591  0.1539  0.2719
18336W        W31750   2.208  18.213  12.830  0.0513 -0.0428 -0.4795
18337W        W31751   9.975   8.493   2.603 -0.0117  0.0291 -0.0376
18338W        W31752   2.074  13.631  13.246 -0.1396  0.4329  0.0837
18339W        W31753  15.268  16.371   0.864 -0.0309 -0.1500  0.3010
18340W        W31754  14.789   8.449  11.547  0.1967  0.2186 -0.1181
18341W        W31755   7.926   9.856   0.475 -0.0265  0.1196  0.3885
18342W        W31756  13.779   5.863  15.922  0.2592  0.0870  0.1037
18343W        W31757  17.860   2.558  15.970  0.2504  0.0798 -0.0380
18344W        W31758  13.012   0.972  11.599  0.2285  0.0435 -0.0629
18345W        W31759   8.404   2.626  10.799 -0.1944  0.2184  0.0202
18346W        W31760   9.953  17.753   1.180  0.0158  0.0503 -0.2820
18347W        W31761   6.168   1.001  16.062 -0.2413 -0.2630  0.0256
18348W        W31762  11.683  11.150   5.662 -0.1633  0.0620  0.1339
18349W        W31763   9.803  16.801  12.590 -0.1715 -0.0728  0.1153
18350W        W31764   4.912  16.847   3.773 -0.0569 -0.2065  0.0399
18351W        W31765  15.910   6.058   2.747 -0.3758  0.0029  0.0115
18352W        W31766  10.331   6.782   2.597 -0.0910  0.2707  0.1445
18353W        W31767   1.632   8.028  15.912 -0.1670 -0.0368 -0.1114
18354W        W31768   1.457  17.173  16.167  0.2984 -0.0329  0.0024
18355W        W31769   2.989   7.055  15.270 -0.0231  0.1443 -0.1137
18356W        W31770   5.265  11.685  10.745 -0.1548  0.0910 -0.3111
18357W        W31771   3.933  17.630   4.504  0.1991  0.0712  0.1483
18358W        W31772   6.671  16.841   4.822 -0.0720  0.1140 -0.1021
18359W        W31773  16.771   4.547  12.342 -0.0197 -0.1348 -0.0592
18360W        W31774   1.152   0.478   4.504  0.0373  0.0392  0.0764
18361W        W31775   3.702   8.632  14.220 -0.1749 -0.0810  0.0190
18362W        W31776   6.003   9.130  12.311 -0.1300 -0.0384 -0.3779
18363W        W31777   8.343   7.684   5.728 -0.2062  0.1775 -0.1418
18364W        W31778   2.171   3.916   0.278 -0.3371  0.0683 -0.0700
18365W        W31779   1.147  14.988   2.288 -0.0570  0.3500 -0.1210
18366W        W31780   7.471  16.012  15.271  0.1184 -0.0988 -0.0255
18367W        W31781  12.788   3.110   0.196  0.0487  0.3357  0.0463
18368W        W31782   7.932  11.984   0.445 -0.1680 -0.2409 -0.1825
18369W        W31783   5.193  12.190   4.477 -0.0181  0.1060  0.3557
18370W        W31784   2.823  13.569   6.808  0.0678  0.4439  0.0244
18371W        W31785  10.812  10.063   0.725 -0.3895 -0.2959  0.2522
18372W        W31786  11.498   9.685  14.351  0.0213  0.0102  0.0024
18373W        W31787   2.286   4.635  14.764 -0.2197 -0.1032 -0.1596
18374W        W31788  15.145  17.682  13.314 -0.0408  0.0332 -0.0254
18375W        W31789  18.200   2.841   0.787  0.1708 -0.0517  0.0694
18376W        W31790   7.972  11.138   3.641  0.1523  0.0221  0.0381
18377W        W31791   8.176   4.605   3.400  0.0001  0.0612  0.1124
18378W        W31792  13.307   0.911  12.705  0.1980 -0.0515 -0.3226
18379W        W31793   7.240  15.016   5.222 -0.0034  0.0808  0.1401
18380W        W31794  18.142   8.218  12.737 -0.0957  0.1458 -0.2434
18381W        W31795  14.744  14.533   0.727  0.1374  0.2413 -0.1357
18382W        W31796   1.981  14.386   2.670 -0.1571  0.1510 -0.0641
18383W        W31797  16.989   2.751   9.901 -0.2200  0.0776 -0.5025
18384W        W31798  17.309   3.847   2.856  0.1400  0.0435 -0.0296
18385W        W31799   5.923   5.526  15.575 -0.0737  0.1065 -0.0974
18386W        W31800   3.346  10.002  15.138 -0.2338 -0.0861 -0.1107
18387W        W31801   0.203   4.554   2.006  0.1094 -0.1425 -0.1926
18388W        W31802  11.511  17.719  14.170  0.1836 -0.0848 -0.0776
18389W        W31803   0.755  17.206  16.203 -0.1488 -0.1763 -0.0435
18390W        W31804   1.222  15.987  12.370  0.0233 -0.0522 -0.1513
18391W        W31805   6.236   1.986   3.050 -0.2650  0.0174 -0.1179
18392W        W31806   4.305  10.074  11.772 -0.1677  0.2633  0.0226
18393W        W31807   2.960   8.373  13.256  0.2193  0.1235 -0.0949
18394W        W31808   9.877   2.252  16.031 -0.1844  0.0550  0.0229
18395W        W31809   7.390   5.945   3.503 -0.0856  0.1280  0.0175
18396W        W31810   3.361  16.759   4.522  0.3565 -0.2427 -0.4471
18397W        W31811   0.065   2.636  10.644  0.0938  0.0277 -0.0227
18398W        W31812   0.544   0.230   3.889  0.0254  0.3030 -0.1433
18399W        W31813   1.640   6.540  10.608 -0.3278 -0.2338 -0.1279
18400W        W31814   3.964  15.076  16.229  0.0720  0.1153 -0.0766
18401W        W31815   8.790  15.707  13.551  0.1091  0.0973 -0.0595
18402W        W31816  15.223   1.956  10.692 -0.0469  0.2238 -0.0355
18403W        W31817  16.738   2.866  15.147  0.3174 -0.2681 -0.3077
18404W        W31818   1.608  10.254   3.507 -0.1430 -0.2103  0.1061
18405W        W31819   1.611   5.476  14.437  0.2627  0.1368  0.4119
18406W        W31820  12.665  12.462  11.913  0.0453 -0.0316  0.3182
18407W        W31821  10.397  15.475  14.608 -0.0441 -0.3420  0.0300
18408W        W31822   6.581  13.233   3.539 -0.1412  0.0416 -0.1108
18409W        W31823  13.203   9.479   5.295  0.1685  0.1842  0.1964
18410W        W31824   3.652   2.567   6.048  0.0221 -0.0286  0.1956
18411W        W31825   9.319   9.532   4.262  0.2549  0.1349 -0.1228
18412W        W31826  11.010   8.979   1.056 -0.2795 -0.3652  0.1291
18413W        W31827   4.620   2.553  10.568  0.1660  0.0284 -0.4062
18414W        W31828  14.014   0.599  12.680 -0.2918 -0.1092  0.1360
18415W        W31829   8.340   9.820  11.575  0.0191 -0.0847  0.2673
18416W        W31830   3.723   3.126  15.734  0.0864  0.1233  0.1721
18417W        W31831   9.946  15.629   1.944  0.1339 -0.2202 -0.0134
18418W        W31832   1.129   8.069  11.021 -0.2627 -0.0291  0.3238
18419W        W31833   8.730  16.542   2.836  0.1385  0.2762 -0.0897
18420W        W31834   1.536  15.438  14.907 -0.1040 -0.1521  0.2507
18421W        W31835   7.083   8.060  13.852 -0.1590  0.0422 -0.1800
18422W        W31836  13.822   5.116  15.611 -0.0184  0.0269 -0.1510
18423W        W31837   8.640   8.991   9.834  0.2367 -0.0177 -0.0744
18424W        W31838   5.976   4.793   2.846 -0.1362 -0.0416  0.2192
18425W        W31839   4.219  18.001   2.537 -0.2256 -0.3223  0.0998
18426W        W31840  14.168   5.045  10.976 -0.0925  0.2710  0.0166
18427W        W31841  13.543  13.646   1.441  0.3352  0.0563  0.0598
18428W        W31842  14.117  13.906   1.097  0.0529  0.2004  0.2037
18429W        W31843   0.465   7.478  12.228  0.1352  0.1481 -0.3504
18430W        W31844  13.067  17.976  14.135 -0.3313  0.0211 -0.3297
18431W        W31845  14.537   8.849   0.103  0.0372  0.0353  0.0667
18432W        W31846   3.316  10.038   2.331  0.0176 -0.2510 -0.3244
18433W        W31847  17.855  11.514  15.329 -0.1219 -0.0551 -0.1866
18434W        W31848  15.357   7.881   1.783  0.1052 -0.0737  0.0900
18435W        W31849  13.166  13.265   4.862  0.1315  0.0291 -0.2759
18436W        W31850   9.687  13.926   1.073 -0.1673 -0.1079 -0.2186
18437W        W31851   7.389  11.973  16.059  0.1319 -0.1335  0.0745
18438W        W31852   2.489   4.523   3.542  0.1630 -0.1010 -0.2012
18439W        W31853  18.099  15.616  14.582 -0.0103  0.0819 -0.0224
18440W        W31854   6.709   6.482   3.097  0.0556  0.1743 -0.2190
18441W        W31855   7.944  11.049   6.003 -0.2937 -0.1374  0.0391
18442W        W31856  14.271   6.068   4.361 -0.0633  0.0933  0.1674
18443W        W31857   9.814  15.612   0.329 -0.1921  0.0567 -0.0401
18444W        W31858  12.957  14.972  12.962 -0.0199  0.1708 -0.0556
18445W        W31859   1.093  11.468  14.690  0.0803  0.2281  0.0400
18446W        W31860   3.901  11.200   0.029  0.0188  0.2062 -0.0147
18447W        W31861  18.131   4.850   4.365  0.1699 -0.0729 -0.1705
18448W        W31862  16.466   1.884   5.617 -0.1229  0.3663 -0.1091
18449W        W31863  11.300   2.186   6.393 -0.2219 -0.2313  0.2278
18450W        W31864  14.511  17.997   2.580  0.3406  0.2206  0.0370
18451W        W31865   8.645   5.169  15.682 -0.0477 -0.1959  0.0722
18452W        W31866   4.239   5.393   2.723  0.3530  0.0754 -0.0018
18453W        W31867   2.161   6.633  13.188  0.0341  0.2173  0.1867
18454W        W31868  10.047  16.301   3.628 -0.0754  0.0088  0.0639
18455W        W31869   9.038  18.247   7.027 -0.1386  0.1301  0.2623
18456W        W31870   7.974  12.795   3.738 -0.1752  0.0777 -0.1175
18457W        W31871   5.064  13.933  16.150 -0.1529 -0.0169 -0.0239
18458W        W31872  12.837   4.599  14.705 -0.0055  0.2539  0.0215
18459W        W31873  10.153  10.185   2.548 -0.0930 -0.1409  0.0276
18460W        W31874  12.586  10.722   4.471 -0.1455  0.3093 -0.3473
18461W        W31875   6.617   3.742   5.921  0.1566 -0.1336  0.0255
18462W        W31876   3.197   7.212   0.754  0.0684  0.2109 -0.2389
18463W        W31877  16.373   8.544  12.148 -0.1764 -0.2209  0.0484
18464W        W31878  15.362  11.832  16.275 -0.0191  0.1233 -0.0312
18465W        W31879   7.912  14.949  14.254  0.0763 -0.0757  0.3589
18466W        W31880   8.433   6.154  11.816  0.0899 -0.1023  0.0299
18467W        W31881   6.451  11.264  13.249 -0.0834 -0.1565  0.0478
18468W        W31882  16.773   4.646  11.351  0.0072 -0.0547 -0.1874
18469W        W31883   2.543   6.561   4.867  0.0663 -0.0636 -0.2024
18470W        W31884   9.912  13.910   2.684 -0.1081  0.0328 -0.1895
18471W        W31885   8.959  10.501   5.160  0.1588  0.2715 -0.0825
18472W        W31886  11.141   3.741   4.919 -0.1433  0.0184 -0.0296
18473W        W31887  16.668  11.144   1.312 -0.1284 -0.2057  0.2629
18474W        W31888  11.828   9.796   3.030 -0.0956  0.0524  0.1368
18475W        W31889  15.125  10.456   1.986 -0.2257  0.2233 -0.0674
18476W        W31890  13.275  17.062  11.625 -0.0098  0.0045  0.0792
18477W        W31891   3.149  16.583  16.525  0.3421 -0.1877 -0.1948
18478W        W31892  16.141   4.977   5.495 -0.3315 -0.2310  0.5211
18479W        W31893  16.716  14.312  12.688 -0.0931 -0.0435 -0.0995
18480W        W31894   4.000   2.436   6.364  0.1473 -0.0389  0.0046
18481W        W31895  15.603   2.944   5.007 -0.0371 -0.3456 -0.0729
18482W        W31896  12.243  15.872  14.465  0.0530  0.3183  0.0901
18483W        W31897  14.946   9.487  12.710 -0.0610  0.4817  0.1459
18484W        W31898   4.574  16.249  14.113  0.3899  0.4651 -0.2574
18485W        W31899   1.385   2.280  14.319 -0.0658  0.0282  0.0233
18486W        W31900   7.004   9.679   4.015  0.1324  0.2211  0.0967
18487W        W31901   5.517   9.246   3.808 -0.2640  0.2965 -0.1590
18488W        W31902  17.607   5.881   2.974 -0.0715 -0.1331  0.2413
18489W        W31903   3.086   2.043  11.885  0.2190  0.0939  0.1769
18490W        W31904  16.182  11.666  14.610  0.3124 -0.2304  0.2223
18491W        W31905  12.061  15.467  12.987 -0.0012 -0.0294 -0.0108
18492W        W31906  18.061  12.336   5.235 -0.3523 -0.1557  0.2257
18493W        W31907  10.930  14.724  16.353 -0.1009 -0.0052 -0.3305
18494W        W31908   3.565   6.727   4.758  0.1718  0.0493  0.0511
18495W        W31909  13.238   2.784   2.325 -0.3506 -0.1482  0.0913
18496W        W31910   6.025   6.860  14.898 -0.0776 -0.3061 -0.0871
18497W        W31911   1.773  16.587   6.423 -0.3458  0.0123  0.0020
18498W        W31912   6.654  15.931  11.599  0.0717 -0.0807  0.0247
18499W        W31913   2.224   0.985  11.638  0.1849  0.1124  0.3517
18500W        W31914   9.554   1.840   6.006 -0.1343  0.1397 -0.1480
18501W        W31915   3.223  17.305   0.390 -0.2363  0.1182  0.1982
18502W        W31916   2.814   0.918  15.734 -0.0219  0.1189  0.0997
18503W        W31917  10.384  12.077  15.037  0.2820  0.3113  0.0891
18504W        W31918   2.553  12.590  14.313  0.0462  0.2279 -0.1805
18505W        W31919  13.787  13.768   4.330 -0.1216  0.0938 -0.0644
18506W        W31920   1.001  14.800   6.487  0.0135  0.1920 -0.0532
18507W        W31921  13.583  17.912   3.758  0.1378 -0.1179  0.4238
18508W        W31922  15.505   3.059   2.734  0.1357 -0.1082 -0.3474
18509W        W31923  11.216  14.309  15.877 -0.2286  0.0698  0.0828
18510W        W31924   4.826   4.098   5.228  0.0203  0.0284 -0.0069
18511W        W31925  14.420   3.944  12.567  0.1371 -0.0537  0.1632
18512W        W31926   4.406  16.787  14.802 -0.1913  0.1216 -0.1351
18513W        W31927   7.107   9.671  16.553 -0.0415 -0.1456  0.2791
18514W        W31928   3.039  16.297   3.780  0.1782  0.0856 -0.0779
18515W        W31929   8.014  10.257  11.502 -0.0390  0.0678  0.2407
18516W        W31930  17.963   3.087   5.281  0.1620 -0.2905  0.1155
18517W        W31931  12.413   7.209   5.415 -0.3201 -0.1438  0.0562
18518W        W31932  13.435  14.495   1.996  0.0010 -0.1904  0.0295
18519W        W31933  14.603  10.258  14.948  0.1931 -0.0267  0.1102
18520W        W31934   6.519   5.727   3.374 -0.1353 -0.0021 -0.0647
18521W        W31935   0.567   9.602  12.310  0.0839  0.0296 -0.0670
18522W        W31936   0.216   3.067   4.805 -0.1516  0.1508  0.1614
18523W        W31937  12.712   3.866   5.107  0.1708  0.0828  0.0001
18524W        W31938   9.191   1.470   2.262  0.1718 -0.3858 -0.0275
18525W        W31939  11.247   0.786   1.616  0.0541  0.5163 -0.4140
18526W        W31940   3.828  13.853   5.257  0.1516  0.1455 -0.1740
18527W        W31941   2.591   3.190   4.803  0.0660 -0.0791  0.0625
18528W        W31942  15.315   4.520  10.301  0.0839 -0.2951  0.0729
18529W        W31943  15.203  15.631  11.746  0.1662  0.0435 -0.2707
18530W        W31944   0.295   8.791  15.690  0.1963  0.1106 -0.0055
18531W        W31945   0.425   8.696   2.394  0.3754  0.1410 -0.2471
18532W        W31946   5.374   2.734  15.233 -0.0509  0.0235  0.0092
18533W        W31947   9.423  13.386  16.376  0.0431  0.4390 -0.0564
18534W        W31948   4.033  16.251  13.351 -0.1486  0.1640 -0.0007
18535W        W31949  16.977   5.022   0.379 -0.3222 -0.0524  0.0242
18536W        W31950   8.813  13.114   0.776  0.2462  0.0124  0.1603
18537W        W31951   0.252  12.447   5.862  0.2962  0.1044 -0.2081
18538W        W31952  13.565  18.255  14.797 -0.3762  0.1785 -0.2381
18539W        W31953  12.012   2.700   5.728  0.1514  0.2549  0.0709
18540W        W31954  14.143  12.161   1.899 -0.2017 -0.1274  0.1835
18541W        W31955   6.337  13.439   1.761  0.1533 -0.2758 -0.1876
18542W        W31956   6.933  11.591   5.732 -0.3284 -0.0231  0.1655
18543W        W31957  17.397   2.087  11.405  0.5396  0.0536  0.0909
18544W        W31958   7.733   4.421   3.205 -0.0294  0.0117  0.1377
18545W        W31959   1.297   4.371  11.213 -0.1430 -0.0786  0.1885
18546W        W31960  16.265   0.460  10.880  0.0194  0.0701 -0.1961
18547W        W31961  15.321   5.681   4.594 -0.1758  0.3565 -0.1910
18548W        W31962   0.381   2.034  12.446  0.0007  0.0046  0.4766
18549W        W31963  11.686  12.504   2.382  0.0162  0.3261  0.3356
18550W        W31964  12.744  12.675   6.223 -0.3066  0.1755  0.1954
18551W        W31965   7.259   4.802   0.762 -0.0439 -0.1391  0.3629
18552W        W31966  15.557   8.304   1.924 -0.0397  0.1680  0.3316
18553W        W31967   4.126  13.855  15.127  0.2822  0.2168 -0.0377
18554W        W31968   7.740  16.159  12.755 -0.0246  0.0051  0.0070
18555W        W31969  17.893  10.259   5.414  0.1036 -0.0792 -0.1292
18556W        W31970   7.755   9.212  10.841  0.2280 -0.0759  0.2451
18557W        W31971  16.565   9.011   4.980 -0.3187  0.0650  0.0407
18558W        W31972   0.689  15.649   1.840  0.0820  0.0830  0.1917
18559W        W31973   9.063  10.096  12.320 -0.1713  0.3762 -0.0715
18560W        W31974  10.279   9.874  14.208 -0.1875 -0.0570  0.1946
18561W        W31975  17.584   3.984   1.051  0.2353 -0.1306 -0.0405
18562W        W31976  17.766  17.124  11.225  0.2580  0.1390 -0.2079
18563W        W31977   5.495   8.435  12.999 -0.0298  0.3813  0.1418
18564W        W31978  15.643   1.786   1.379  0.1230 -0.0583 -0.0281
18565W        W31979  10.940  11.711   5.281 -0.1077  0.0424 -0.1211
18566W        W31980   8.931  17.293   6.774 -0.1600  0.1332  0.0990
18567W        W31981  16.020   7.241  14.188  0.1263 -0.0701 -0.0241
18568W        W31982   3.972   2.001  14.387 -0.0566 -0.2491 -0.4316
18569W        W31983   0.141   8.656   1.885 -0.1589  0.1267 -0.1943
18570W        W31984  17.111   5.038  10.051 -0.1469 -0.2416 -0.2287
18571W        W31985  17.036   0.262  11.510  0.0770 -0.3352  0.0610
18572W        W31986   0.685   1.010   0.798  0.4718 -0.1201  0.2019
18573W        W31987   5.402  16.392   5.043 -0.2673 -0.0177  0.1015
18574W        W31988  11.005   3.543   2.587  0.0044 -0.2520  0.0038
18575W        W31989  13.778   3.226  14.179 -0.2028 -0.2929  0.1698
18576W        W31990  13.540   3.668   1.336  0.0323  0.0138  0.0945
18577W        W31991  18.188   3.999  15.001 -0.1108  0.0125 -0.1405
18578W        W31992  17.930   3.924   5.063  0.0288  0.0517 -0.0052
18579W        W31993  11.291   6.245  11.569 -0.1622 -0.2558  0.0582
18580W        W31994  16.607  14.484  16.223 -0.2359  0.1631 -0.0415
18581W        W31995  15.448  16.485  16.404 -0.1190  0.3592 -0.0862
18582W        W31996   3.903   2.756   3.818  0.0114  0.2286  0.0962
18583W        W31997  10.668   4.716   0.063 -0.1227  0.2693 -0.0707
18584W        W31998  15.975  13.381  15.539  0.1567  0.2228 -0.0709
18585W        W31999   0.120  14.360  16.376 -0.1077 -0.1442  0.3367
18586W        W32000   7.075  17.924  11.656  0.1896  0.1537  0.0929
18587W        W32001   1.199   0.633   5.409  0.2151 -0.1296 -0.2822
18588W        W32002  14.673  15.251  13.895 -0.0778 -0.1575 -0.0169
18589W        W32003   0.170   5.094   5.642 -0.4483 -0.1665  0.0797
18590W        W32004  17.549   1.959   9.808  0.4479  0.1371  0.3694
18591W        W32005   1.746  11.572   2.047  0.3077 -0.3241 -0.1575
18592W        W32006  17.882  17.810   4.213  0.0362  0.1840 -0.0602
18593W        W32007  13.997   8.561  11.990  0.1777 -0.3238 -0.2721
18594W        W32008   3.019  12.590  12.256  0.0926  0.0316  0.0363
18595W        W32009  17.176   3.777  15.648 -0.3339  0.0339 -0.0852
18596W        W32010   7.143  10.495   0.323  0.4045 -0.0800 -0.1852
18597W        W32011  14.593   6.061  11.594 -0.0052 -0.2088 -0.0694
18598W        W32012  11.611  16.887  11.579  0.1117  0.1149 -0.1230
18599W        W32013  14.816   0.087  11.068  0.6347  0.0429  0.0520
18600W        W32014   3.516   7.365   5.993 -0.2069 -0.3087  0.2977
18601W        W32015   8.187   0.584   0.806  0.1064 -0.2325 -0.0580
18602W        W32016   2.803   0.786   0.298  0.3118 -0.0527 -0.0013
18603W        W32017   3.393   5.408  15.533  0.2906 -0.1024  0.1693
18604W        W32018   7.058   2.098   0.357 -0.0114  0.0015  0.2005
18605W        W32019   2.439   4.658   0.716 -0.3617  0.0483 -0.2437
18606W        W32020  13.551   9.154  14.229 -0.0492  0.1044 -0.3175
18607W        W32021  11.062   6.028   4.114  0.1048  0.0907 -0.0174
18608W        W32022   6.780   4.829   3.847  0.1345 -0.0562 -0.0272
18609W        W32023  12.804   9.139   2.181  0.0001 -0.1441  0.0778
18610W        W32024   0.856  12.921   0.538 -0.1775 -0.2055  0.1876
18611W        W32025   8.089   3.638   2.454 -0.0652  0.0468  0.2361
18612W        W32026   0.147  10.066   1.354 -0.0088  0.1190  0.0741
18613W        W32027   0.455   9.478  11.354 -0.1167  0.1397  0.1446
18614W        W32028   2.925  16.298  11.750 -0.2440  0.1549 -0.3216
18615W        W32029   2.942  16.283   4.446  0.4013 -0.2062 -0.0216
18616W        W32030   0.998   9.300  15.660 -0.1397  0.1261  0.2290
18617W        W32031   7.722  10.103  11.870 -0.0180 -0.0068  0.2423
18618W        W32032   6.024  16.416   3.169 -0.0316  0.1401 -0.1294
18619W        W32033   3.764  12.048   5.924  0.0693  0.1014  0.0128
18620W        W32034   3.455  14.921   0.383  0.0036 -0.1386 -0.5404
18621W        W32035   4.313   3.377   4.816  0.1078  0.0424 -0.1719
18622W        W32036   6.721   4.978   4.713 -0.2136  0.1547 -0.0509
18623W        W32037  11.400  12.270  11.570 -0.1149 -0.1337  0.1935
18624W        W32038   3.272   5.183  13.190  0.1319  0.1227 -0.0893
18625W        W32039   6.571   5.331   6.127  0.0193 -0.0698 -0.1511
18626W        W32040   4.779  17.510   2.335 -0.1715  0.3070 -0.1276
18627W        W32041   5.914  17.673   1.751  0.2190 -0.0018  0.0537
18628W        W32042  17.324  10.010   1.481  0.1028 -0.0678 -0.2172
18629W        W32043  10.251  14.821   3.892 -0.1239  0.0999 -0.2598
18630W        W32044   7.312  13.484   1.604 -0.0648  0.2673  0.0552
18631W        W32045  17.701   1.591   4.240  0.1148 -0.2107 -0.0052
18632W        W32046   8.872   4.105   0.368 -0.1857  0.2263 -0.0761
18633W        W32047   5.907   5.805  10.670  0.0610  0.2495 -0.1569
18634W        W32048  16.382   3.841   9.846  0.2332 -0.0012 -0.3677
18635W        W32049   9.698   1.534   5.618 -0.0260 -0.1686  0.0165
18636W        W32050   5.722   7.280   3.235 -0.0057  0.0979  0.1937
18637W        W32051  11.999  14.579   0.010  0.1036  0.3476  0.0209
18638W        W32052   7.452   0.579  16.548 -0.1976 -0.1500 -0.1183
18639W        W32053  11.582  11.059   2.854 -0.1465  0.0620 -0.0427
18640W        W32054  10.158  15.559   5.827 -0.0481  0.1216 -0.1023
18641W        W32055   5.023   8.320   5.428 -0.1686 -0.0259  0.2056
18642W        W32056  17.723   6.300  10.824  0.0106  0.2481 -0.0755
18643W        W32057  12.078  16.956  14.824 -0.0840  0.1644  0.2231
18644W        W32058  13.294   9.100  13.501 -0.2377  0.2547 -0.1045
18645W        W32059  12.015   6.092  13.643  0.1909  0.3452 -0.1051
18646W        W32060  14.266   9.647  10.263 -0.0958  0.0978  0.0675
18647W        W32061   2.353  16.955  11.490  0.1114  0.0073  0.1231
18648W        W32062  16.673   3.018   0.967 -0.2078  0.0467  0.0542
18649W        W32063  14.263   0.186   0.429  0.1259  0.2289 -0.2440
18650W        W32064  10.146  13.762  11.777  0.2447  0.0313 -0.1749
18651W        W32065   4.006  15.202  10.677  0.1387  0.1013  0.2637
18652W        W32066   5.102   9.140  13.932 -0.2092  0.1244 -0.0427
18653W        W32067  12.322   2.295   0.059 -0.2548  0.3768 -0.1807
18654W        W32068   5.577  17.426   5.039  0.1514  0.0175  0.3340
18655W        W32069   1.506   0.124  14.230 -0.0511 -0.0258  0.0508
18656W        W32070  11.832   6.824   3.269  0.0714  0.1956 -0.0214
18657W        W32071  11.858   2.524  15.203 -0.0611 -0.0942  0.1376
18658W        W32072  13.361   7.470   0.609 -0.1124 -0.1609 -0.1629
18659W        W32073  11.468  13.045  13.353 -0.0101  0.0939 -0.1314
18660W        W32074  16.164  15.215   4.831  0.2744  0.0858 -0.0745
18661W        W32075   2.435   7.941   2.329  0.0328 -0.0101 -0.0130
18662W        W32076   4.044   7.631  14.077 -0.4284 -0.0404 -0.2687
18663W        W32077  12.570   9.025  15.252 -0.0414 -0.0881  0.0387
18664W        W32078   8.757  16.226  13.671  0.0171  0.1961  0.0499
18665W        W32079  11.213   1.148  12.735  0.2494  0.1221 -0.1868
18666W        W32080  10.837  17.144   5.181  0.2339 -0.1995  0.0282
18667W        W32081   9.000  12.706  14.761  0.1455 -0.0156  0.1649
18668W        W32082  15.668  12.719  13.323  0.0421 -0.1289  0.2477
18669W        W32083   3.782   5.113  15.048  0.2014 -0.1648  0.1494
18670W        W32084   6.672  16.588   0.255 -0.0467 -0.3490 -0.3481
18671W        W32085  15.212   7.088  11.171  0.1114 -0.3854 -0.5256
18672W        W32086  14.986  12.304   4.070 -0.1488 -0.1238  0.1238
18673W        W32087  11.064   3.905   0.576 -0.1437 -0.0962  0.1263
18674W        W32088  15.843   6.594   2.929  0.2758  0.0528 -0.3059
18675W        W32089  18.076   8.705  15.685  0.5012  0.0579  0.0304
18676W        W32090   5.853  11.872  16.022 -0.2214  0.1918 -0.2390
18677W        W32091   6.105   1.465  15.915 -0.2146  0.1164  0.0019
18678W        W32092  14.528  12.602  13.084 -0.2261  0.2151 -0.1023
18679W        W32093   6.050  13.785  13.307 -0.0151  0.2221  0.2131
18680W        W32094   0.807   6.781   4.154 -0.1373  0.0648 -0.1563
18681W        W32095  10.515  17.919   2.530 -0.3359  0.0408 -0.1841
18682W        W32096   6.847  16.773   4.057  0.1225 -0.1714 -0.1023
18683W        W32097   8.148   4.207  10.647  0.2285  0.1724 -0.0995
18684W        W32098   9.956   9.653  11.832  0.0107 -0.1940 -0.1144
18685W        W32099   6.693   0.813   1.748  0.0963 -0.0860 -0.0654
18686W        W32100   9.538   1.177  15.015  0.0466  0.4412  0.2652
18687W        W32101   5.757  17.523  16.469 -0.2600  0.0915 -0.1375
18688W        W32102  15.923  11.985  15.408  0.3320 -0.3313 -0.1045
18689W        W32103  15.564  10.402  14.863 -0.1981 -0.2763  0.1291
18690W        W32104  11.327   3.245  13.234  0.1716  0.1799  0.2026
18691W        W32105  10.331  10.671  16.062  0.2871  0.1557  0.1121
18692W        W32106   3.013   5.645   0.498  0.0765  0.1704 -0.1533
18693W        W32107   9.696   5.453  15.651 -0.1204  0.1064  0.0387
18694W        W32108   6.136  13.706  12.466  0.0903  0.0788  0.0002
18695W        W32109   9.415  16.111  13.012 -0.1928  0.1382  0.0710
18696W        W32110   7.800   8.925   3.947  0.2593 -0.2558  0.1203
18697W        W32111   7.311   2.263  11.790  0.0354 -0.5195 -0.2694
18698W        W32112  12.804  10.287   2.076  0.0422  0.0858  0.1767
18699W        W32113  17.455   1.859  15.365  0.3308  0.2029  0.0338
18700W        W32114   0.624   2.804  15.628  0.1276 -0.1528 -0.2865
18701W        W32115  17.327   4.280  10.860  0.4002 -0.1022  0.1362
18702W        W32116   2.859  10.659  11.034 -0.1348  0.0385  0.0439
18703W        W32117   6.199  11.423   0.157  0.1565 -0.1067 -0.0380
18704W        W32118   5.925   5.211   5.140  0.1811 -0.0243 -0.0493
18705W        W32119   9.444   5.140  10.881  0.0937  0.1287  0.1148
18706W        W32120  17.947   6.815  11.480 -0.0009  0.0954 -0.2753
18707W        W32121   3.929  16.253   4.177  0.0484  0.0977 -0.2627
18708W        W32122  10.625   9.911   5.977 -0.0824  0.0570 -0.0343
18709W        W32123   5.061  17.351  14.637  0.1633 -0.1380 -0.0189
18710W        W32124  12.066   4.342   1.607  0.2188  0.1529 -0.0591
18711W        W32125   5.804  16.919  12.353  0.1449 -0.1207 -0.0488
18712W        W32126   5.344  14.801  11.803 -0.1946 -0.1338  0.0450
18713W        W32127   4.469  12.759   4.313  0.0117 -0.0345  0.0347
18714W        W32128  13.568   4.786   5.219 -0.1808  0.1354  0.0948
18715W        W32129   8.915   8.493   0.790 -0.0787 -0.2217 -0.1612
18716W        W32130   7.890   6.659   3.998  0.1023 -0.1549 -0.1464
18717W        W32131  14.578  17.081   0.696 -0.3100  0.2705 -0.0624
18718W        W32132   2.426  11.065  14.940 -0.0897  0.0879 -0.2421
18719W        W32133   9.901  11.183  10.807 -0.0711 -0.0684 -0.0724
18720W        W32134  12.456   2.492   2.128  0.1582 -0.0346 -0.5024
18721W        W32135  17.260  17.390  13.294 -0.1550  0.1492 -0.0532
18722W        W32136  15.467   4.433   3.639 -0.0211 -0.2263  0.1935
18723W        W32137   0.553   0.042   1.739  0.2094  0.1559 -0.0078
18724W        W32138  14.133  12.877   4.669  0.0336 -0.0739  0.1915
18725W        W32139   5.683   6.910  11.868  0.2564 -0.2084  0.1569
18726W        W32140   6.485  11.066  16.337  0.0204 -0.0230 -0.4126
18727W        W32141   8.468   1.349  15.603  0.1848  0.1813  0.1521
18728W        W32142  16.462   6.051  13.140 -0.1412  0.0248  0.1558
18729W        W32143  16.110  13.373   0.854 -0.0916  0.1884  0.2698
18730W        W32144   3.767   4.145   4.428  0.1791  0.0579  0.0663
18731W        W32145   1.658   8.679  13.258  0.0377 -0.1404  0.2832
18732W        W32146   2.533   9.163  12.833 -0.2548  0.1075 -0.2126
18733W        W32147   6.043   2.401  15.736 -0.0290  0.2482 -0.2176
18734W        W32148   3.875  14.682   0.098  0.2862 -0.0641 -0.1224
18735W        W32149  14.010   5.394  16.045 -0.0388  0.0965  0.1005
18736W        W32150   3.239  13.973   3.232 -0.0810 -0.1899  0.1725
18737W        W32151  14.766  17.063   4.641 -0.0481  0.0919 -0.1342
18738W        W32152   1.154  16.903  12.935 -0.1430 -0.1291 -0.2451
18739W        W32153  14.949   6.177  14.779  0.1404  0.0425  0.0387
18740W        W32154   6.782   1.219  12.066  0.0842 -0.0216 -0.1763
18741W        W32155  11.243   3.442  14.809 -0.1538 -0.2352  0.0671
18742W        W32156  11.770  17.821   1.309  0.0751 -0.1339 -0.2985
18743W        W32157  16.443   5.212  14.422 -0.2933 -0.0663  0.3568
18744W        W32158  15.928   4.473  16.131  0.0186  0.0816  0.0785
18745W        W32159   3.140  17.298   3.280 -0.2539  0.1351  0.1612
18746W        W32160  17.252   3.291   1.601 -0.0912  0.1347  0.0989
18747W        W32161   9.228   6.598   2.390  0.0320  0.1196 -0.0973
18748W        W32162   3.857   0.975   3.795  0.0574  0.0175 -0.0779
18749W        W32163   5.799   4.443   3.283 -0.2854  0.1001 -0.5181
18750W        W32164  15.075  15.564   0.200  0.0639 -0.1383  0.0343
18751W        W32165  10.249  10.998  11.335 -0.1802  0.0073 -0.1144
18752W        W32166   7.650  17.618  10.513  0.0074 -0.0146 -0.1694
18753W        W32167   5.896   3.244  15.284 -0.2049 -0.0470 -0.2868
18754W        W32168   0.334   5.050  11.021 -0.0683  0.1346  0.3448
18755W        W32169  18.112   1.975   2.927  0.0458 -0.0690 -0.1061
18756W        W32170   1.066  11.414  11.470 -0.0742 -0.0756 -0.0545
18757W        W32171   4.111  17.227   0.050  0.2748  0.1119 -0.0237
18758W        W32172   0.897  15.980  11.925  0.0820 -0.4175  0.2997
18759W        W32173  11.865   4.929  11.845  0.0961  0.1230  0.2745
18760W        W32174   7.315  16.903   0.720 -0.2324 -0.2932  0.1232
18761W        W32175  10.824  17.231   6.192  0.3195 -0.3146 -0.2057
18762W        W32176  17.688  14.827   4.934  0.0910 -0.0100  0.1730
18763W        W32177  17.695  13.456   3.611 -0.1550 -0.0444  0.0618
18764W        W32178   5.043   8.987   2.521 -0.2829 -0.1008 -0.3738
18765W        W32179  10.846   8.762  15.722  0.1946  0.2022 -0.1153
18766W        W32180  11.747  16.697   3.495  0.0875 -0.0164  0.0864
18767W        W32181  16.809   5.257  16.156  0.0489  0.3914  0.3478
18768W        W32182   8.283  11.667   4.232  0.4240 -0.0024  0.1493
18769W        W32183  16.559   2.392   5.067  0.1524  0.1968  0.2581
18770W        W32184   4.720  17.991   2.675  0.1510 -0.1171  0.2631
18771W        W32185  14.998   7.629  11.920 -0.1005  0.3040 -0.2042
18772W        W32186   2.346  15.928   3.321 -0.1288 -0.1777 -0.1970
18773W        W32187   3.934   4.685   3.923 -0.1485  0.1502  0.0404
18774W        W32188   7.832   2.098  11.661  0.1488  0.0818 -0.2846
18775W        W32189   1.461  16.712  12.016  0.2454 -0.1175  0.1887
18776W        W32190   5.172  11.101   1.164  0.0261 -0.2817 -0.0477
18777W        W32191  12.707   8.734   4.939 -0.1953  0.1463  0.3084
18778W        W32192   1.136  10.547  11.919 -0.2979 -0.0005 -0.2471
18779W        W32193   5.251   4.370   1.095 -0.1230  0.0928 -0.1332
18780W        W32194  13.194   6.694   4.918  0.1417  0.0495  0.2931
18781W        W32195   2.379   6.631   5.781  0.2175 -0.0101 -0.0439
18782W        W32196   7.333   0.316  11.100 -0.0140 -0.1041 -0.1762
18783W        W32197   3.249  16.041  15.578 -0.1720  0.1344 -0.2240
18784W        W32198   3.351  17.542  12.766 -0.0780  0.0908  0.3661
18785W        W32199  11.489  14.905  13.462 -0.0435 -0.1765  0.1669
18786W        W32200  12.427   5.232  16.271  0.2495 -0.3590 -0.0636
18787W        W32201   2.114   3.669  14.671  0.0950  0.0603 -0.1180
18788W        W32202   1.913  13.105  10.473  0.1715  0.1154  0.0142
18789W        W32203  15.421   9.838   4.970  0.1230  0.2909  0.0585
18790W        W32204  15.890   9.874  14.076 -0.2348  0.1530 -0.3012
18791W        W32205  10.031  13.474   4.884 -0.2465 -0.3809 -0.1641
18792W        W32206  10.027   7.247  10.830 -0.2900 -0.0121  0.1379
18793W        W32207  15.005  12.333   3.499  0.2085  0.0231  0.1266
18794W        W32208   0.735   8.083   1.203 -0.0764 -0.0618 -0.0292
18795W        W32209   6.525   4.266  13.551 -0.1825  0.1154  0.3423
18796W        W32210   6.931   0.146   5.299 -0.0274 -0.1315  0.0535
18797W        W32211  10.090  11.120   2.883  0.0092 -0.4327  0.1612
18798W        W32212  16.006  16.781   1.364 -0.1925 -0.1532 -0.0482
18799W        W32213  17.214   8.480  10.769 -0.2129 -0.1398  0.1792
18800W        W32214   3.654  13.601   1.870  0.0424 -0.1096 -0.0570
18801W        W32215   3.979   3.583   0.503  0.0997  0.1255  0.1943
18802W        W32216   3.996   7.373   6.210 -0.1529 -0.0366  0.2852
18803W        W32217   5.387  10.216   4.788 -0.1662 -0.0520 -0.4955
18804W        W32218   1.059   0.983  15.673  0.5838  0.0185  0.3838
18805W        W32219   4.142   3.309  10.329 -0.2800  0.0980 -0.1615
18806W        W32220  16.736  12.487   4.940 -0.0170 -0.2288  0.1582
18807W        W32221  11.160   4.555   5.675 -0.1341 -0.2148 -0.0434
18808W        W32222  17.828   2.457  12.374 -0.1317 -0.2209 -0.1776
18809W        W32223   4.210   3.488   0.983  0.0631 -0.0009  0.3250
18810W        W32224  15.251  17.854  11.958 -0.1663 -0.1341  0.0762
18811W        W32225  17.110  17.766   3.390 -0.2180  0.2103  0.0889
18812W        W32226   0.293   4.278   0.179 -0.1166  0.4564  0.2362
18813W        W32227   1.171  13.578   4.529 -0.3688  0.2244 -0.2422
18814W        W32228   3.509   6.348  12.171  0.1984 -0.2433 -0.2725
18815W        W32229   7.589   9.716  13.846  0.0456  0.1648 -0.0844
18816W        W32230   5.154  10.861  15.980 -0.1827  0.2173  0.0862
18817W        W32231   6.197  15.137   3.600 -0.3853 -0.1582 -0.0599
18818W        W32232  11.416   7.106  10.407  0.3055 -0.0471 -0.1011
18819W        W32233  17.049  12.397  13.696  0.0609  0.0687 -0.0429
18820W        W32234  14.030   9.071  10.298  0.1542  0.1973  0.1583
18821W        W32235  18.125   4.304  11.029  0.0506  0.0434 -0.0657
18822W        W32236  12.071  16.369   6.001  0.0128  0.1011 -0.0633
18823W        W32237   4.347   3.963   1.813  0.1372 -0.1374 -0.1713
18824W        W32238   5.857   8.283  12.548  0.0973  0.2852  0.3878
18825W        W32239   4.284   9.019   3.684  0.3182  0.0541  0.2287
18826W        W32240  13.052   9.709  11.389 -0.2621 -0.1238 -0.1174
18827W        W32241   8.028   6.828   6.292  0.3364 -0.0222  0.2245
18828W        W32242  10.582  14.469   3.971  0.0171 -0.0739 -0.1634
18829W        W32243  12.721   1.207   4.116 -0.1209  0.2053  0.3032
18830W        W32244   3.004   3.732  11.868  0.0280 -0.0004 -0.1089
18831W        W32245   8.058  16.877   4.463  0.1450  0.1814  0.1098
18832W        W32246   6.060   4.524  14.407  0.0530  0.3770  0.0913
18833W        W32247   8.686   0.896   0.885  0.0593  0.3557 -0.0243
18834W        W32248  16.609   2.516   1.206  0.0656 -0.1961 -0.2459
18835W        W32249  12.293  12.560  16.335  0.2599 -0.4356 -0.0089
18836W        W32250  14.377  13.084  15.617  0.2723  0.2826 -0.0878
18837W        W32251  11.629  14.292   5.333  0.1886 -0.0470 -0.0597
18838W        W32252   4.129   5.644  12.535 -0.1010  0.1794 -0.3715
18839W        W32253  12.475   2.149   3.840  0.1273  0.2027  0.0939
18840W        W32254   5.289   4.666   4.611 -0.0625 -0.0904  0.1136
18841W        W32255   3.813   3.613  15.601  0.1018 -0.1391  0.2754
18842W        W32256   1.329   0.990  11.490  0.1309  0.1001 -0.2650
18843W        W32257   9.330   5.094  11.990 -0.2197  0.1181 -0.1852
18844W        W32258   6.255   3.340  14.870 -0.3275 -0.1727  0.1522
18845W        W32259  15.936   8.892   2.649 -0.2507  0.2441 -0.2242
18846W        W32260  12.627   0.202   2.628  0.3086 -0.3156  0.2996
18847W        W32261   8.765  12.437   1.985  0.2527  0.0525  0.0716
18848W        W32262  17.859   4.189  14.024 -0.1435 -0.1482  0.2923
18849W        W32263   9.529  15.534  14.420  0.0394  0.2363  0.1608
18850W        W32264   3.192  10.418  11.389  0.3956 -0.1623 -0.0245
18851W        W32265  17.375   7.015   5.582 -0.2491 -0.1746  0.1063
18852W        W32266   7.069   8.398   1.225 -0.0068 -0.0840 -0.0123
18853W        W32267   0.830  14.141   3.282 -0.2842  0.0605 -0.1972
18854W        W32268   4.550   3.693   3.238  0.3404  0.2990  0.0518
18855W        W32269   2.651   5.432  10.762  0.1189  0.2452 -0.3833
18856W        W32270  14.883   7.739   1.597 -0.0543 -0.2264 -0.2078
18857W        W32271  12.889   5.949   0.712  0.0984 -0.1177  0.0461
18858W        W32272  11.182   7.691  16.065 -0.2137  0.0187  0.1767
18859W        W32273  16.898   8.852  16.049  0.1897 -0.2061  0.1910
18860W        W32274   8.523   3.101  14.756 -0.2104 -0.0177  0.2275
18861W        W32275   9.895   4.951   1.712  0.2257 -0.3816 -0.1607
18862W        W32276   7.303   6.847  12.379 -0.4894  0.1273  0.0479
18863W        W32277   1.801  16.992   6.028 -0.0880  0.0485  0.0904
18864W        W32278  10.367  10.356   3.365 -0.2491  0.0486  0.1029
18865W        W32279   0.188  12.978   5.742  0.0719  0.3217  0.0115
18866W        W32280  17.891   2.286   4.768  0.0314  0.0972 -0.0132
18867W        W32281   4.143  11.264   5.643 -0.0172  0.2663  0.0587
18868W        W32282   9.124  11.886  10.486 -0.0825  0.1802  0.0539
18869W        W32283  16.931   2.962   4.416 -0.0466 -0.1557 -0.0750
18870W        W32284  13.437  12.461   2.818 -0.1329 -0.1141 -0.3020
18871W        W32285  15.002   2.033   5.664  0.0448  0.2039  0.3300
18872W        W32286  17.630   1.465   1.381 -0.1524  0.1482  0.0959
18873W        W32287   7.414   1.507   3.680  0.0466  0.2167 -0.1718
18874W        W32288  14.063  13.312  11.182  0.0516  0.0213  0.1454
18875W        W32289   7.248   0.719  15.708 -0.3479  0.2184  0.0851
18876W        W32290   3.515  17.746  15.989  0.2484 -0.0527  0.0001
18877W        W32291  14.535  17.658   0.041 -0.3043  0.0102 -0.1681
18878W        W32292   6.134   5.271   5.927 -0.0124 -0.2412  0.3655
18879W        W32293  12.603  17.417  14.112 -0.2787  0.1701 -0.0680
18880W        W32294   6.360  12.967   1.471  0.1908  0.2307  0.1250
18881W        W32295  10.504  11.875  10.146 -0.0754 -0.1645  0.1500
18882W        W32296   9.946   2.332  11.441  0.2369  0.0592  0.1177
18883W        W32297  10.288   7.201   2.932 -0.1238  0.0956 -0.2616
18884W        W32298  15.762  17.596  14.944 -0.0913 -0.1431 -0.4819
18885W        W32299  14.088  16.894   0.317 -0.1950 -0.0293 -0.2307
18886W        W32300   5.326   4.574   3.060  0.2022  0.0641  0.1896
18887W        W32301  15.508  14.980  12.825  0.0741  0.0678  0.1094
18888W        W32302  17.667   1.225  16.207 -0.2176 -0.0199 -0.0860
18889W        W32303   5.765   7.672   2.212  0.1121 -0.1106 -0.0661
18890W        W32304   1.702   3.391  13.938 -0.0389  0.0535 -0.1755
18891W        W32305  16.822  14.014   1.757 -0.0860  0.2361  0.1244
18892W        W32306  11.863  12.805  11.332 -0.0161 -0.2222 -0.0384
18893W        W32307   4.884   0.656  14.637 -0.0910 -0.0691  0.1786
18894W        W32308  12.439   5.565   1.992 -0.1371 -0.1298 -0.1116
18895W        W32309   3.789  10.968   1.068 -0.1682 -0.2513 -0.3678
18896W        W32310  12.263   7.915   0.946 -0.2817 -0.1072 -0.1927
18897W        W32311  11.138   8.194  16.259 -0.0245  0.1935 -0.1840
18898W        W32312   4.345  10.476  13.635 -0.1369  0.0716  0.3188
18899W        W32313   6.985  13.355   5.071  0.0333  0.1133  0.0533
18900W        W32314  14.737   0.812   5.298 -0.0938 -0.2784 -0.0877
18901W        W32315   9.664   3.515   4.398 -0.2708 -0.0716 -0.0319
18902W        W32316  16.777   6.670  16.123  0.1805  0.0151  0.0372
18903W        W32317  12.907   6.562  11.313  0.0967  0.2289  0.1097
18904W        W32318  15.377  11.498   4.652  0.0773 -0.2241  0.1635
18905W        W32319   9.368   4.659   3.645  0.0766  0.0339  0.3753
18906W        W32320   2.920  10.587   1.208  0.1061 -0.0591  0.2507
18907W        W32321  12.190   2.616  10.959  0.0357 -0.0347 -0.0581
18908W        W32322   3.142   6.328  16.514  0.1257  0.1605  0.1486
18909W        W32323  16.382   7.040   0.893  0.0816 -0.1772  0.0177
18910W        W32324  15.477   7.836  15.929 -0.3826 -0.0786 -0.1019
18911W        W32325   9.634  17.839  11.420  0.2008  0.1465  0.0961
18912W        W32326  17.188  14.620   0.781 -0.1257  0.0249  0.0645
18913W        W32327  15.026   5.523  10.932  0.0553 -0.2044 -0.1180
18914W        W32328  17.189   3.787   4.449 -0.1344 -0.2122  0.4679
18915W        W32329   7.623  12.328   6.450  0.0171 -0.0700  0.1929
18916W        W32330   8.167   5.121   4.514  0.3141  0.1471 -0.1990
18917W        W32331  14.758  14.368  12.541 -0.1398 -0.2277 -0.2232
18918W        W32332   2.325  10.648  13.697  0.0968  0.4184  0.0503
18919W        W32333   3.952   5.203   3.782  0.3756  0.1197 -0.1666
18920W        W32334   1.634   4.806   3.056  0.2976 -0.0298 -0.1062
18921W        W32335   0.081   6.849  14.430 -0.1300  0.0689 -0.1386
18922W        W32336   8.532   7.899  14.024 -0.0262 -0.0922 -0.0258
18923W        W32337   2.860   5.916   0.103 -0.2283 -0.1929 -0.0499
18924W        W32338  11.228  12.116   1.390  0.1060 -0.1264  0.1130
18925W        W32339  12.437  11.344  12.245  0.2042 -0.1736  0.0391
18926W        W32340   4.664  12.713  11.911  0.0137  0.0057  0.1068
18927W        W32341  12.210  12.196   5.769  0.0525 -0.1895 -0.0810
18928W        W32342  12.523  16.936   5.548  0.4305 -0.3457  0.1380
18929W        W32343  11.822   9.358  14.057  0.1801 -0.0240 -0.1572
18930W        W32344  17.913   7.995  15.713 -0.1344 -0.1803  0.0962
18931W        W32345   1.027   1.951  14.715 -0.0844 -0.2726 -0.1717
18932W        W32346   5.654   2.332  10.442 -0.1454  0.0091  0.1003
18933W        W32347   4.424  13.953  16.463 -0.0247  0.0833 -0.0288
18934W        W32348  16.535   4.921  15.930  0.0098 -0.4146  0.0657
18935W        W32349  10.828  16.589  14.608  0.2185  0.1822 -0.1468
18936W        W32350  13.284  11.748   5.605  0.1611 -0.1570 -0.2494
18937W        W32351  11.430   6.621   6.389  0.1465 -0.0616  0.0880
18938W        W32352   5.439   9.410  15.669  0.1284 -0.1378 -0.1093
18939W        W32353  11.053   8.810  10.262  0.1432 -0.0008  0.0453
18940W        W32354  17.853  15.016   5.430 -0.2524 -0.1782  0.1640
18941W        W32355  18.181  12.961   0.378 -0.0809 -0.0967 -0.0301
18942W        W32356  17.564   5.957   4.135 -0.0730 -0.3436 -0.0976
18943W        W32357   1.703   5.267   5.125  0.1486  0.0013 -0.0577
18944W        W32358   2.067   4.660   0.365  0.2373 -0.2178 -0.0225
18945W        W32359   6.497  12.220   5.261  0.1665 -0.1202  0.1626
18946W        W32360   1.592  13.484  12.340 -0.0747  0.1834 -0.1814
18947W        W32361   5.185  15.225   1.517 -0.0682  0.0424  0.1304
18948W        W32362   3.809   6.113   3.385 -0.2446 -0.1860 -0.0336
18949W        W32363   2.558  16.173   0.462 -0.1724  0.0201  0.0892
18950W        W32364   9.312   2.136  12.839  0.1668  0.0046  0.0113
18951W        W32365   4.555   9.774   1.723 -0.1560  0.0272 -0.0036
18952W        W32366   9.065   9.471   5.128  0.0241 -0.1161  0.1916
18953W        W32367   0.191   9.840  15.639  0.0659  0.4914 -0.1720
18954W        W32368  17.686  18.262  12.316 -0.1803 -0.0988  0.1389
18955W        W32369   1.249   7.142  11.092  0.1423  0.2580  0.1425
18956W        W32370   0.618  10.596  11.902  0.1188  0.2033  0.0610
18957W        W32371   3.550   2.710   5.114  0.1342 -0.0846 -0.2278
18958W        W32372   2.832   7.021   3.587  0.1778  0.1334 -0.2530
18959W        W32373   5.577  13.082  10.782  0.0988  0.0486  0.1238
18960W        W32374   1.949  16.228  15.938 -0.0657  0.1456  0.3398
18961W        W32375   4.783  15.852   2.231 -0.2363 -0.2664  0.3630
18962W        W32376  11.320  14.645   6.092  0.0976 -0.0561 -0.4433
18963W        W32377   0.384  17.993   2.587 -0.1145 -0.1094  0.5887
18964W        W32378   2.157  11.524  13.646  0.2351 -0.0726 -0.0392
18965W        W32379   1.260  13.759  12.008 -0.2165  0.1670  0.2490
18966W        W32380   0.865   3.641   5.077  0.1412  0.3485 -0.0012
18967W        W32381   6.881   7.173   5.875  0.0051  0.1043 -0.1993
18968W        W32382   6.810   4.338  10.266  0.0564  0.0083 -0.3726
18969W        W32383   1.845  13.710  12.693  0.1726  0.1035  0.0804
18970W        W32384   8.687  10.143   0.850 -0.0506  0.0293  0.3214
18971W        W32385   6.703   0.133  14.710  0.1759 -0.0030 -0.0689
18972W        W32386   0.986  14.235  16.329  0.0447 -0.0660 -0.0199
18973W        W32387  17.237   8.681  15.701  0.0594  0.0811  0.0968
18974W        W32388   8.117  10.534  10.197 -0.0712 -0.0249 -0.1088
18975W        W32389   1.129   4.048   9.731  0.1249 -0.1653 -0.0017
18976W        W32390  12.160  16.577   2.678  0.0461 -0.1905  0.3495
18977W        W32391   0.705  16.727  12.516 -0.1592  0.1656  0.2923
18978W        W32392  16.403   5.451   3.324  0.1345  0.1071  0.2498
18979W        W32393  12.675   3.608  15.350  0.1497 -0.0762  0.0355
18980W        W32394   1.791   2.110   3.302 -0.1226 -0.0046  0.1240
18981W        W32395  10.730  15.118  11.484 -0.0357 -0.0628 -0.0399
18982W        W32396   4.627  12.769  13.815  0.1009  0.2604  0.0851
18983W        W32397   6.127  14.152   4.362  0.1051 -0.2766 -0.0656
18984W        W32398  12.699  12.884  10.701  0.2648  0.0156  0.0320
18985W        W32399  14.281  17.670   5.746  0.0862  0.2537  0.1552
18986W        W32400   7.337   9.007   5.402 -0.0824 -0.0820 -0.1624
18987W        W32401   5.905   5.044   1.438 -0.0862 -0.0026  0.1157
18988W        W32402   6.855   3.963  12.457 -0.0107  0.0101 -0.1041
18989W        W32403  16.442  12.101  15.553  0.0259  0.1144  0.2189
18990W        W32404  15.127  17.393   2.219 -0.2377 -0.0867  0.2714
18991W        W32405   0.105  12.367  10.898 -0.1726  0.1864 -0.1360
18992W        W32406   1.787   4.752   4.686  0.0119 -0.2033 -0.1233
18993W        W32407  13.938   3.460   1.404 -0.1872  0.1021  0.0795
18994W        W32408  12.058  10.929   5.344  0.0777  0.0176 -0.1485
18995W        W32409  17.719  14.772   0.748  0.0912  0.2356  0.1028
18996W        W32410  15.981   6.452  15.949 -0.1531  0.0604  0.0118
18997W        W32411   7.969  17.356   3.160  0.1242  0.1340  0.2877
18998W        W32412  15.233  14.856  15.915 -0.0064  0.1129  0.0285
18999W        W32413   0.338   0.147   0.119  0.0729  0.3234  0.0628
19000W        W32414   8.737  14.481  13.924  0.1088 -0.0245  0.3386
19001W        W32415   3.012  12.545  14.027  0.1785  0.0654  0.1719
19002W        W32416   6.347  17.034   1.386 -0.0257  0.0398 -0.0483
19003W        W32417   2.157   9.481  12.941 -0.0820  0.3945  0.0304
19004W        W32418   2.828   2.674  13.992  0.0479 -0.0083  0.0958
19005W        W32419   9.398  14.014   1.970 -0.2048  0.0571  0.3213
19006W        W32420   1.117  12.548  13.191  0.0588 -0.0943  0.1512
19007W        W32421  17.146   9.338  13.051  0.1722  0.1060 -0.4588
19008W        W32422   7.921   0.658  13.813  0.2016  0.1711 -0.2610
19009W        W32423   8.508  13.814  12.351 -0.0808  0.0278  0.1763
19010W        W32424   1.000   3.801  14.982  0.0705 -0.0171 -0.0401
19011W        W32425  14.034   9.357  15.306 -0.2523  0.2074  0.0570
19012W        W32426   5.787   2.679  13.110 -0.0505  0.1797  0.0345
19013W        W32427   4.699   9.258  14.252 -0.0733 -0.0042 -0.2258
19014W        W32428  14.801  14.307  13.144  0.1084 -0.0862 -0.0115
19015W        W32429  11.330   5.703  16.421  0.3841  0.1262  0.3012
19016W        W32430   9.700  16.333   2.652 -0.0086  0.0541  0.3160
19017W        W32431   2.465   3.493  10.682 -0.0220 -0.0913 -0.0123
19018W        W32432   9.041   9.358  14.341  0.0093  0.0667  0.3366
19019W        W32433   7.262   1.289  10.741 -0.1493 -0.0685  0.0711
19020W        W32434  17.886  12.359  14.185  0.2166  0.0552 -0.3119
19021W        W32435   6.320   0.894   4.525  0.0767  0.0640 -0.0134
19022W        W32436  11.438  18.221  11.719  0.1790  0.2889  0.1584
19023W        W32437   2.840  13.475  12.764  0.1897  0.0655 -0.0408
19024W        W32438  12.079  14.825   6.384 -0.1421 -0.1116 -0.1428
19025W        W32439   1.560   3.807  13.650 -0.1838 -0.1922  0.1901
19026W        W32440   1.883  16.454   1.600 -0.4684 -0.2821 -0.3153
19027W        W32441   5.605   0.913   4.994 -0.1861  0.0365  0.0593
19028W        W32442   4.370   3.171   2.940 -0.1415 -0.1007 -0.1707
19029W        W32443  17.210   5.744   3.760  0.1442 -0.4146 -0.3078
19030W        W32444   9.425   4.964  15.748  0.0280  0.0125 -0.1057
19031W        W32445   6.144  17.708  16.196  0.0013  0.2377  0.3791
19032W        W32446  16.566   2.556  13.349 -0.1969  0.0810 -0.0121
19033W        W32447   0.351  14.068   1.863 -0.3262  0.0562 -0.1758
19034W        W32448  18.015   1.389   0.841 -0.1355  0.0354 -0.1479
19035W        W32449  12.984  11.569  14.647  0.2348  0.2113 -0.0828
19036W        W32450  13.531  17.409  12.011 -0.3698  0.1316 -0.1443
19037W        W32451   0.455   0.368   2.450 -0.1059  0.1301 -0.2554
19038W        W32452  14.663  14.767   0.323  0.0245 -0.1076 -0.0974
19039W        W32453  10.889   0.584   3.293  0.1610 -0.0805 -0.0116
19040W        W32454   4.476  18.180  13.516  0.4379  0.0700  0.0309
19041W        W32455   9.646   4.163   6.110  0.0821 -0.2081  0.1747
19042W        W32456  13.929  15.322   2.289 -0.1807  0.1662 -0.0011
19043W        W32457   7.185   7.621  12.649  0.0276  0.0748  0.1759
19044W        W32458  13.600   6.872  12.879  0.2245 -0.0068 -0.3109
19045W        W32459  17.615  12.402   1.996 -0.0067  0.2518 -0.0772
19046W        W32460   3.787   9.754  15.158 -0.1313  0.1641 -0.3342
19047W        W32461   5.284  11.432   3.535  0.1942 -0.0054 -0.1615
19048W        W32462   1.424   8.644   4.878 -0.3137 -0.0662 -0.1772
19049W        W32463   9.448  14.343  14.627  0.0836  0.0797 -0.0686
19050W        W32464  18.227  17.063   0.059 -0.0786 -0.1980 -0.0873
19051W        W32465   8.676   8.395   4.398 -0.0857  0.3450  0.0797
19052W        W32466  11.198  11.292  14.715 -0.1660  0.0191 -0.2567
19053W        W32467   9.278   0.368  16.337 -0.0585 -0.0418  0.5012
19054W        W32468   9.407   7.687   4.557  0.1856  0.1187 -0.0279
19055W        W32469  17.046   2.509  15.247 -0.0435  0.1879 -0.4182
19056W        W32470   6.057   0.973   0.422  0.1658  0.3189 -0.2706
19057W        W32471  10.908  12.864  11.557 -0.2538  0.3386  0.1611
19058W        W32472  14.955  17.451  11.494 -0.5154  0.0794 -0.0792
19059W        W32473  10.564   5.493  13.239  0.1612 -0.2012 -0.0934
19060W        W32474   7.806  12.090  14.177  0.0813  0.1430 -0.1669
19061W        W32475   7.381   1.563  11.110  0.0959 -0.0496 -0.1517
19062W        W32476  17.426   9.480   2.197 -0.1707 -0.2906  0.0603
19063W        W32477  17.941   6.756  14.775 -0.0393 -0.0663  0.0279
19064W        W32478  18.221   3.460   4.997  0.0905  0.1497 -0.0137
19065W        W32479  13.873   1.071  14.714 -0.2766 -0.1695 -0.3197
19066W        W32480   9.224   3.793  13.720 -0.1350 -0.0651  0.1991
19067W        W32481  11.533  11.564   2.693  0.0603 -0.0624  0.0253
19068W        W32482   1.464   3.023  10.966  0.1511 -0.1770  0.1595
19069W        W32483  14.915  17.029   0.235 -0.1739  0.1990 -0.1545
19070W        W32484   8.150  14.842  15.288 -0.2664  0.1634  0.4197
19071W        W32485   8.019   7.952   3.037  0.3270 -0.2805 -0.4350
19072W        W32486   7.578  17.651   5.401 -0.1093  0.0194  0.1648
19073W        W32487  12.441   6.038   0.630  0.3965 -0.3365  0.2494
19074W        W32488   3.117  14.283  13.272 -0.0672 -0.0078 -0.0118
19075W        W32489   6.077  17.900  15.481  0.0143  0.0330  0.1398
19076W        W32490  10.408  11.162  15.200  0.1240 -0.1025 -0.1399
19077W        W32491  17.655  15.493  15.592  0.1042 -0.0120  0.0277
19078W        W32492   2.608  13.386  10.931 -0.0301  0.3433  0.0609
19079W        W32493   1.490  11.189  12.579 -0.0607  0.1424  0.1963
19080W        W32494   3.539   7.819  14.971 -0.1562  0.0318  0.2277
19081W        W32495   3.412  13.163  11.368 -0.1687 -0.3689  0.0720
19082W        W32496   9.090  10.733   1.452 -0.0532  0.1229  0.0514
19083W        W32497  11.805   4.450   6.336 -0.3818 -0.2376 -0.0344
19084W        W32498   7.423  12.484   4.977  0.3972 -0.1986  0.2806
19085W        W32499  15.740   9.551  15.159 -0.0438  0.0995  0.1535
19086W        W32500  15.567   7.245   3.711  0.1121 -0.0817 -0.2010
19087W        W32501   0.054  10.786  15.536 -0.0057 -0.4685 -0.0637
19088W        W32502  17.749   3.784  13.153  0.0343  0.1468  0.1694
19089W        W32503   9.129   0.003   5.348 -0.2767 -0.4706 -0.0385
19090W        W32504   9.801  11.817   5.936  0.2216 -0.1810  0.1769
19091W        W32505  16.067  16.373   4.547  0.0773  0.1298 -0.0588
19092W        W32506   9.920  13.441  13.992 -0.1441 -0.3077 -0.0724
19093W        W32507   0.685  13.619  11.964  0.0808 -0.1281  0.0056
19094W        W32508   1.669   6.070   2.505  0.2066 -0.3555 -0.0288
19095W        W32509   3.023   1.562  13.967 -0.1525 -0.0885  0.1314
19096W        W32510   8.808  11.328   1.382  0.3195  0.1530  0.0054
19097W        W32511  17.307   5.341  13.881  0.2371  0.2654  0.0890
19098W        W32512   8.102  10.987  13.340 -0.0534 -0.2556  0.0639
19099W        W32513  12.974  15.792   1.508  0.2759 -0.1580  0.0270
19100W        W32514  12.223   3.493   3.090  0.1809 -0.0345 -0.1588
19101W        W32515  16.991  16.889  15.740 -0.0441  0.1311  0.1230
19102W        W32516   8.632   5.882   5.448 -0.1364  0.1832  0.1176
19103W        W32517   1.018   5.726   3.798  0.0480 -0.1036  0.0501
19104W        W32518   2.510   9.180  13.352  0.0552 -0.1692  0.1119
19105W        W32519   4.778   2.838   3.278  0.1873  0.0603  0.1309
19106W        W32520  10.903   7.238  14.739 -0.3773 -0.0202 -0.2175
19107W        W32521   5.930  16.077  12.159  0.2333  0.0782 -0.2277
19108W        W32522   5.110   9.366   3.443  0.1295 -0.3364 -0.2057
19109W        W32523   8.792   7.105  13.900 -0.0172  0.2422  0.2727
19110W        W32524   5.981   3.042   4.312  0.1260  0.0897  0.0929
19111W        W32525  10.350   0.490  15.824 -0.0397  0.1499  0.1227
19112W        W32526   9.525   3.133  14.953  0.2476 -0.1953 -0.0411
19113W        W32527  10.645   7.944  15.174  0.0049 -0.1614 -0.1097
19114W        W32528  15.021  10.565   4.616 -0.0474  0.2806  0.1192
19115W        W32529   2.780   9.220   5.930  0.2494  0.2136 -0.1011
19116W        W32530  11.669  17.516  11.561  0.1238  0.3039  0.0497
19117W        W32531   5.167  17.382   1.967 -0.0490 -0.0520 -0.1502
19118W        W32532   0.946   5.113  11.683  0.1366 -0.0971  0.1115
19119W        W32533  16.231  11.140   4.470 -0.0343 -0.1805 -0.0784
19120W        W32534   1.165  10.862   4.878 -0.0656  0.0073 -0.1118
19121W        W32535   1.283  12.493   3.638  0.0995  0.0508  0.0597
19122W        W32536  12.573   1.613   5.049 -0.1020  0.0502 -0.1607
19123W        W32537  17.828   7.477   1.334 -0.2666 -0.0261 -0.3576
19124W        W32538  17.185   0.995   1.169 -0.0325  0.1465  0.0916
19125W        W32539   4.086   8.359  11.548 -0.0394  0.3299 -0.1449
19126W        W32540   8.061  10.232   1.463 -0.2542 -0.0869  0.0861
19127W        W32541  11.450  15.198   1.883 -0.3955  0.1240  0.0539
19128W        W32542   8.215   0.439  12.982  0.2387 -0.0687  0.1290
19129W        W32543   7.970   6.870   3.013 -0.0522  0.0354  0.2598
19130W        W32544  11.769  13.643  16.256 -0.1315  0.1159  0.1277
19131W        W32545   9.670  12.307  15.386  0.2864 -0.0445 -0.0279
19132W        W32546   7.083   2.691  14.175  0.0281  0.0362 -0.3954
19133W        W32547  14.365   2.362   3.343 -0.2737  0.1658 -0.1679
19134W        W32548  11.404   6.056   4.509 -0.3623  0.3722 -0.1961
19135W        W32549  13.217  17.473   5.651  0.0008 -0.2149 -0.2678
19136W        W32550  15.575   2.067   2.901 -0.1101  0.0706 -0.1746
19137W        W32551  10.243   6.884   2.136 -0.1967  0.1001 -0.1655
19138W        W32552  13.662   4.971  14.634  0.0824 -0.2069  0.0157
19139W        W32553  15.523   4.139  11.905 -0.0022 -0.1745 -0.3425
19140W        W32554   6.423  15.177   0.949 -0.1094  0.0220 -0.3240
19141W        W32555   5.510   4.228   0.547 -0.0062 -0.0886  0.2643
19142W        W32556  17.895   2.618   4.391  0.1394 -0.0110 -0.0789
19143W        W32557  18.004   1.681  11.937 -0.2789 -0.1598  0.0081
19144W        W32558  13.186   5.692  10.921  0.3169  0.3156 -0.0215
19145W        W32559   8.140   1.929   5.231 -0.1069 -0.2032  0.0429
19146W        W32560   4.667   5.731  13.766  0.1851  0.0535  0.0873
19147W        W32561  12.824  16.540   5.632  0.2233 -0.1698  0.0358
19148W        W32562  17.393  11.767  11.119 -0.0099 -0.0901  0.0867
19149W        W32563  17.249  13.528  16.376  0.0576  0.1330  0.2829
19150W        W32564  17.226  11.114  13.275 -0.4894  0.1585 -0.0215
19151W        W32565  15.911  17.565   1.919  0.1711  0.0021 -0.0925
19152W        W32566   3.624   8.639  12.429  0.1591 -0.2745  0.2814
19153W        W32567   5.694  12.659   1.983 -0.0658 -0.2792  0.2177
19154W        W32568  11.832   3.186   0.481 -0.0852  0.1428  0.1779
19155W        W32569  14.392  11.657  13.198 -0.0054  0.1106  0.1884
19156W        W32570   5.962   9.050  14.671  0.2093  0.1405 -0.2570
19157W        W32571   8.331  12.967  13.615  0.2249 -0.0035 -0.1569
19158W        W32572  14.180  14.355  11.297  0.0371 -0.0983  0.0883
19159W        W32573   4.149   4.207  14.925 -0.0791  0.3192 -0.0490
19160W        W32574   8.826   6.837   0.787 -0.2702 -0.3509  0.1066
19161W        W32575  12.082   2.139   2.127 -0.0715 -0.0955  0.1857
19162W        W32576   3.437   6.249  12.664  0.0361  0.0593 -0.1179
19163W        W32577  10.932   2.812   1.801 -0.2168 -0.0685 -0.2525
19164W        W32578   9.023   8.188   1.917 -0.0461  0.1518 -0.0901
19165W        W32579   9.429   6.833   4.790 -0.3296  0.0242 -0.0015
19166W        W32580  16.584  10.533   3.633 -0.0981 -0.1139 -0.0852
19167W        W32581   6.108  12.263   0.211  0.0781  0.2624  0.1408
19168W        W32582   1.250  12.280   2.155 -0.1854  0.1537  0.0653
19169W        W32583   5.137  14.811  14.108  0.0527 -0.4034  0.2120
19170W        W32584  14.446   0.683   3.580  0.0763 -0.1602  0.2239
19171W        W32585   9.184   6.304  12.935  0.1938  0.3795  0.1431
19172W        W32586   6.720   1.670  11.822 -0.0600 -0.0097 -0.2092
19173W        W32587   3.974   3.959  15.931 -0.2431 -0.1329 -0.0523
19174W        W32588   8.605   1.356  10.437 -0.1684 -0.5665 -0.0322
19175W        W32589  13.204  12.877   0.546  0.0383  0.1846 -0.0789
19176W        W32590  11.467  16.528   2.130 -0.1311  0.0057  0.3661
19177W        W32591   5.973   2.736   2.246 -0.1415  0.2318  0.2137
19178W        W32592  17.420  10.648  13.076  0.3163  0.1075  0.0905
19179W        W32593   5.382   2.043   0.333  0.0503  0.1286  0.0026
19180W        W32594  15.241   2.823  13.685 -0.1764 -0.0105 -0.2145
19181W        W32595   1.979  10.270  13.529  0.2892 -0.2021  0.2211
19182W        W32596   5.396  15.696  14.504 -0.2092  0.0483 -0.3312
19183W        W32597   1.975   2.171  14.177 -0.2086 -0.1204 -0.0518
19184W        W32598  16.690   2.697  11.030  0.0929  0.2553 -0.1612
19185W        W32599   4.526   8.131  12.493  0.4152 -0.1002  0.0815
19186W        W32600  10.485   6.447   3.609 -0.2652 -0.1775  0.1832
19187W        W32601   7.871  13.462  13.588 -0.3029  0.3432 -0.4965
19188W        W32602   7.615   7.925  11.205  0.0575 -0.1073 -0.0412
19189W        W32603   7.106  12.211   2.385 -0.1250 -0.0551 -0.0594
19190W        W32604   7.717  11.888  13.620 -0.4632  0.1876  0.0990
19191W        W32605   4.450   3.085   1.407 -0.0427 -0.2828 -0.0281
19192W        W32606  11.693   9.325  12.770 -0.0201 -0.0595 -0.0647
19193W        W32607   3.892  12.335  11.144 -0.0472  0.1228 -0.0468
19194W        W32608   2.313  14.530   1.453 -0.2767  0.0241  0.1485
19195W        W32609  10.133   1.632   5.818 -0.1645 -0.1550  0.1122
19196W        W32610   8.452   4.758   1.035  0.0043  0.0409  0.4943
19197W        W32611  16.783  16.790  12.678 -0.0806 -0.2270 -0.2132
19198W        W32612  13.530   1.107   1.908  0.1753  0.0140  0.0758
19199W        W32613   5.689   1.741   4.588 -0.1729 -0.1063  0.1662
19200W        W32614  12.507   7.453   3.310 -0.1356  0.0386  0.2370
19201W        W32615   7.951   2.573  14.703  0.1100  0.1516  0.2483
19202W        W32616  11.949  15.272   3.754  0.0932 -0.1860  0.2237
19203W        W32617   5.321  17.713  16.145  0.1069 -0.0833 -0.0614
19204W        W32618  13.914  10.970  10.734 -0.0099 -0.3207  0.0431
19205W        W32619  12.983   7.369   3.115  0.1707 -0.1437 -0.1230
19206W        W32620   5.174   4.958  15.168  0.0295 -0.3479  0.1296
19207W        W32621   9.533   4.622   1.314 -0.0043  0.0700 -0.3751
19208W        W32622  17.902   3.722  11.335 -0.3821 -0.0923 -0.0621
19209W        W32623  11.225   5.289   4.997 -0.2819  0.2151 -0.4255
19210W        W32624   5.485   4.307  11.033 -0.0362  0.2400  0.0349
19211W        W32625   1.315   9.382   2.712 -0.0266 -0.0171 -0.0285
19212W        W32626   7.726   5.540   0.687  0.0297  0.2312  0.1854
19213W        W32627   0.371  10.900   2.162  0.0481  0.0924  0.0124
19214W        W32628  14.394  13.217  12.621  0.0378 -0.1398 -0.4026
19215W        W32629   9.511   3.364  14.520  0.0369 -0.0523  0.0532
19216W        W32630  10.113  11.893  11.356 -0.2958  0.1260  0.1937
19217W        W32631   6.376   8.587  14.038 -0.0655  0.0020 -0.0123
19218W        W32632  11.386   6.864   1.076 -0.3878 -0.0323 -0.1476
19219W        W32633   1.167  10.849   4.254  0.2062 -0.3818 -0.1262
19220W        W32634   0.895  12.537  15.747 -0.1535 -0.1397  0.0880
19221W        W32635  11.273   1.618   1.471 -0.2360  0.3819  0.1513
19222W        W32636  15.783  17.010   0.557 -0.0564  0.1047  0.0657
19223W        W32637  15.242  15.662   1.176 -0.0697  0.3446 -0.0020
19224W        W32638  10.062   1.111  13.812  0.0373  0.2707 -0.3189
19225W        W32639  17.393   6.485  12.463  0.1041  0.1597  0.1547
19226W        W32640  13.955  17.670   2.998  0.0075 -0.0013 -0.0975
19227W        W32641  11.345  16.956  13.693  0.1457  0.0227  0.0849
19228W        W32642  18.266  11.647   3.535 -0.2118  0.0712  0.1895
19229W        W32643   0.867  17.880  14.296 -0.0237  0.0118 -0.0132
19230W        W32644   3.963   1.047  14.315  0.0330  0.2830  0.0427
19231W        W32645   7.225   9.832  12.169 -0.0031  0.1696 -0.1466
19232W        W32646   0.131  10.557   9.946  0.1883 -0.0753 -0.3000
19233W        W32647  13.800  16.417   1.732  0.1640 -0.1345  0.0541
19234W        W32648  17.793  16.230  12.057  0.3367 -0.2648  0.2476
19235W        W32649  13.465  12.372   5.367 -0.2149  0.0917  0.2482
19236W        W32650   3.891   4.894  12.368 -0.0596  0.3086 -0.2369
19237W        W32651   4.599   8.805  13.995 -0.0052 -0.0707  0.2553
19238W        W32652   3.503   3.451   2.201  0.3189 -0.2733  0.2849
19239W        W32653  15.328  11.736  10.438 -0.1486 -0.1354 -0.3609
19240W        W32654  17.339  12.525   0.225 -0.2334 -0.2375 -0.3307
19241W        W32655  12.206   3.951   2.020 -0.0394  0.3957  0.0914
19242W        W32656   5.925   7.344  13.187  0.4502 -0.1131  0.3040
19243W        W32657   0.963  10.143  13.984 -0.1465 -0.0913 -0.3193
19244W        W32658   1.929  17.161   1.745  0.1146  0.1827 -0.2602
19245W        W32659  15.664  11.836   5.558  0.3020  0.4921  0.0715
19246W        W32660   4.433   9.209  11.360 -0.1386  0.1665  0.4972
19247W        W32661   9.967   3.198  11.059 -0.3582  0.1528 -0.1112
19248W        W32662   7.781  13.498  15.870 -0.1426  0.2077  0.0653
19249W        W32663   7.932  15.096   4.531 -0.1088  0.0163  0.0575
19250W        W32664   1.795   7.608   1.239 -0.1128 -0.0527  0.2042
19251W        W32665  11.561  11.944  14.286  0.0201 -0.1647  0.2867
19252W        W32666  14.021   4.405  15.500 -0.0251  0.5021  0.1629
19253W        W32667   9.214   0.954   3.306 -0.1886  0.0867  0.2283
19254W        W32668   9.038   6.495   3.288  0.2470  0.2229 -0.2736
19255W        W32669  16.687   6.330   0.487  0.1925  0.0844 -0.0562
19256W        W32670   8.057  11.493   0.309 -0.0875  0.0652  0.0022
19257W        W32671  10.161  12.551  15.300  0.0610 -0.0613 -0.0847
19258W        W32672   5.609   3.688   3.652  0.1641  0.2471  0.0813
19259W        W32673  15.014  13.147  12.076  0.1542  0.1193 -0.1787
19260W        W32674   0.583   3.022  13.259 -0.0857  0.1383 -0.1275
19261W        W32675  10.282  13.897  13.091  0.1757 -0.0207 -0.3105
19262W        W32676  11.426   9.195  14.504  0.0581  0.1698 -0.2066
19263W        W32677   7.500   5.792   5.575 -0.0585 -0.1866  0.0999
19264W        W32678   0.935   2.362  11.584  0.0672 -0.0249  0.1744
19265W        W32679  12.104   5.725   2.969  0.2471  0.1354  0.2649
19266W        W32680   9.221  13.276   2.863 -0.0375 -0.2092 -0.1686
19267W        W32681  10.941  16.554   2.004 -0.1779 -0.2402 -0.0956
19268W        W32682  15.851  10.918   0.771 -0.0417  0.1174 -0.0112
19269W        W32683   5.215   5.385  12.163 -0.1440  0.0498  0.1738
19270W        W32684   9.191   0.398   2.550  0.0470 -0.1135 -0.0635
19271W        W32685  12.987  16.696  12.824 -0.0456 -0.1543  0.2275
19272W        W32686   1.982  16.002  14.295 -0.2073 -0.1112  0.3185
19273W        W32687  10.728   1.541  12.132 -0.3487  0.0689  0.0095
19274W        W32688   8.029  17.493  10.868  0.0135  0.0650 -0.0552
19275W        W32689   5.053   1.338   4.925  0.4444 -0.0616 -0.4404
19276W        W32690   3.620   6.660   1.992  0.2194 -0.0591 -0.2015
19277W        W32691  13.399  12.198  13.933 -0.1572 -0.2724 -0.1029
19278W        W32692  17.135  11.692   0.772 -0.0859 -0.2505  0.1105
19279W        W32693  10.202  12.377   3.528  0.1221 -0.0493  0.0092
19280W        W32694  12.836  13.945   4.358 -0.1752  0.0347 -0.0129
19281W        W32695  17.341  12.407  14.151 -0.2939 -0.1335  0.3401
19282W        W32696   6.409  15.522   6.242 -0.1625 -0.2776  0.1481
19283W        W32697  15.497   5.703  16.325  0.0373 -0.5149  0.0828
19284W        W32698   6.894  16.602  11.117  0.0951 -0.1450  0.1421
19285W        W32699  16.456   1.177  13.906  0.0801  0.0177  0.0488
19286W        W32700   5.161   7.031  14.379  0.1090 -0.0547  0.0471
19287W        W32701  16.614   7.899   4.623  0.1352 -0.0930  0.0197
19288W        W32702   1.205   7.238   1.876 -0.1860  0.0033 -0.1613
19289W        W32703  11.595   6.013   1.431 -0.0595 -0.0603 -0.1899
19290W        W32704  17.146   3.136   2.793 -0.0469  0.0806  0.3132
19291W        W32705   0.208   8.353   4.778  0.1105  0.1932  0.1709
19292W        W32706   9.948   4.049   3.459 -0.1667  0.0326 -0.0097
19293W        W32707   9.893   2.738  10.607 -0.0087 -0.1335 -0.0224
19294W        W32708   0.793   9.810  15.337  0.1356  0.2515  0.3280
19295W        W32709   1.543   0.429   5.818  0.1170 -0.2452  0.1389
19296W        W32710  15.054   7.921   2.355  0.1481 -0.0219  0.2258
19297W        W32711  10.241  11.747   2.189  0.0381 -0.0508  0.1782
19298W        W32712   1.985   0.064  12.341 -0.4232 -0.0380 -0.2480
19299W        W32713   7.597  15.346  15.903  0.2481 -0.1432  0.0359
19300W        W32714   4.863  11.363   2.729 -0.3140  0.2143  0.1229
19301W        W32715   7.105  11.519   0.912  0.1161  0.1141  0.1699
19302W        W32716   1.330   2.103   4.802 -0.2692 -0.2207 -0.0525
19303W        W32717   9.547   0.995  11.603 -0.2064  0.2347 -0.0616
19304W        W32718  16.324  18.075   0.906  0.3049  0.0904  0.4432
19305W        W32719   1.362  10.266   5.564 -0.0385  0.0418 -0.3054
19306W        W32720  10.865  10.888   4.100  0.0114  0.3973 -0.0118
19307W        W32721   6.472   5.682  10.763 -0.4220  0.1038 -0.1161
19308W        W32722   5.870  16.620   6.031 -0.2152 -0.3442  0.0214
19309W        W32723   0.244   6.937   3.557 -0.1585  0.0857  0.1195
19310W        W32724   0.004   5.162   1.401 -0.2650  0.1960  0.2451
19311W        W32725  17.492   7.094  16.399 -0.0118 -0.0078 -0.3116
19312W        W32726   8.517  14.746  13.134  0.1383 -0.0956 -0.0083
19313W        W32727  13.274  11.064   0.045  0.2504  0.2321 -0.1876
19314W        W32728  13.296  12.304   4.285 -0.0393  0.1168  0.1006
19315W        W32729   9.665  14.721  14.233 -0.1630  0.2150  0.1468
19316W        W32730  12.045   7.492   4.251 -0.0907 -0.0184  0.0344
19317W        W32731  12.431  13.870   2.000  0.2165 -0.1623  0.1839
19318W        W32732   3.435  15.420   0.319  0.1417  0.1442 -0.0013
19319W        W32733  15.902   4.446  13.673  0.0983 -0.1476 -0.0561
19320W        W32734   7.690  11.365  13.589 -0.0372  0.2859 -0.2036
19321W        W32735   6.951  11.956  13.869 -0.0050  0.2174 -0.2097
19322W        W32736  14.421  16.312  16.262  0.0361 -0.0620  0.4785
19323W        W32737  18.036  16.168   2.745 -0.2992  0.1111  0.2922
19324W        W32738  15.712   3.415   4.773  0.4567  0.0545 -0.0635
19325W        W32739  11.775  14.939  11.366  0.1843  0.2733 -0.1323
19326W        W32740   4.006  11.501   1.555  0.0899 -0.1188 -0.0070
19327W        W32741  10.404   0.598   5.686  0.0776 -0.1002 -0.1262
19328W        W32742  13.770  16.427  15.185 -0.2252  0.0880 -0.1276
19329W        W32743  15.240  16.544  14.166  0.3558  0.2169  0.0640
19330W        W32744  10.302   1.088  15.858 -0.0571  0.1615  0.1172
19331W        W32745   8.222   6.756  15.247  0.2526 -0.1220  0.0652
19332W        W32746   3.458  14.145   3.785 -0.2300 -0.0336  0.1173
19333W        W32747  15.081  11.905   4.794  0.1020 -0.1928  0.0276
19334W        W32748   2.046  15.779   0.797 -0.0879  0.1378 -0.2133
19335W        W32749   7.431  16.392  13.190 -0.1714  0.3702  0.0917
19336W        W32750   4.018  11.015  14.080 -0.0231  0.5477 -0.3903
19337W        W32751  16.629  17.651   4.514 -0.1010  0.1091  0.2526
19338W        W32752   4.656   9.540   1.215  0.2626 -0.0715  0.2628
19339W        W32753   0.394  10.320   0.988 -0.2289  0.0226 -0.1385
19340W        W32754  10.855   6.169   2.467 -0.0359  0.0435  0.2559
19341W        W32755  10.809   6.127  11.602  0.0082 -0.0111 -0.0855
19342W        W32756   2.933   5.404  11.620  0.1575 -0.0765  0.0872
19343W        W32757  17.088  13.077  16.150  0.2846 -0.1257 -0.0459
19344W        W32758   1.812   4.860  11.565  0.1058  0.0227  0.2508
19345W        W32759   0.342   0.585  12.157  0.1479 -0.0789 -0.1379
19346W        W32760  14.693   8.618   2.079  0.4110 -0.1480  0.0664
19347W        W32761   5.313   7.275  14.827 -0.2282  0.0841 -0.3491
19348W        W32762  16.814   2.112  12.434  0.1187 -0.0974  0.1474
19349W        W32763   1.907  14.368  13.909  0.0148  0.3044 -0.0669
19350W        W32764   8.332  10.410  14.949 -0.1083 -0.0536  0.1558
19351W        W32765  13.551  10.536  16.306 -0.0038  0.0388 -0.1019
19352W        W32766  13.346  13.107  12.290 -0.0427  0.0041  0.1650
19353W        W32767   3.184  11.520   3.692  0.2846 -0.0158 -0.0565
19354W        W32768   9.999   8.020   2.900  0.1422  0.1879  0.2069
19355W        W32769  12.710   0.555  10.940  0.0979  0.3667 -0.2414
19356W        W32770  14.227   6.403  13.270 -0.2995  0.2116  0.0279
19357W        W32771   2.661   3.770  15.778  0.1412  0.0537 -0.2824
19358W        W32772   2.346   1.372   5.096 -0.4135  0.2136  0.0495
19359W        W32773   9.557   0.210   6.322  0.2052  0.2880 -0.1039
19360W        W32774   6.372   1.487  13.902  0.2586 -0.1322  0.1931
19361W        W32775   7.287   4.102  13.941  0.1034  0.4067  0.1044
19362W        W32776  17.183   6.016   4.511 -0.0502  0.0648  0.3852
19363W        W32777  13.204  10.028   2.242  0.0243 -0.4227  0.0455
19364W        W32778  16.294   5.577  11.433 -0.1148  0.0964  0.0075
19365W        W32779   0.965  13.180  14.595  0.2400  0.1566  0.2847
19366W        W32780  14.604   0.823  11.280 -0.0778  0.1038  0.0574
19367W        W32781  18.239   3.622  15.955  0.0325  0.1399 -0.1830
19368W        W32782   5.182   7.475  15.783 -0.1814 -0.2493  0.1480
19369W        W32783  17.681  13.775   0.746  0.2248 -0.4110 -0.0741
19370W        W32784  14.884   9.867   0.556  0.1762  0.2178 -0.1340
19371W        W32785   3.246  13.160   5.701  0.0908 -0.1715  0.1776
19372W        W32786   5.549   7.646  11.234  0.0334 -0.2108 -0.2670
19373W        W32787  15.508   7.748   3.676  0.0754  0.0859 -0.1033
19374W        W32788  17.435   3.827  16.117 -0.0551 -0.1077  0.4069
19375W        W32789   3.165   8.783  15.805 -0.0034  0.0269  0.1463
19376W        W32790   6.002   6.375   6.184 -0.0628  0.0258 -0.0670
19377W        W32791  16.427  13.018   3.387 -0.1629  0.1469 -0.3240
19378W        W32792   3.586   5.366   2.980 -0.0465  0.0830  0.2057
19379W        W32793  15.993   4.804  14.945  0.0483 -0.1231 -0.2841
19380W        W32794  11.615   1.349   3.667  0.0655  0.0039  0.1006
19381W        W32795  15.012  13.323   4.365 -0.3583  0.2914 -0.1297
19382W        W32796   6.792   1.054  11.014  0.1147  0.0374  0.0956
19383W        W32797   9.851  14.828  13.083 -0.2902 -0.0969 -0.1827
19384W        W32798   8.030   7.851   5.078 -0.0894 -0.3012 -0.1773
19385W        W32799  15.177   5.960  11.907  0.2901  0.2046  0.3486
19386W        W32800   3.603  12.483   6.137  0.1136 -0.0197 -0.1512
19387W        W32801  14.486   8.733  12.676 -0.0304  0.4206 -0.5129
19388W        W32802   9.320  13.653  12.055 -0.0300  0.0254  0.0476
19389W        W32803   9.046   5.258  14.854  0.5230  0.1771 -0.3131
19390W        W32804   4.425  14.386   0.630  0.0223 -0.0053  0.0879
19391W        W32805  17.362   8.499  10.258  0.3559 -0.0852  0.2479
19392W        W32806   8.735   6.280   3.714 -0.0100  0.0980  0.1907
19393W        W32807   3.267   1.446  14.354 -0.1055 -0.0055 -0.1454
19394W        W32808  10.451   6.013  10.387 -0.1519 -0.1011  0.2739
19395W        W32809  13.884   7.277   4.832  0.0203  0.1364  0.0670
19396W        W32810  12.237  11.957  12.890  0.0050 -0.0778 -0.0272
19397W        W32811   7.228   4.391  14.951 -0.0636 -0.1212  0.0511
19398W        W32812  17.768   1.835  13.127  0.1075 -0.0273  0.0182
19399W        W32813   5.598  13.057   1.100 -0.0162 -0.3693 -0.1268
19400W        W32814  10.838   5.172  10.534  0.1310  0.0437 -0.3016
19401W        W32815  17.443  15.745  16.531  0.0052 -0.2120  0.0560
19402W        W32816   3.607  15.521  10.791 -0.1525 -0.0368  0.1287
19403W        W32817  14.276   8.651  15.899  0.0455 -0.0613 -0.1101
19404W        W32818   0.706  12.723   4.936 -0.1773  0.0657  0.3057
19405W        W32819   2.258  15.787   0.302  0.1844  0.0162 -0.1238
19406W        W32820   3.925   7.496   4.217  0.2423  0.1704  0.2895
19407W        W32821   9.411  17.681  16.122  0.0731 -0.4026  0.0539
19408W        W32822   8.538  10.233  11.320 -0.1461  0.0743  0.1665
19409W        W32823  11.776  14.382   6.350  0.1559  0.1023  0.1003
19410W        W32824   0.865  13.215   3.643 -0.2470 -0.0853 -0.0341
19411W        W32825  12.686  12.994  14.047 -0.3507 -0.0913  0.1600
19412W        W32826  14.666   8.144   3.868  0.1130 -0.3063  0.1875
19413W        W32827  11.986   1.450   0.834 -0.1635 -0.2373 -0.0899
19414W        W32828  16.415  16.278   4.245 -0.1378 -0.3128 -0.3431
19415W        W32829   5.524  10.505   5.180  0.0049  0.1609 -0.0299
19416W        W32830  17.791   5.274  13.225  0.0329 -0.3157  0.0021
19417W        W32831  16.943  14.059   6.506 -0.4183 -0.3837 -0.1354
19418W        W32832   8.150  10.952  11.074 -0.1841 -0.2637 -0.3505
19419W        W32833  16.135  17.664  14.635  0.2113  0.0238  0.1856
19420W        W32834   0.545   5.094   3.856 -0.1122  0.1555  0.0276
19421W        W32835  11.799  11.149  10.221  0.1747  0.1963  0.1664
19422W        W32836  17.805  11.467   1.405  0.0729 -0.0648  0.0432
19423W        W32837   4.607   7.563   3.459  0.0694 -0.0391 -0.0264
19424W        W32838   6.306   6.101  11.744  0.0173  0.0291 -0.1017
19425W        W32839   7.045  14.500  13.540 -0.0751  0.2046 -0.2287
19426W        W32840   1.601   2.967   3.245 -0.2358 -0.1890  0.0031
19427W        W32841   4.620  12.527  15.961  0.1050 -0.1297 -0.0979
19428W        W32842   5.775  14.187  15.519  0.2420 -0.1997  0.0761
19429W        W32843   9.805   4.115   2.856  0.0382  0.1182  0.2605
19430W        W32844  13.803  12.585   4.977  0.0936 -0.0191  0.0704
19431W        W32845   0.929   9.388   4.059 -0.0631  0.2848 -0.1248
19432W        W32846   6.100  10.558   2.199 -0.0140 -0.1137 -0.2189
19433W        W32847  16.434   1.217   2.467 -0.1497  0.0595 -0.0069
19434W        W32848   0.163   1.852   5.423 -0.0205  0.1178  0.1979
19435W        W32849  12.116  14.542   0.590 -0.1395  0.1590 -0.0913
19436W        W32850   6.987   9.092  10.656 -0.0109 -0.1244 -0.0521
19437W        W32851   5.715  15.338   5.639  0.0777 -0.0178 -0.3463
19438W        W32852   2.932  16.554  14.507 -0.0815  0.3601 -0.2901
19439W        W32853  15.594   5.239   1.648 -0.2957  0.0329  0.4449
19440W        W32854   5.425  17.792   1.771  0.0283  0.3204 -0.0726
19441W        W32855  10.553  10.793   0.256  0.1154  0.0126 -0.0449
19442W        W32856  17.615  13.985   0.280  0.3050  0.0858  0.0721
19443W        W32857  14.304  11.455   0.549  0.0954  0.1552 -0.0813
19444W        W32858  18.193   1.279  14.210  0.0525 -0.2122  0.2367
19445W        W32859  11.714  10.051   1.261 -0.2861 -0.0734  0.0586
19446W        W32860   8.487   8.402  16.001 -0.3548  0.0026 -0.1042
19447W        W32861  10.746  12.994   5.357 -0.0578 -0.0553  0.1087
19448W        W32862   3.738   2.124  15.527 -0.1317  0.0645 -0.0047
19449W        W32863  16.567  16.226  15.599  0.1348  0.1054  0.2977
19450W        W32864  14.631   0.628  14.367  0.0067  0.2833 -0.2435
19451W        W32865   4.143   1.835   4.012 -0.1673  0.0843  0.1233
19452W        W32866   3.423   9.957  11.372 -0.2069  0.0798 -0.2667
19453W        W32867   6.485   9.490   3.953 -0.1171 -0.1268  0.1115
19454W        W32868   1.677   0.764   1.568 -0.0321  0.1119 -0.1669
19455W        W32869   6.102   2.036  16.110 -0.1710 -0.0987  0.0336
19456W        W32870  16.459  10.064   2.866  0.1753 -0.2028 -0.0178
19457W        W32871  15.417  13.345  14.518  0.2651  0.0618 -0.1986
19458W        W32872   9.637   2.579   4.438  0.1443 -0.2778 -0.1051
19459W        W32873   5.879  11.786   3.089 -0.0454 -0.0269 -0.2653
19460W        W32874  13.544   8.936   1.116  0.1638  0.1251  0.0087
19461W        W32875   1.473   9.803  12.649 -0.1470 -0.0825  0.0268
19462W        W32876  17.563  15.424   4.972  0.2780 -0.4863  0.2150
19463W        W32877   3.257  14.200   0.660 -0.3357 -0.1991  0.0215
19464W        W32878  11.294  14.168   6.148  0.1255 -0.0480  0.1801
19465W        W32879  16.231   9.192   4.203 -0.1691  0.4486  0.1549
19466W        W32880  15.542   3.566  13.392 -0.3395  0.1147  0.0909
19467W        W32881   8.216   4.169  14.589 -0.1590  0.2674 -0.0613
19468W        W32882  13.892   2.108   6.047  0.1811 -0.0288 -0.0973
19469W        W32883   9.052  13.576   5.597  0.1682  0.1372 -0.0195
19470W        W32884  15.674  15.980  15.534  0.2974 -0.1093  0.2253
19471W        W32885   8.172  12.692   0.532  0.1431 -0.0889  0.3263
19472W        W32886   7.251   9.754  13.438  0.0273  0.0488 -0.1260
19473W        W32887   9.980  12.265  15.878 -0.0830  0.0807 -0.2863
19474W        W32888  17.345   3.750  10.723  0.3335 -0.2114  0.2777
19475W        W32889   6.500  11.111  12.336 -0.1500  0.1248  0.2600
19476W        W32890   5.394   5.663  15.814  0.1318  0.1206 -0.2035
19477W        W32891   7.572  13.864   3.354 -0.3876  0.0775 -0.0255
19478W        W32892   3.763  10.964  15.349 -0.0808 -0.0022 -0.0373
19479W        W32893  10.759  10.757   2.824 -0.4305 -0.1715  0.1239
19480W        W32894  16.483   4.450  15.197  0.1505  0.3052  0.1478
19481W        W32895  16.371  15.771  14.460 -0.2501  0.0353  0.1463
19482W        W32896  12.834  13.666   3.882 -0.2245 -0.1925 -0.0905
19483W        W32897   6.114  17.236   0.878  0.2117  0.0708  0.1099
19484W        W32898   6.343  17.627   5.326  0.4506 -0.3546 -0.1120
19485W        W32899   8.313  14.714  14.195 -0.0544  0.1424 -0.2184
19486W        W32900   0.843  16.714   1.557  0.0328 -0.3863 -0.1384
19487W        W32901   2.825  10.215  14.178 -0.2205 -0.3055 -0.1095
19488W        W32902   8.544   1.731  11.737  0.0981 -0.0266  0.2343
19489W        W32903  13.407   9.855  15.806  0.0910  0.2885 -0.1429
19490W        W32904   6.901  11.243   2.134  0.1276 -0.3902  0.0323
19491W        W32905  11.564   2.602   3.094 -0.4638  0.6162  0.0970
19492W        W32906   1.348   6.922  13.895 -0.0388  0.1746  0.1284
19493W        W32907   2.694   0.981   1.481 -0.1784  0.1325 -0.1153
19494W        W32908   6.387   8.897   2.491  0.0006  0.1844  0.0591
19495W        W32909   5.788   8.667   6.244 -0.0192 -0.1195 -0.0388
19496W        W32910   4.496   2.779  13.830  0.3410 -0.0644  0.0366
19497W        W32911   1.132  12.706  12.061  0.1135  0.0319  0.0012
19498W        W32912   2.755  13.617   4.688 -0.0197 -0.2284 -0.2109
19499W        W32913  12.210   6.165  12.024 -0.1036 -0.0137 -0.0520
19500W        W32914   1.669  14.373  12.093  0.0381 -0.2308 -0.2638
19501W        W32915  10.418   5.764   0.947 -0.2697  0.0529 -0.1646
19502W        W32916  16.831   3.107  15.614 -0.0072 -0.2057 -0.2234
19503W        W32917  13.543  12.036  13.450  0.1818  0.3181  0.1354
19504W        W32918   9.475   3.896   1.520 -0.4130 -0.0675  0.1583
19505W        W32919   5.108  17.001   4.206 -0.3815 -0.0198  0.0108
19506W        W32920  18.050   2.563  11.091 -0.2280  0.1329 -0.4628
19507W        W32921   3.675   7.460  11.784  0.3594 -0.3531 -0.1321
19508W        W32922   7.234   8.492   2.476  0.0176  0.1707 -0.1532
19509W        W32923   2.443   8.348  12.432 -0.2584  0.1360  0.3315
19510W        W32924   4.670   2.913  15.964 -0.0918  0.2640  0.0460
19511W        W32925  12.255  16.903   4.503  0.0752  0.0074  0.0888
19512W        W32926   2.051  12.811   6.758  0.1269  0.0456 -0.0448
19513W        W32927   5.499   1.694   1.613  0.0194 -0.0179  0.0610
19514W        W32928   6.245   9.881  15.754  0.0393  0.1619 -0.1593
19515W        W32929  12.491   5.687  15.477 -0.0526  0.2090  0.3615
19516W        W32930   0.884   4.908   5.297 -0.1026  0.1916  0.0762
19517W        W32931   4.351   0.301   2.697 -0.2854  0.0226 -0.0813
19518W        W32932  14.870  15.207  14.757 -0.2893 -0.1040 -0.3293
19519W        W32933  17.095   9.365  13.797 -0.1087 -0.2585  0.0063
19520W        W32934  14.802   6.059  11.048  0.2450 -0.0394 -0.0350
19521W        W32935   4.466   9.483   0.754  0.0107  0.0486  0.1846
19522W        W32936  17.421   3.765  12.647  0.1057 -0.1440 -0.1575
19523W        W32937   9.890  17.734   3.952  0.1458 -0.2531  0.0519
19524W        W32938   2.384  16.505  12.264  0.2299  0.4050  0.2768
19525W        W32939   2.248  17.023   5.815  0.1746 -0.0902  0.0423
19526W        W32940   4.472   0.105   4.462 -0.2276  0.3347  0.3589
19527W        W32941   9.634  16.874   2.738  0.1068  0.2171  0.0211
19528W        W32942   9.951  13.549  16.543 -0.4682  0.1825  0.0501
19529W        W32943  13.913  12.252   0.532 -0.0136 -0.2775  0.1491
19530W        W32944  12.992  17.470  11.904 -0.0558  0.2137 -0.3189
19531W        W32945  13.266   9.122  12.358  0.2951  0.1746  0.0267
19532W        W32946   7.644   6.345   4.903  0.2289 -0.0736  0.0837
19533W        W32947   4.695   6.069   0.189 -0.2723 -0.3072 -0.1985
19534W        W32948  17.600  11.638   0.885  0.0257 -0.1292  0.2151
19535W        W32949   3.890   6.267   2.258  0.3582 -0.2398  0.2108
19536W        W32950  16.726  15.334  12.319  0.3568 -0.0586 -0.0354
19537W        W32951  17.862   7.794  14.904 -0.1480  0.0001  0.1560
19538W        W32952  10.862  14.010   4.034  0.2682 -0.0980  0.2408
19539W        W32953   9.946  18.231   6.101  0.0121 -0.4653 -0.1018
19540W        W32954  15.545   0.951   1.888  0.1185  0.2599 -0.1228
19541W        W32955  10.421   8.371  15.009  0.0048  0.0877 -0.0393
19542W        W32956  17.855  10.804  16.390 -0.1772 -0.3857  0.0046
19543W        W32957  14.240  12.166  15.788  0.1679 -0.0943  0.2643
19544W        W32958   3.446   7.452  11.339  0.0302  0.2044  0.1616
19545W        W32959   7.620   0.463  15.475 -0.0609 -0.4097  0.0144
19546W        W32960   3.900   1.854  14.980  0.4432  0.0226 -0.0586
19547W        W32961  17.740   2.359   2.059 -0.0149  0.0403 -0.0434
19548W        W32962   8.880   8.099   1.105 -0.0833  0.1650 -0.4561
19549W        W32963   4.475  16.443  16.490  0.3596  0.0314 -0.1325
19550W        W32964   7.857   3.844  10.979  0.1255 -0.1949 -0.1249
19551W        W32965  12.230  13.898   5.123 -0.2868 -0.2123 -0.2293
19552W        W32966  10.316   4.385   0.482 -0.0614 -0.1105 -0.2541
19553W        W32967  13.760  14.557   3.431  0.2491  0.0756 -0.1036
19554W        W32968  15.332  12.901   4.636 -0.2331  0.2113  0.1830
19555W        W32969  13.919   7.164   0.770  0.1164 -0.1461 -0.0595
19556W        W32970   4.400  17.726   0.019 -0.1745 -0.0216  0.1672
19557W        W32971   2.616   8.782  14.699 -0.3086 -0.0714 -0.0051
19558W        W32972   3.016   4.208  12.210  0.1755  0.0853 -0.1654
19559W        W32973   2.670  12.945   4.157 -0.0869  0.1671 -0.5743
19560W        W32974  15.624   5.128   5.510  0.1067  0.3053  0.3701
19561W        W32975  11.193  11.258   0.695 -0.1982  0.2178  0.1447
19562W        W32976   9.364  15.032   4.088  0.0381 -0.0846 -0.2083
19563W        W32977   8.504  16.401   5.157  0.1500 -0.2623 -0.2821
19564W        W32978  14.065   9.527   2.356 -0.0936  0.2709 -0.0201
19565W        W32979  16.603   6.705   0.047 -0.2036  0.0118  0.0592
19566W        W32980  13.031  13.305   6.800 -0.2440  0.1317 -0.1635
19567W        W32981  11.745  14.405  11.336  0.0815  0.0904  0.4652
19568W        W32982  17.922   4.238  13.219  0.2095 -0.1123  0.1809
19569W        W32983  11.960  15.573  14.120 -0.1317  0.0121  0.0574
19570W        W32984  10.712  18.136   3.994  0.0857 -0.1629 -0.1562
19571W        W32985   0.528  17.035   1.263 -0.1264  0.1190 -0.0352
19572W        W32986   6.020  12.451   5.400 -0.1092 -0.0216 -0.2520
19573W        W32987   7.929  12.725  10.175 -0.0814  0.2356  0.1390
19574W        W32988   2.814   7.602  12.139 -0.1314 -0.1392 -0.0515
19575W        W32989   5.334  16.389  12.872  0.0373  0.3244 -0.0336
19576W        W32990  15.290   3.873  12.874 -0.1562 -0.3672 -0.1106
19577W        W32991  16.352  17.397   4.835 -0.0894 -0.2985 -0.1418
19578W        W32992   6.695   9.699   2.926  0.0867 -0.2187 -0.0663
19579W        W32993   3.916   8.000  13.713  0.3297 -0.0552  0.0543
19580W        W32994   9.458   0.021  11.365 -0.1507 -0.0408 -0.4609
19581W        W32995   6.427   8.369  11.241 -0.1870 -0.1175  0.0836
19582W        W32996   4.829   3.641   0.116  0.1990  0.0112  0.0135
19583W        W32997  16.691   6.486   2.705  0.1018 -0.0683 -0.1739
19584W        W32998   3.814   5.819  16.207  0.0722 -0.2230  0.0825
19585W        W32999   1.899   6.216   0.067  0.0442 -0.1211 -0.0926
19586W        W33000  12.676   4.702  13.800 -0.1003  0.1724  0.2414
19587W        W33001   1.220   8.325   0.277 -0.3303  0.0053 -0.2164
19588W        W33002  13.949   5.026   4.280 -0.1879 -0.5660 -0.2116
19589W        W33003  11.160  16.634  16.146  0.1327  0.4709  0.0449
19590W        W33004   4.704   5.299   3.696  0.1223 -0.0461 -0.2014
19591W        W33005   1.052   7.562   9.911  0.1424 -0.0010  0.0950
19592W        W33006  15.511  11.925  13.686 -0.1110  0.1246  0.0832
19593W        W33007  10.692   7.034   5.014  0.0236 -0.0596 -0.3067
19594W        W33008   9.689   6.912  13.135 -0.3652  0.0336 -0.3544
19595W        W33009  17.437   3.857  14.618  0.2461 -0.3444 -0.0090
19596W        W33010  16.820   5.404  14.151 -0.1030 -0.0218  0.0864
19597W        W33011   1.615   7.109  16.471  0.1769  0.4892  0.0603
19598W        W33012   4.652  13.408   1.099 -0.1467 -0.0354 -0.0212
19599W        W33013  13.686  11.004  13.618 -0.0177 -0.1108 -0.3160
19600W        W33014  13.702  11.395  15.765 -0.0902  0.1966 -0.2549
19601W        W33015  16.234  11.018  13.055 -0.2778  0.1515 -0.1758
19602W        W33016   4.565   4.415  10.974  0.0772  0.1640  0.3096
19603W        W33017   9.677   9.808  12.369  0.0933  0.0133 -0.2534
19604W        W33018   9.954   8.794   4.267 -0.1168  0.2345  0.3189
19605W        W33019   6.340   2.813  10.743  0.0580  0.1936 -0.1727
19606W        W33020   2.482  17.793   6.351  0.0589 -0.1464  0.1828
19607W        W33021   1.205  15.552   4.865  0.0726 -0.0142 -0.1012
19608W        W33022   6.021  11.185   4.354  0.2227  0.2290 -0.1340
19609W        W33023  14.544   3.853  14.224  0.0563 -0.0034 -0.0887
19610W        W33024  16.490   5.556   5.210  0.1391  0.2484 -0.5347
19611W        W33025  18.164   5.632  12.270  0.0657  0.2396  0.4298
19612W        W33026  17.674   7.768   4.512 -0.0503 -0.1860  0.0820
19613W        W33027   1.412   4.210   0.131  0.2135 -0.2083 -0.1265
19614W        W33028  12.363   0.182  15.669  0.2846  0.0214 -0.1922
19615W        W33029   9.132  17.855   1.433 -0.1868  0.1721  0.4292
19616W        W33030   3.300  16.531   1.103 -0.4179 -0.0277  0.1851
19617W        W33031   8.874   1.847   0.817 -0.4118  0.0650  0.0104
19618W        W33032   3.574   5.589  13.661 -0.0270 -0.1442  0.2098
19619W        W33033   0.642   1.888  10.622 -0.1800 -0.1027  0.1330
19620W        W33034   5.633  11.427   0.488  0.0364 -0.1712 -0.0298
19621W        W33035   7.972   6.319  14.123 -0.1876 -0.1331 -0.0984
19622W        W33036  13.730  14.709  13.916  0.0630 -0.2602  0.1291
19623W        W33037  15.376  13.831   0.109  0.0406 -0.0775  0.0583
19624W        W33038   0.023  14.675  13.607 -0.1784 -0.1679 -0.2144
19625W        W33039  11.829   3.858   6.191 -0.0043 -0.1013  0.3564
19626W        W33040   3.932   8.414   0.985 -0.1942  0.0921  0.1111
19627W        W33041   9.975   6.837  15.592  0.1354  0.0863 -0.1011
19628W        W33042  17.568   0.198   5.467 -0.0587 -0.0682  0.1428
19629W        W33043  15.106  10.312  12.043 -0.3739  0.1616  0.3040
19630W        W33044   8.829  12.274   1.027 -0.0673  0.1076 -0.0370
19631W        W33045   8.120  17.823   3.119 -0.3043 -0.3418  0.4093
19632W        W33046  13.114   3.182   5.461 -0.2645  0.0388  0.1458
19633W        W33047   0.281   7.560   3.795  0.1765 -0.0383 -0.1310
19634W        W33048   0.652   8.015  14.761  0.1610 -0.1006 -0.2291
19635W        W33049   6.812   1.666  14.890  0.0174 -0.0567 -0.0441
19636W        W33050  10.628  12.196   0.025  0.1046  0.3139  0.1498
19637W        W33051  12.711   3.267   3.324  0.0389 -0.0924  0.1202
19638W        W33052   3.487  11.936   5.017 -0.0521  0.3161 -0.0658
19639W        W33053  18.021   6.999   1.181  0.0938  0.3621  0.1027
19640W        W33054  12.779  14.656   5.299 -0.1718 -0.4663 -0.3134
19641W        W33055   1.136  17.762   1.446  0.1889  0.0270 -0.1135
19642W        W33056  13.978  16.058  16.223 -0.0390  0.0923 -0.1830
19643W        W33057  13.045   6.669   3.151  0.0045 -0.0780 -0.2212
19644W        W33058   5.960   2.380  11.962 -0.1639  0.0078  0.1039
19645W        W33059   1.177  17.637  16.191  0.0468  0.1929  0.2607
19646W        W33060  10.297   6.266   4.900  0.0115  0.2078 -0.0386
19647W        W33061  11.046  13.358  10.826 -0.2640  0.0634  0.3101
19648W        W33062  16.617   1.698  14.927  0.0234 -0.2999  0.1858
19649W        W33063  13.966   4.177   0.679  0.1195  0.1217  0.3408
19650W        W33064  15.762  16.375   1.620 -0.3308 -0.0589  0.0116
19651W        W33065   7.719  14.561   4.933 -0.6288 -0.0535  0.0845
19652W        W33066  11.823  11.194  10.740 -0.3515  0.0062  0.2959
19653W        W33067  17.093  16.913   3.892 -0.0144 -0.0460 -0.1762
19654W        W33068   9.641  13.144  10.730 -0.2317  0.3213 -0.1925
19655W        W33069  17.825   2.194   5.726  0.3321 -0.1450 -0.0101
19656W        W33070  15.727   3.427   1.104 -0.1455  0.3731  0.0348
19657W        W33071   2.727   5.225  13.672 -0.1011  0.0572  0.1475
19658W        W33072   9.259  17.699  14.018  0.3465  0.1194 -0.1294
19659W        W33073  15.716   7.189   4.197 -0.1792  0.0441 -0.0379
19660W        W33074   7.994   7.894   6.015 -0.1339 -0.1140  0.0524
19661W        W33075  12.983   9.670   0.429  0.1508  0.0048 -0.1055
19662W        W33076  15.451  16.749  11.676 -0.2170 -0.0444 -0.2715
19663W        W33077  16.818   4.666   4.068  0.2521  0.0748  0.1614
19664W        W33078   6.105   8.060  14.000 -0.0090 -0.4031  0.0394
19665W        W33079   8.538   7.252   2.044  0.0779  0.0333  0.0948
19666W        W33080   4.933   3.946   1.048 -0.0523 -0.2517 -0.3312
19667W        W33081   2.310  11.707  11.421 -0.2065  0.1538  0.0318
19668W        W33082   2.886  17.988   3.103  0.1597  0.1581 -0.2405
19669W        W33083  11.251   3.083  13.659  0.3652 -0.0699 -0.0818
19670W        W33084  12.979  10.239  15.584 -0.1934  0.2107 -0.4324
19671W        W33085   4.335   9.678  13.550 -0.0157  0.2360 -0.1682
19672W        W33086   6.471   0.297   5.305  0.3183  0.0674 -0.1159
19673W        W33087  14.559   8.688  13.211 -0.1607  0.1408  0.3631
19674W        W33088   7.007  12.722   1.576  0.1203 -0.0543  0.3395
19675W        W33089  10.504   2.858  16.081  0.1642  0.0174  0.0399
19676W        W33090  18.235   2.710  16.309  0.2162 -0.5067 -0.2925
19677W        W33091  10.148   3.405  12.732 -0.4898  0.0009  0.1375
19678W        W33092   5.726  14.575  12.531  0.0941  0.1088  0.0500
19679W        W33093  13.126  10.998   1.867  0.4097  0.0098  0.0396
19680W        W33094   8.920  11.142   4.134 -0.2289 -0.1198 -0.1494
19681W        W33095  12.344  14.689  12.621 -0.3505 -0.0244  0.0062
19682W        W33096   3.144  17.386   3.782 -0.0715  0.0115 -0.2014
19683W        W33097  12.366  11.941  10.391  0.2618  0.2370  0.0017
19684W        W33098   2.535  15.282  14.669  0.1195 -0.0249 -0.0513
19685W        W33099  18.282   0.098  10.791  0.1548  0.0384 -0.2650
19686W        W33100   9.217   1.707   0.501 -0.3594 -0.0710  0.1200
19687W        W33101   5.355   8.823  12.734  0.2222 -0.4799  0.0118
19688W        W33102   3.447   9.410  10.229  0.0679  0.2184  0.0267
19689W        W33103  16.715  10.055   0.042 -0.1119  0.0396  0.1132
19690W        W33104   2.803   3.848   1.953 -0.0675  0.1295 -0.0426
19691W        W33105  16.876   6.624  11.054 -0.2144  0.1830 -0.2961
19692W        W33106   5.795   5.580   2.985  0.2195  0.1864 -0.3537
19693W        W33107   8.800  17.781  13.260  0.0779  0.0346 -0.1752
19694W        W33108   3.232   6.551   2.328  0.1520 -0.2296  0.1560
19695W        W33109   9.510   0.824   5.869  0.0785  0.0647 -0.1310
19696W        W33110   0.787  17.022   4.748 -0.0114  0.0982 -0.1265
19697W        W33111   3.993  14.329   0.940 -0.4532 -0.0893 -0.2795
19698W        W33112   8.605   5.376  11.479  0.0004 -0.0945 -0.0609
19699W        W33113   5.059   0.376  11.005 -0.2346  0.1948  0.3901
19700W        W33114  13.217  17.509   4.196  0.0629 -0.4038  0.1112
19701W        W33115  15.944  17.927  13.992  0.0740  0.2113 -0.1737
19702W        W33116   2.101   3.068  13.365  0.2615 -0.1449  0.2495
19703W        W33117   3.104  12.348   2.599  0.0432 -0.1875 -0.0935
19704W        W33118   8.863  11.117   5.267 -0.2838  0.0280 -0.2546
19705W        W33119  11.508   0.755   0.778  0.1062  0.1382  0.1377
19706W        W33120   4.684   5.833   3.679 -0.1507 -0.1383 -0.0150
19707W        W33121  16.214   0.735  15.024  0.1254 -0.0953  0.0134
19708W        W33122  13.893   4.997   0.659 -0.2200  0.1236  0.0076
19709W        W33123   1.957   3.148   2.900  0.1248 -0.0772 -0.0556
19710W        W33124  13.711   8.077   1.856 -0.0450  0.2341 -0.0491
19711W        W33125   4.974   7.978   5.050  0.1497  0.3887  0.1080
19712W        W33126   4.238  15.190  15.414  0.2084  0.2888 -0.2723
19713W        W33127  11.887   1.881   3.767 -0.0173 -0.1548  0.1668
19714W        W33128  12.135   1.755  12.331  0.3019 -0.1032 -0.2859
19715W        W33129  17.592   2.374  15.572 -0.1667 -0.2304 -0.3458
19716W        W33130  11.582   3.778  14.511 -0.1839 -0.2092 -0.3880
19717W        W33131   1.725   4.406  12.182  0.1145 -0.0017 -0.0551
19718W        W33132   2.101   4.919   5.133  0.0976 -0.1215 -0.2199
19719W        W33133  12.796   5.255   0.126 -0.0080  0.1122  0.0035
19720W        W33134   8.890   9.610   3.051 -0.0343 -0.2840  0.0861
19721W        W33135   5.083   1.221  14.569  0.1580 -0.1156  0.0303
19722W        W33136  13.425  15.664  12.741 -0.1444  0.2935 -0.0024
19723W        W33137   7.008   6.158   3.794 -0.0984 -0.0915 -0.0562
19724W        W33138   1.639   8.060  11.192 -0.1699 -0.0312  0.0882
19725W        W33139  16.673   3.064   4.874 -0.0048 -0.0404  0.0306
19726W        W33140  11.628   4.819  13.708 -0.1282  0.2962 -0.1256
19727W        W33141  12.156  10.007  15.864  0.1574  0.1261 -0.0008
19728W        W33142   6.572  12.535   1.782 -0.1257 -0.0047  0.1125
19729W        W33143  11.514   8.497   2.311  0.1681  0.1645  0.1581
19730W        W33144  10.246   8.307   5.450  0.1116 -0.0614  0.0294
19731W        W33145  14.686  17.443  16.025  0.2343  0.2465  0.1018
19732W        W33146  14.209   0.192  11.393 -0.0652  0.1386 -0.2283
19733W        W33147   5.982   2.755   5.153 -0.1565 -0.3152  0.4734
19734W        W33148   8.183   6.522  16.403  0.0763  0.0577  0.0293
19735W        W33149   7.297   9.745   2.297 -0.0283 -0.0757  0.0378
19736W        W33150  13.034   8.391  12.025 -0.0687  0.1090  0.0213
19737W        W33151   6.121   2.114   3.550  0.2184 -0.1696 -0.0806
19738W        W33152  13.923  14.171   5.713  0.0702 -0.0649 -0.0213
19739W        W33153  13.656   3.251   0.246  0.1809  0.1106 -0.1098
19740W        W33154   2.748  10.300   1.541  0.3353 -0.1852  0.0929
19741W        W33155  10.598   7.554  10.200  0.3908  0.1397  0.0005
19742W        W33156   8.501   2.081   1.656 -0.2516 -0.1029  0.0543
19743W        W33157  10.397  14.947   5.287  0.1971  0.0529  0.0318
19744W        W33158   3.909   4.619   4.424 -0.0782 -0.1355 -0.0217
19745W        W33159   9.508   5.173  15.116 -0.0194  0.0552  0.1226
19746W        W33160   9.995  16.004  13.057 -0.0101 -0.3025  0.0235
19747W        W33161  12.129  13.151   1.629  0.2552  0.1005  0.2241
19748W        W33162   9.170  13.004  12.660  0.2469  0.0424  0.1438
19749W        W33163   7.935  16.509  10.766  0.1989  0.3446 -0.0623
19750W        W33164  14.769  17.694  11.892 -0.0629  0.0432  0.0782
19751W        W33165   5.881   5.254   2.452  0.0560  0.0082 -0.0624
19752W        W33166  16.690   9.986  10.000 -0.2269 -0.2116  0.2694
19753W        W33167  12.182  17.367   0.300  0.2036 -0.0609  0.0535
19754W        W33168  15.110   4.696  16.202  0.2334 -0.0520 -0.0118
19755W        W33169   3.093  15.258  15.116 -0.1802  0.0756  0.0095
19756W        W33170  10.887   6.504   3.914  0.0195 -0.2352 -0.1553
19757W        W33171  11.901  17.335  16.198 -0.0298 -0.0324 -0.4136
19758W        W33172   3.437   7.438   1.584  0.4811 -0.0956  0.2344
19759W        W33173  17.964  11.526  11.960  0.4624  0.0121  0.0346
19760W        W33174   4.218   5.723  10.413 -0.0006  0.2400  0.0985
19761W        W33175  15.668  11.758   2.489 -0.0280  0.1857 -0.1169
19762W        W33176   9.953  15.869  15.484  0.1681  0.0564 -0.0641
19763W        W33177  15.379  10.894   5.841  0.0500 -0.3050 -0.1187
19764W        W33178  13.192  12.555  16.145 -0.0804  0.0553 -0.0320
19765W        W33179  14.397  17.536  11.443  0.0041  0.2599 -0.1369
19766W        W33180   3.178  15.175  15.652  0.0848  0.1744  0.1589
19767W        W33181  15.750  10.922  11.437 -0.3881 -0.1930  0.1315
19768W        W33182  15.830  10.035  14.596 -0.2037  0.3136  0.1423
19769W        W33183  10.020   2.534   1.118  0.1844 -0.3464 -0.4497
19770W        W33184  14.200  16.793   3.190 -0.2957 -0.0675  0.2548
19771W        W33185   7.513  10.394  11.514  0.1779 -0.3809 -0.1527
19772W        W33186  17.791  14.640  15.677  0.1243  0.1052 -0.2012
19773W        W33187  14.069  11.462   1.027 -0.1143 -0.4382  0.2330
19774W        W33188  10.802  11.028   5.517  0.1496  0.1214  0.1998
19775W        W33189  10.375   0.509  16.294  0.0283 -0.0743 -0.2261
19776W        W33190  13.192  15.820   2.796  0.1719  0.0288 -0.0238
19777W        W33191   2.635   1.076   3.523 -0.2743  0.1995  0.1638
19778W        W33192   4.926   0.176   0.414 -0.0337 -0.0151 -0.0637
19779W        W33193   9.685   3.886   0.105 -0.0870 -0.0798  0.1053
19780W        W33194   8.504   3.705   4.568  0.0130  0.0234  0.0547
19781W        W33195   7.032  12.811  13.859  0.0925  0.2487  0.3696
19782W        W33196  14.398   5.557  10.354  0.0788 -0.3555  0.0699
19783W        W33197   8.530   4.325  15.343  0.3030 -0.0468  0.0491
19784W        W33198  11.035   3.635  15.741  0.0041  0.0630  0.5348
19785W        W33199  14.334  14.381   0.323  0.2002  0.3360  0.4095
19786W        W33200   5.893   6.527  11.446 -0.1826  0.1263  0.2021
19787W        W33201  12.678   0.576  12.022  0.4824  0.2558  0.2537
19788W        W33202   1.551  15.462  15.476  0.0351  0.1005 -0.0077
19789W        W33203   9.081   7.089  14.961  0.0045 -0.1861 -0.1589
19790W        W33204  11.959   9.305   0.697 -0.0468 -0.2020  0.2343
19791W        W33205  12.157  17.915   0.304  0.0907  0.3659 -0.0983
19792W        W33206   4.868  15.582   1.729 -0.1097  0.5658 -0.1001
19793W        W33207  15.641  15.378   4.672  0.1733 -0.0326 -0.1177
19794W        W33208   8.132  13.915   1.957  0.1870  0.2445  0.0752
19795W        W33209  16.205  12.067   6.811 -0.0413  0.1514 -0.0612
19796W        W33210   4.545   8.007  10.724 -0.0743  0.0935 -0.0872
19797W        W33211  10.587  11.318  14.611  0.0342 -0.1124 -0.0374
19798W        W33212   7.886  11.915   3.392 -0.4136 -0.1243  0.0102
19799W        W33213   8.989  12.940  14.069  0.1598  0.1748  0.2994
19800W        W33214   8.393   6.726   0.361  0.0318  0.3012 -0.1198
19801W        W33215   6.500  12.249  12.531 -0.0954  0.1093 -0.0003
19802W        W33216   9.547  13.430   1.838  0.1736 -0.1253  0.2348
19803W        W33217   8.391   1.744   3.429  0.0518 -0.0157 -0.0325
19804W        W33218   4.139   2.123  13.507  0.0386  0.3507  0.2146
19805W        W33219   8.508  16.685  15.572 -0.0193 -0.0663 -0.1203
19806W        W33220   3.181  14.374  13.902  0.1542 -0.0331 -0.0213
19807W        W33221  10.064  17.126  11.654  0.2057  0.0191  0.1193
19808W        W33222   5.153  16.390  15.792  0.0733 -0.0130  0.3094
19809W        W33223  17.907   1.507   5.048  0.0291 -0.0610 -0.0582
19810W        W33224  12.609  10.710   2.251  0.4187 -0.1747 -0.1247
19811W        W33225  12.469   3.645  13.498 -0.1113  0.0801 -0.1489
19812W        W33226  13.911   4.896   9.837  0.2247  0.3051  0.0897
19813W        W33227   5.151  14.111   1.045  0.1366 -0.2035  0.0542
19814W        W33228  13.428  14.254   4.290 -0.0977 -0.1327  0.1223
19815W        W33229  18.155  10.625   4.017  0.1395 -0.1420 -0.0426
19816W        W33230  11.650   3.582  12.415  0.1045 -0.0745 -0.0460
19817W        W33231   2.951   4.998  15.441  0.4759 -0.0489  0.1966
19818W        W33232  10.219  12.546   6.222 -0.1448  0.1123 -0.2021
19819W        W33233  18.250   2.431  14.937 -0.1555  0.1216 -0.2610
19820W        W33234   7.305  11.781   0.104 -0.2112 -0.1810  0.1780
19821W        W33235   0.820  12.166   5.665 -0.2949 -0.2204 -0.3006
19822W        W33236  13.944   9.380  12.754 -0.0333 -0.1077 -0.1346
19823W        W33237   8.284  18.065   2.684  0.2314  0.1320  0.0369
19824W        W33238  14.140   0.584   2.106  0.2808 -0.2553  0.0071
19825W        W33239   7.792   4.522  14.682 -0.2774  0.0696  0.0149
19826W        W33240   3.988  11.728   2.988  0.1016 -0.0551 -0.2467
19827W        W33241  12.452   2.108   2.458 -0.1467 -0.3155 -0.2146
19828W        W33242   6.373  17.136   5.519  0.1079 -0.2370  0.0669
19829W        W33243   4.049  11.519   0.668 -0.1520  0.0371  0.0882
19830W        W33244  10.947   6.677   3.346  0.0951  0.0232 -0.1159
19831W        W33245  11.029  15.764  12.893  0.0719 -0.4233  0.0139
19832W        W33246   1.880   5.272   3.126  0.3898 -0.2171  0.2176
19833W        W33247  10.890  11.189  15.512 -0.0287  0.0226  0.0430
19834W        W33248  17.330   0.199  12.615 -0.2675  0.1563 -0.1307
19835W        W33249   7.306  16.273   3.291 -0.1357  0.3112  0.3343
19836W        W33250   6.475  14.976   3.226  0.6380 -0.1461 -0.1795
19837W        W33251   6.260   0.895  14.710 -0.0633 -0.1698  0.1104
19838W        W33252  10.287   0.149  13.448  0.1663 -0.1547  0.0306
19839W        W33253   7.885   4.459  11.513  0.1866  0.2234  0.1997
19840W        W33254  16.298   3.017  15.534 -0.6346  0.1656 -0.0674
19841W        W33255  10.402   3.109  12.284 -0.0244  0.2511  0.0375
19842W        W33256  10.497  13.830   1.010  0.1359  0.0670 -0.0004
19843W        W33257   8.387   1.277   6.917  0.0248 -0.3642  0.3536
19844W        W33258  10.176  13.197  11.089  0.0653  0.1490 -0.1733
19845W        W33259   6.040   7.362   5.182 -0.0260 -0.1488 -0.3448
19846W        W33260   5.310   1.806   1.135  0.1048 -0.2487 -0.2252
19847W        W33261   3.039  11.639  11.004  0.1570 -0.2988 -0.2084
19848W        W33262  14.090  11.301   3.147  0.0626  0.0441  0.0054
19849W        W33263   0.135   1.767  16.146 -0.1341  0.2391 -0.1276
19850W        W33264   6.724  18.154   3.908 -0.2691  0.2043  0.1798
19851W        W33265  12.309   0.748   2.724 -0.0165 -0.1790 -0.1031
19852W        W33266  11.521   3.684   5.230 -0.0756  0.2174  0.1469
19853W        W33267  10.087  17.851   1.653 -0.0924  0.0138  0.0503
19854W        W33268   0.693   2.749  13.713 -0.0926 -0.0982 -0.0128
19855W        W33269   4.133   7.479   3.538 -0.2805 -0.0893  0.1372
19856W        W33270   6.526   9.026   1.463  0.0016 -0.0419 -0.2840
19857W        W33271   5.798   5.388  16.051  0.2686  0.1185 -0.0236
19858W        W33272  13.835   5.535   0.654  0.1045 -0.0774  0.0617
19859W        W33273  12.026   9.907  10.273 -0.4286 -0.2703  0.0092
19860W        W33274   6.941   5.067  15.487  0.0577 -0.2169 -0.2074
19861W        W33275   4.585  13.620  12.120  0.0251 -0.1793  0.4732
19862W        W33276   0.661  16.158   1.633 -0.1076 -0.0331  0.0647
19863W        W33277   4.003  16.779  15.162  0.1338 -0.1899 -0.0405
19864W        W33278   8.950   6.111   0.026  0.0310 -0.1732 -0.0132
19865W        W33279   0.456   4.856   2.305 -0.2976 -0.0351 -0.1638
19866W        W33280   2.359   3.418   5.183  0.0092 -0.0417 -0.1766
19867W        W33281  18.132  14.409   2.382 -0.0064  0.2710  0.1767
19868W        W33282  14.038  11.921  13.479 -0.4760 -0.2403  0.2131
19869W        W33283   7.102  12.524   0.518  0.2087  0.0708  0.0722
19870W        W33284   8.499   0.882  11.794  0.0653 -0.1839 -0.3350
19871W        W33285  10.642   3.632  11.469  0.0826 -0.1803 -0.2588
19872W        W33286  16.797   3.363   1.311 -0.1170  0.2382 -0.3913
19873W        W33287  16.272  10.270  16.490 -0.2945  0.1630  0.1996
19874W        W33288  16.763   5.572   1.831 -0.0448 -0.3140 -0.0840
19875W        W33289  12.232  13.824  16.442  0.4223 -0.1883 -0.2712
19876W        W33290  16.727   8.333  14.441  0.4231  0.0119 -0.2708
19877W        W33291   0.784  15.409   2.318 -0.0955 -0.0715  0.0278
19878W        W33292   1.392  12.450  15.689  0.0331  0.0436 -0.2309
19879W        W33293   6.203   8.551   2.172 -0.3484  0.2414 -0.0054
19880W        W33294   7.239  18.191   0.456 -0.1725 -0.2491 -0.0879
19881W        W33295   0.101  11.464   0.363 -0.1495 -0.1442 -0.1565
19882W        W33296   7.179   6.797   5.574  0.1845  0.1696 -0.0774
19883W        W33297   3.097   7.794   1.839 -0.2694 -0.0218 -0.3127
19884W        W33298   3.147   2.551   3.410 -0.3526  0.0871 -0.0252
19885W        W33299  16.077   1.216  15.861 -0.0766  0.0366  0.2984
19886W        W33300   0.733   8.548  11.587 -0.0507 -0.0628 -0.1262
19887W        W33301  12.092   2.100   3.063 -0.0208  0.3546 -0.3201
19888W        W33302  10.135   1.963  13.469  0.1731  0.0824  0.1594
19889W        W33303   5.325  16.333  13.806 -0.2247 -0.0465  0.2481
19890W        W33304  15.232  18.116  14.439 -0.2331 -0.1967  0.2466
19891W        W33305   3.446   5.851  12.026 -0.1542 -0.3636 -0.2865
19892W        W33306   3.404   0.418   2.746 -0.1007  0.1689 -0.0374
19893W        W33307  15.752   4.150  15.560 -0.2562 -0.0383 -0.2653
19894W        W33308  10.455  14.028  14.999  0.1751  0.1322  0.2214
19895W        W33309   2.085   5.896   4.524  0.0229 -0.1496  0.2486
19896W        W33310   9.181  16.144  12.571  0.0981  0.2850 -0.0151
19897W        W33311   5.700  11.781   4.928 -0.1907 -0.0182  0.3605
19898W        W33312   7.110   4.334  16.244 -0.0922 -0.0748 -0.3267
19899W        W33313   2.396   8.506   3.193 -0.2302 -0.1046  0.3499
19900W        W33314   8.592  10.034   3.077 -0.0296  0.2541 -0.0434
19901W        W33315   2.863   1.267  14.700  0.0041 -0.2211  0.0805
19902W        W33316   9.101   0.651  15.463 -0.0673 -0.2714  0.0541
19903W        W33317  14.035  17.076  10.939 -0.0236  0.1866  0.2370
19904W        W33318  15.016  11.471  14.277 -0.0644  0.2699 -0.0225
19905W        W33319   0.417   6.762  16.519 -0.0673  0.2285  0.1160
19906W        W33320  13.512  17.828  11.139 -0.0337  0.1262 -0.0205
19907W        W33321   9.791  13.649   3.530  0.0697  0.3539  0.0703
19908W        W33322  16.461  17.842  13.370 -0.0580  0.0840 -0.0588
19909W        W33323   4.134  14.326   4.410  0.0524 -0.0268  0.0366
19910W        W33324   0.925   2.287   2.431 -0.0462  0.0644  0.1041
19911W        W33325  10.626  17.948  14.416 -0.3031 -0.2198  0.0059
19912W        W33326   7.469   7.093   1.548 -0.2885  0.1269  0.0045
19913W        W33327   9.424   7.202  10.681 -0.0017 -0.1813  0.1120
19914W        W33328   9.579  15.894   2.203  0.4519  0.0022  0.0683
19915W        W33329   8.489   8.314   0.709  0.0495  0.0212 -0.1804
19916W        W33330   3.991   3.787   4.708 -0.1176  0.2266 -0.1555
19917W        W33331   9.882   5.023   6.071  0.0497  0.2769 -0.0230
19918W        W33332  11.088  14.467   4.157 -0.1242 -0.0885  0.0217
19919W        W33333   5.548   8.717   1.626 -0.0060  0.3016 -0.0092
19920W        W33334  16.017  16.094   2.258  0.1684  0.1463  0.0170
19921W        W33335   0.328  16.743  12.908 -0.2397  0.1642  0.0407
19922W        W33336  12.546  16.905  15.712  0.0117 -0.1704  0.1021
19923W        W33337   0.980   3.886  13.565  0.0190 -0.0914  0.3079
19924W        W33338  12.427   1.456  13.014  0.0926 -0.0858  0.0865
19925W        W33339   5.527   5.204   5.588 -0.0617  0.1642 -0.1121
19926W        W33340  10.938  10.908  14.406 -0.2896 -0.0552  0.0161
19927W        W33341   5.419   8.049   4.323  0.1525  0.1464  0.0984
19928W        W33342   4.726  10.435   4.318 -0.1864  0.0854 -0.2554
19929W        W33343  15.475   7.612  13.782 -0.0224 -0.0983  0.0519
19930W        W33344   8.630   3.635  12.478 -0.0945 -0.1305 -0.1791
19931W        W33345   2.990   4.863   4.758  0.0814 -0.0279  0.0264
19932W        W33346   8.427   9.285  11.426  0.0834  0.1081  0.5391
19933W        W33347   3.151  16.904   3.888 -0.0853  0.1542 -0.1307
19934W        W33348   0.348  16.513  13.388  0.0552  0.0037  0.0023
19935W        W33349  13.744  17.448   2.468 -0.4080  0.1536  0.2503
19936W        W33350  12.186   8.658  12.067  0.0833 -0.1596  0.2492
19937W        W33351   0.440   4.183  12.646  0.1299  0.0304 -0.1270
19938W        W33352   8.814   4.111  11.783 -0.1049  0.2676 -0.3615
19939W        W33353   0.334   5.666  14.166  0.3462  0.3816 -0.1090
19940W        W33354   9.352  15.301  10.528 -0.4365 -0.0314  0.1998
19941W        W33355   2.284  13.928   4.636  0.1171 -0.0450 -0.0379
19942W        W33356   7.891  15.289   1.446  0.2992 -0.0037 -0.1054
19943W        W33357   5.160  11.854  12.846  0.1564  0.4011 -0.2567
19944W        W33358  13.055  16.876   3.008  0.1150  0.1084 -0.4007
19945W        W33359  17.078  18.035  10.679 -0.1050  0.1724  0.3578
19946W        W33360  17.251   3.206   1.123 -0.2033  0.3632  0.2222
19947W        W33361   0.866  13.435   2.246  0.0205  0.0695  0.1636
19948W        W33362  13.027   9.342  15.209 -0.1906 -0.1449  0.1734
19949W        W33363   0.963  11.511  13.332 -0.3511 -0.1981 -0.2012
19950W        W33364  12.573  16.078   1.448 -0.1581  0.2378 -0.0048
19951W        W33365  14.638  16.141  12.571 -0.3071  0.1954  0.2696
19952W        W33366  10.780  11.211  12.870 -0.1173  0.1148  0.2107
19953W        W33367  16.760   7.126  15.836  0.0154  0.1197  0.1313
19954W        W33368   4.327  18.139  12.224  0.0927 -0.0243 -0.3828
19955W        W33369   7.810  10.855  12.771  0.2149 -0.2449  0.1106
19956W        W33370   5.238  10.261   0.663  0.4039  0.1166 -0.1371
19957W        W33371  11.122  17.748   0.676 -0.0880  0.0752  0.0863
19958W        W33372  10.627   3.718  13.708 -0.3440 -0.0697 -0.1273
19959W        W33373   8.233  16.670   1.251 -0.1032  0.1840  0.0043
19960W        W33374   9.075  12.527  16.102  0.3022 -0.0115 -0.1199
19961W        W33375  14.395  14.152   6.025 -0.4386 -0.0336 -0.3933
19962W        W33376  17.337  11.698   5.312  0.1799  0.2747 -0.2049
19963W        W33377   6.657   1.757   4.174  0.2285 -0.0006 -0.0694
19964W        W33378   1.039   5.604   5.504 -0.0078 -0.0669 -0.2708
19965W        W33379  12.226   4.198   6.257  0.0651 -0.0745 -0.0171
19966W        W33380  16.770  14.004   2.828 -0.2897  0.5205  0.2319
19967W        W33381  16.235   2.383  13.687 -0.0442  0.1325  0.0558
19968W        W33382   0.164  11.974   5.366 -0.0721  0.0207  0.3514
19969W        W33383   7.267   1.068   0.390  0.0314 -0.0855 -0.2595
19970W        W33384  12.430   5.476   5.057 -0.1235  0.0116  0.2081
19971W        W33385  12.327   9.743  11.651  0.0347  0.0275 -0.0801
19972W        W33386   1.172  15.451   1.972 -0.0667  0.0320 -0.0015
19973W        W33387  16.500  10.383   1.883  0.2211  0.2300  0.1149
19974W        W33388  16.173   5.719   3.786 -0.2002 -0.0107 -0.0205
19975W        W33389   6.943   5.213   2.174 -0.0134  0.0068 -0.0583
19976W        W33390  17.185   6.650   3.426 -0.3178 -0.2236  0.0491
19977W        W33391   5.440   3.359  11.289 -0.2058  0.0120 -0.1443
19978W        W33392   4.735  13.929  11.545  0.4268 -0.0838 -0.0488
19979W        W33393   8.669  15.668   3.045 -0.0440  0.1556 -0.0978
19980W        W33394  17.486   5.396  14.860 -0.3865  0.2306  0.0130
19981W        W33395   4.147  13.414   2.297 -0.2208 -0.1167  0.2023
19982W        W33396   0.719  18.269   2.223  0.1382 -0.1629  0.2706
19983W        W33397  14.126  15.247   3.442  0.1512 -0.0789 -0.3254
19984W        W33398  12.127  18.005  15.655 -0.0177  0.0209  0.2437
19985W        W33399   0.563  10.455   4.823  0.0762 -0.1569 -0.2815
19986W        W33400   2.736  10.834   5.577  0.0354 -0.1058 -0.1425
19987W        W33401   1.004   0.926   4.205  0.1731 -0.6097 -0.3225
19988W        W33402   7.177   5.755  13.576  0.1469  0.0278  0.0744
19989W        W33403   8.847  13.380  13.861 -0.0177 -0.1080  0.1627
19990W        W33404  12.938   3.112   2.900 -0.4951 -0.0440 -0.1944
19991W        W33405  17.394   7.377   4.625  0.2415 -0.1830 -0.0754
19992W        W33406   5.141   3.958  15.187 -0.2028  0.1873 -0.0681
19993W        W33407  14.075  15.382   2.855  0.1229 -0.0236  0.2705
19994W        W33408   0.459  17.130  14.745 -0.0996  0.0745 -0.0379
19995W        W33409   4.429   4.695  15.068  0.3233 -0.0730 -0.0069
19996W        W33410   8.045  15.916  14.208 -0.3518 -0.3637 -0.1204
19997W        W33411   9.146  16.701  11.139 -0.0496  0.0495 -0.3173
19998W        W33412   3.760   5.545   5.676  0.2836  0.2562  0.1123
19999W        W33413  18.162   4.744  13.313 -0.1442  0.0954  0.1269
20000W        W33414   2.643  11.053   2.018 -0.0051 -0.2034  0.1400
20001W        W33415  17.603   3.494  15.358 -0.1857  0.0080 -0.1429
20002W        W33416  12.991  18.141   1.593 -0.2603 -0.1755 -0.3321
20003W        W33417  11.926  10.981  13.226  0.2534  0.0721 -0.1482
20004W        W33418   7.468   1.802   4.479 -0.2672  0.0853 -0.1852
20005W        W33419   6.322   7.299   3.024 -0.1601 -0.1913  0.1097
20006W        W33420   2.573   9.559  15.453 -0.0201  0.2466 -0.0746
20007W        W33421   3.043  11.686  15.628 -0.1503 -0.0505  0.1453
20008W        W33422   5.791  15.136  15.690  0.0767  0.3734 -0.2711
20009W        W33423  16.496  12.492   2.955 -0.3440 -0.2765  0.0671
20010W        W33424   5.196   0.291  12.513 -0.0136 -0.2823 -0.2903
20011W        W33425  13.143   5.719  12.484 -0.0077  0.3925  0.2328
20012W        W33426   7.159  12.361  14.022  0.1819  0.1838  0.2300
20013W        W33427  12.893   9.924  16.521  0.0927 -0.0429 -0.0022
20014W        W33428   2.671   6.512  11.413  0.2305  0.1585 -0.3776
20015W        W33429   6.366  10.434  11.552 -0.1935 -0.2374 -0.2139
20016W        W33430  16.344  17.957   1.401  0.2564 -0.0797 -0.2486
20017W        W33431   3.724   7.474   3.103  0.0552  0.0014  0.0800
20018W        W33432  17.191   1.789   3.897  0.3300  0.0518  0.0934
20019W        W33433  15.611  11.757   1.992 -0.0001 -0.4461  0.6419
20020W        W33434  15.718  11.604  14.979 -0.4956 -0.2727  0.1977
20021W        W33435   8.328   5.427  15.477  0.1028 -0.0396  0.0486
20022W        W33436   3.909  11.522  10.952  0.1069 -0.0060  0.1354
20023W        W33437   0.130  17.893   6.094 -0.0507  0.0908 -0.3469
20024W        W33438  13.665   5.979  14.666  0.0428 -0.2047  0.1616
20025W        W33439   7.617   0.319  11.572  0.5127  0.2582  0.0485
20026W        W33440  10.193  15.272   0.126  0.1898  0.0834  0.5172
20027W        W33441  11.855   1.961   0.868  0.5968 -0.1452  0.0247
20028W        W33442   8.588   8.871  16.012 -0.3127 -0.1574 -0.0043
20029W        W33443   4.650   3.961   2.708 -0.2967 -0.2696 -0.0686
20030W        W33444   2.523   3.863   5.317 -0.0737 -0.0547  0.3715
20031W        W33445  11.084  17.374   5.763 -0.2256  0.0825 -0.0716
20032W        W33446   2.513   4.611  11.033  0.0934 -0.0188 -0.4017
20033W        W33447   5.855  13.833   3.539 -0.0665  0.0143  0.0116
20034W        W33448   6.072   5.513  13.075 -0.1107  0.0160 -0.2755
20035W        W33449   1.276  15.047  15.542  0.0374  0.3348  0.1358
20036W        W33450  14.790  13.732   1.168 -0.1652  0.0567  0.1480
20037W        W33451   7.737   8.896  14.303 -0.2595  0.0059  0.1207
20038W        W33452  11.424   0.919  15.275 -0.0049  0.0590  0.1274
20039W        W33453   1.395  18.102   5.686 -0.2178  0.1961  0.1232
20040W        W33454  15.611   4.583  10.934 -0.2573  0.1094  0.1358
20041W        W33455  13.477   0.333   5.407 -0.1690 -0.0080 -0.0639
20042W        W33456  17.131  16.203   5.432  0.1626 -0.2179  0.1337
20043W        W33457   6.154   4.241  14.905 -0.0284 -0.0649  0.1486
20044W        W33458  15.953   0.721  12.178 -0.0854  0.0262  0.1248
20045W        W33459   2.744   7.251  14.326 -0.0650 -0.1656  0.0726
20046W        W33460  10.375  16.467   2.023  0.0531 -0.0815 -0.0711
20047W        W33461  14.030   0.789  11.421  0.0740 -0.0649 -0.2796
20048W        W33462  11.446  18.222  12.284  0.2448  0.2640 -0.1871
20049W        W33463   6.926   7.234  11.364  0.2778 -0.1754 -0.1309
20050W        W33464   7.514  10.783  16.203 -0.2493  0.1882 -0.1204
20051W        W33465  18.251   0.506   3.099  0.1448 -0.0159  0.1505
20052W        W33466   7.195   5.079   0.311 -0.2393 -0.0725  0.0928
20053W        W33467   5.853   1.474   1.292  0.1987 -0.0191  0.1429
20054W        W33468   8.783   6.312  13.457  0.1888 -0.2426  0.2882
20055W        W33469   2.579   4.153  12.508 -0.0332  0.0067  0.1185
20056W        W33470   4.327  10.135  16.089 -0.0683  0.1599  0.2132
20057W        W33471   5.764  15.491  13.793 -0.0737  0.0157  0.1211
20058W        W33472   8.358  15.056   0.316  0.1714 -0.0065  0.1053
20059W        W33473  12.630  17.916  15.458 -0.0801 -0.2539  0.2001
20060W        W33474   7.692   7.296  16.127  0.3964 -0.0642  0.2156
20061W        W33475  17.424   8.591   1.974  0.1878  0.0743  0.1027
20062W        W33476  16.024  15.640   5.071  0.1366 -0.0606  0.0466
20063W        W33477  13.993  12.219   2.471  0.3586 -0.1811  0.1558
20064W        W33478   0.417   1.826   3.602  0.1026  0.1564  0.0013
20065W        W33479   8.538  12.514   1.485  0.0332 -0.2241 -0.0628
20066W        W33480  12.187  16.072  12.211 -0.1698 -0.0214  0.2067
20067W        W33481   6.559  10.454  10.385  0.1583  0.3191  0.0334
20068W        W33482  13.406   3.284  15.051 -0.0647 -0.0066 -0.0437
20069W        W33483  15.675   1.045  12.461 -0.0741  0.0743  0.1336
20070W        W33484   9.181  15.692   2.938  0.0172 -0.0323  0.4714
20071W        W33485  17.089   7.389   3.644 -0.2150 -0.1844 -0.2268
20072W        W33486  17.912  12.960  16.000  0.1389 -0.2760  0.0410
20073W        W33487   1.084  16.439  11.662  0.0756 -0.2009 -0.3200
20074W        W33488  12.661  14.953   2.244 -0.1899  0.0149  0.0749
20075W        W33489   8.471   2.649   0.932 -0.2079  0.1458 -0.0202
20076W        W33490   9.840   4.513   3.761 -0.1417  0.1226 -0.0033
20077W        W33491  12.117  10.243   2.914  0.2309  0.2983  0.0281
20078W        W33492   8.639  10.364  10.380 -0.0278 -0.1464 -0.0880
20079W        W33493   2.925   3.684  10.751 -0.4182  0.0576 -0.1292
20080W        W33494  10.454   5.882   3.579  0.1437  0.0891  0.0270
20081W        W33495   1.765  13.983  14.642 -0.0013  0.2169  0.3149
20082W        W33496  10.187   3.839  10.878  0.0416 -0.0235 -0.0197
20083W        W33497   2.940  11.276   5.617 -0.0313 -0.0349  0.2027
20084W        W33498   4.706  11.033  12.861 -0.0554 -0.0470 -0.4017
20085W        W33499  11.846  10.901  13.776  0.1131  0.2926  0.1975
20086W        W33500  12.163  17.170   3.989  0.1892 -0.1639  0.1723
20087W        W33501  13.703   8.916  16.076 -0.0241 -0.6241  0.1785
20088W        W33502   8.234  13.888   0.172 -0.2005  0.2187 -0.0532
20089W        W33503   3.458   4.776  14.770 -0.0228  0.2688  0.0001
20090W        W33504  11.984   8.038  14.704  0.2633 -0.0915  0.1253
20091W        W33505  15.414   7.614   4.181  0.0455  0.3916  0.0459
20092W        W33506   2.178  14.019   3.411  0.1040 -0.0550 -0.3872
20093W        W33507  17.688   3.176  11.527 -0.0088 -0.1168  0.3580
20094W        W33508  13.519   8.219  11.876  0.0325  0.0177 -0.0368
20095W        W33509   9.469   6.766  14.702  0.2465  0.2393 -0.2302
20096W        W33510  13.885  17.020  15.939  0.1272  0.1241 -0.3508
20097W        W33511   0.641  11.846   1.197  0.2045 -0.3658 -0.0175
20098W        W33512   8.925  11.082   0.463  0.2734  0.0487  0.1272
20099W        W33513  12.136  17.544  11.764  0.1817 -0.0340 -0.0726
20100W        W33514  14.497   2.180  11.939  0.0021  0.0354 -0.4017
20101W        W33515  10.821  16.442  16.434 -0.1346  0.1275  0.1344
20102W        W33516  10.391  17.089  14.007 -0.2724 -0.6081  0.0583
20103W        W33517   3.233  16.574   1.598  0.2036  0.0925  0.1169
20104W        W33518  12.857   2.754  11.709 -0.1158  0.1119  0.0842
20105W        W33519   1.506   3.546   3.833 -0.0377  0.0589  0.0811
20106W        W33520   0.889  14.606  11.701 -0.1942  0.0641 -0.3380
20107W        W33521  14.680   9.974  14.303 -0.3505  0.0369  0.2273
20108W        W33522  17.328  17.718   4.907  0.1763 -0.0921  0.0068
20109W        W33523   5.075   1.901  10.837  0.0787  0.0136  0.0825
20110W        W33524   7.495   3.835  12.269 -0.1985  0.0805  0.0053
20111W        W33525   5.783  13.630  15.099  0.0728  0.4097  0.0648
20112W        W33526  18.166   9.349   4.612 -0.1091  0.0609  0.1899
20113W        W33527  18.025  13.642   2.574  0.0903  0.0363  0.1219
20114W        W33528  10.360  15.552   4.682 -0.2270 -0.0078 -0.4208
20115W        W33529   3.811  10.049  14.206  0.2253  0.0561 -0.0275
20116W        W33530  16.209  16.932   4.665 -0.0016 -0.3822  0.0985
20117W        W33531  16.248   4.146   4.799 -0.1209 -0.0712  0.2027
20118W        W33532  16.069   3.733   5.492  0.2583 -0.0336 -0.0557
20119W        W33533   8.342   1.328  13.505 -0.3844  0.1066  0.2090
20120W        W33534  14.586   1.129   5.678 -0.0567  0.2246  0.3557
20121W        W33535   2.693  14.553  15.603 -0.2925  0.0869  0.0978
20122W        W33536  10.363   8.204   3.809  0.0454  0.2575  0.2334
20123W        W33537   2.325  11.336  14.413 -0.0470  0.1252  0.0128
20124W        W33538   7.078   2.445  15.416  0.0800  0.0257  0.3276
20125W        W33539   3.842  10.698   3.461 -0.1748 -0.5097 -0.0132
20126W        W33540  10.569  12.000  14.078 -0.0957 -0.2318  0.0924
20127W        W33541  17.214  13.464   5.916  0.1296 -0.1710  0.1297
20128W        W33542  14.296   4.612  10.740  0.4071 -0.5301 -0.1475
20129W        W33543  14.303   5.249  15.603 -0.2396 -0.0886  0.0878
20130W        W33544   0.649  15.439   3.963 -0.2342 -0.2422  0.1753
20131W        W33545  11.417   6.468  14.170 -0.0025 -0.1279 -0.2632
20132W        W33546   3.072  11.081   1.423 -0.0527 -0.1559 -0.2320
20133W        W33547  13.944   3.990  15.152  0.1078 -0.2360  0.4358
20134W        W33548   5.821  16.649  13.035 -0.2037  0.1571  0.0519
20135W        W33549  13.830   5.386   1.581 -0.1176  0.2034  0.1888
20136W        W33550   5.386   5.536   2.017 -0.2869 -0.5084 -0.3266
20137W        W33551   4.804  15.130   4.705  0.0403 -0.1708 -0.1175
20138W        W33552   7.042   9.798  15.960 -0.0601  0.0306 -0.2594
20139W        W33553  12.503  13.697  15.618 -0.0347  0.0516  0.0097
20140W        W33554   1.433   7.563   0.753 -0.2467 -0.0120  0.2327
20141W        W33555  15.767   2.314   0.028  0.0298 -0.0799 -0.0400
20142W        W33556   6.506   0.570   6.010  0.0103 -0.1203 -0.1237
20143W        W33557  16.940  12.694   3.045 -0.0623  0.0362 -0.1863
20144W        W33558   2.778   7.782  13.739 -0.1351  0.3528  0.0546
20145W        W33559   7.435   2.493  11.326 -0.2412  0.1457 -0.0690
20146W        W33560   5.857   7.199   5.670 -0.0469 -0.4434  0.0147
20147W        W33561   5.996  10.808  10.619 -0.2042 -0.0348  0.2815
20148W        W33562  13.006  10.513   6.217 -0.0061  0.0819  0.2663
20149W        W33563  14.408  15.796   3.743  0.0999  0.2155  0.2090
20150W        W33564   5.344   3.330   3.896 -0.0958  0.1697  0.2449
20151W        W33565   2.835   9.870  13.514 -0.1203  0.0837 -0.1508
20152W        W33566   8.939   6.000  13.849  0.1092  0.1735  0.2142
20153W        W33567   6.099  17.841   1.133 -0.1837  0.0160  0.0195
20154W        W33568   3.494  18.056  13.474 -0.2539 -0.1714 -0.2182
20155W        W33569  16.844   0.131  14.910 -0.2170  0.2279  0.1714
20156W        W33570  14.477  14.477  11.711  0.2203 -0.3017  0.1431
20157W        W33571  10.794   1.160   2.494 -0.0179 -0.0899 -0.4237
20158W        W33572   5.175   6.499  14.262  0.3427 -0.1668 -0.0129
20159W        W33573   4.167   8.277  10.398  0.2611 -0.2298  0.2030
20160W        W33574   1.497   2.545   0.447  0.0517  0.0023 -0.0812
20161W        W33575   1.985  12.475   2.014  0.0554 -0.5569 -0.1829
20162W        W33576   5.660   1.474  12.750 -0.0802 -0.2259 -0.0126
20163W        W33577   5.407   7.517   4.350 -0.0631 -0.2301 -0.1811
20164W        W33578  12.147   4.763  11.476 -0.0628 -0.0923  0.0570
20165W        W33579  15.691  12.880   2.612  0.0047  0.0224 -0.1923
20166W        W33580  13.539  13.647  13.654  0.2110  0.0656  0.0163
20167W        W33581  15.099  13.953   3.973 -0.1128  0.1855  0.0422
20168W        W33582  11.957  13.082  13.982 -0.2615 -0.0595  0.0208
20169W        W33583  14.842   5.234  11.805  0.4080 -0.0394 -0.0154
20170W        W33584   2.231  12.848  12.647  0.5646  0.0079  0.2383
20171W        W33585   9.024   6.349   4.689 -0.1572 -0.0887 -0.0591
20172W        W33586   4.713   1.118   3.906 -0.1022  0.1358 -0.2485
20173W        W33587   9.452   6.742   5.356  0.1774 -0.1903  0.0471
20174W        W33588  13.710  11.511   1.833  0.1057 -0.1212  0.1323
20175W        W33589   7.161   5.709   5.887  0.1291 -0.1745  0.0212
20176W        W33590   1.360   1.094   0.141 -0.1683  0.0970 -0.0498
20177W        W33591   8.363  16.114  10.892  0.1592 -0.1644  0.0256
20178W        W33592   1.535   3.151  13.139  0.1358  0.1012 -0.0894
20179W        W33593   1.839   1.716  13.136  0.2805 -0.0991  0.2749
20180W        W33594   6.345   8.272  14.519  0.2737  0.2484 -0.3285
20181W        W33595  12.886  16.159   0.551  0.0514 -0.0124  0.3944
20182W        W33596   5.795   2.119   0.621  0.1818  0.1515  0.4713
20183W        W33597   1.790   1.008   1.037  0.0214 -0.1877 -0.0512
20184W        W33598   7.894   3.467   5.868  0.1177  0.3463 -0.0081
20185W        W33599  10.928  17.202  11.053  0.3970 -0.1729 -0.2909
20186W        W33600  16.407  17.609   1.032  0.0423  0.3077 -0.1922
20187W        W33601  11.519  10.916   1.570  0.0336 -0.0319  0.0233
20188W        W33602   7.678   7.547  10.536  0.0903 -0.0381  0.1128
20189W        W33603   5.300   6.105   5.845  0.0269  0.1905 -0.1887
20190W        W33604  11.268  16.448  11.699 -0.0469 -0.1117 -0.0022
20191W        W33605  11.532   3.057   3.848  0.0892  0.1392 -0.4298
20192W        W33606   8.998  12.410  14.383 -0.3190 -0.0020  0.4293
20193W        W33607  10.151   7.638   3.260 -0.1474 -0.0537 -0.1841
20194W        W33608  15.155   0.734   2.162 -0.0007 -0.1129 -0.0818
20195W        W33609  12.059   5.749  14.096  0.0958  0.1042  0.4552
20196W        W33610  18.055  15.226   4.963  0.2259 -0.0054 -0.0916
20197W        W33611   3.966   3.906  16.432 -0.1545 -0.1827 -0.1106
20198W        W33612   6.229   5.279   2.827 -0.1575  0.0620  0.0790
20199W        W33613   8.864   2.362   1.537 -0.1225  0.0702  0.1104
20200W        W33614   8.830  11.466   4.880  0.1266  0.1757  0.1456
20201W        W33615   8.997   6.345  11.036 -0.2833 -0.1475  0.4055
20202W        W33616   9.080   7.211  13.455 -0.0803  0.1546 -0.1365
20203W        W33617   7.088  15.820  12.108  0.1070  0.0544  0.2578
20204W        W33618   4.628   6.375  12.715 -0.1538  0.2690  0.2565
20205W        W33619   1.437   9.419   3.248  0.0049  0.2422 -0.3135
20206W        W33620   0.566  13.862   2.419 -0.1376  0.0818  0.0369
20207W        W33621   0.590   2.348   2.790 -0.1276  0.0671  0.2438
20208W        W33622   4.608   4.560  13.512 -0.1150 -0.1995  0.0682
20209W        W33623   8.523  11.277  13.534 -0.0100  0.2814  0.0762
20210W        W33624  10.443  17.894  15.867  0.0302  0.3903 -0.0286
20211W        W33625  10.446  10.237  16.317 -0.1921  0.1644  0.0234
20212W        W33626   5.174   7.421   3.879 -0.3287  0.2343  0.1540
20213W        W33627   5.399  13.720  11.370 -0.3226 -0.0180  0.0202
20214W        W33628   0.199   9.276   0.175 -0.2745 -0.1340  0.1706
20215W        W33629   0.135  15.484  14.217 -0.2690  0.2300 -0.3675
20216W        W33630  11.538   8.749   2.863 -0.2500  0.0504 -0.3053
20217W        W33631  18.167   1.326   3.564 -0.1051  0.2064  0.0028
20218W        W33632   3.620   5.680  14.926  0.1379 -0.2169  0.0975
20219W        W33633  14.245   3.945  14.749  0.0294  0.1265 -0.1179
20220W        W33634   3.593  14.365  13.461 -0.1355  0.0006  0.2636
20221W        W33635   4.944  15.095   5.207 -0.0533  0.0684  0.3975
20222W        W33636   5.281   4.037  11.446 -0.1049 -0.0701  0.0981
20223W        W33637  11.859   6.963   5.431  0.0068 -0.1453  0.0335
20224W        W33638  18.258   9.468   4.062  0.1904  0.4040  0.0697
20225W        W33639  17.872  17.225  15.798  0.0428 -0.1309  0.1450
20226W        W33640   4.568  17.293  11.884  0.0030 -0.1609 -0.1063
20227W        W33641  12.372   7.043   1.029 -0.1001  0.1171  0.1932
20228W        W33642  14.150  18.214   2.854 -0.0851 -0.0213  0.0559
20229W        W33643  17.605   5.818   9.979 -0.2093  0.0845  0.0514
20230W        W33644   1.946   3.758  15.177  0.0741 -0.2109 -0.1458
20231W        W33645  14.398  16.626  13.951  0.2018 -0.0178  0.0356
20232W        W33646   9.419  12.811  16.311 -0.2130  0.2365 -0.1621
20233W        W33647   6.469  12.894  12.134 -0.0836  0.0096  0.2177
20234W        W33648  10.514  16.856  15.010 -0.0894  0.0001 -0.0607
20235W        W33649   7.134  15.403   5.709  0.2182  0.2148  0.4802
20236W        W33650  17.236  15.754   6.051 -0.0981 -0.1490 -0.0841
20237W        W33651   4.198   7.064  13.915  0.1472 -0.0099 -0.0038
20238W        W33652   3.040   4.141  15.933  0.3499 -0.3116 -0.0429
20239W        W33653  13.692   9.394  15.811 -0.2077  0.0785 -0.1460
20240W        W33654   6.093  18.263   5.649 -0.4062 -0.0424  0.1284
20241W        W33655  15.697   6.909   3.285  0.2784  0.1564  0.0098
20242W        W33656  17.317   9.088   2.496  0.1016  0.1942 -0.0659
20243W        W33657   9.067   8.847   3.666  0.2882  0.0287  0.0557
20244W        W33658  17.768   4.008  10.862 -0.0734 -0.2433 -0.3655
20245W        W33659   5.358  15.723  10.329  0.0477  0.1607  0.2091
20246W        W33660   9.454   4.742   0.531 -0.1751  0.0743  0.0606
20247W        W33661  15.768   8.997  14.281 -0.2460 -0.1765  0.0402
20248W        W33662  12.206  14.202  11.679  0.0816  0.1815 -0.4433
20249W        W33663   0.966  16.281   2.459 -0.1282  0.2025 -0.2235
20250W        W33664   1.679  15.482   4.594  0.0478 -0.0881 -0.0516
20251W        W33665   8.181   3.417   5.001  0.1387  0.2184 -0.0250
20252W        W33666   5.616  15.895  14.077 -0.0341  0.2687  0.1312
20253W        W33667  14.458   4.168  16.376 -0.3018 -0.0681  0.1385
20254W        W33668   6.292   0.653   0.020 -0.0151 -0.0965 -0.1329
20255W        W33669  10.478   0.507  12.686  0.2760 -0.0644 -0.2033
20256W        W33670  13.886   1.163   5.041 -0.0631  0.2577  0.3343
20257W        W33671   7.090  16.548  12.818 -0.2366 -0.3822  0.1289
20258W        W33672  12.967   6.937  12.048 -0.1410 -0.0314  0.0683
20259W        W33673   0.346   9.267   1.218 -0.0194  0.1479 -0.1616
20260W        W33674  12.536   2.554   5.830  0.3831  0.0203 -0.0474
20261W        W33675   4.689   1.237   1.896  0.3410  0.0222 -0.0123
20262W        W33676   0.059   3.927   4.790  0.0516 -0.1886  0.0688
20263W        W33677   7.964   2.231  13.890  0.0176  0.1897  0.1076
20264W        W33678   1.484  10.883  15.295  0.2060 -0.0129 -0.1726
20265W        W33679  14.660   5.874  14.446 -0.0402 -0.1339  0.3053
20266W        W33680  11.005   6.593   5.273  0.2264 -0.2170 -0.1624
20267W        W33681   1.286   3.115  16.080  0.1364 -0.1488 -0.1049
20268W        W33682  14.508   1.487   2.078 -0.1110  0.2101  0.0629
20269W        W33683   6.529   5.359   3.692 -0.1383  0.0674  0.0046
20270W        W33684   5.932  15.335   3.137  0.4833  0.0174 -0.1740
20271W        W33685   7.490  10.772  11.883 -0.0577 -0.1004 -0.0186
20272W        W33686   2.936   9.832  16.231 -0.0849 -0.1277 -0.0021
20273W        W33687  16.509  15.398  16.356 -0.3212  0.0014  0.1963
20274W        W33688  17.602   3.330   2.970  0.2175  0.0323 -0.0298
20275W        W33689   4.725   1.282  12.585 -0.1783  0.2259  0.0851
20276W        W33690  16.312  11.923  10.292  0.1487  0.0583 -0.1933
20277W        W33691  11.686   9.495   2.653  0.1190 -0.2159  0.3744
20278W        W33692  11.335  10.507   5.088  0.0449 -0.1331 -0.1139
20279W        W33693  13.889   7.031  16.010  0.2080  0.1688 -0.2864
20280W        W33694   5.007   2.824   2.116  0.0862  0.1291  0.1098
20281W        W33695  14.010  12.530  13.050  0.1168 -0.2706 -0.2132
20282W        W33696  10.784   9.318   1.701  0.1116 -0.1009  0.1150
20283W        W33697   2.171  11.907  13.996 -0.2030  0.3178  0.3272
20284W        W33698  15.600  17.898   0.579 -0.0079  0.1028 -0.3081
20285W        W33699   1.812  15.881   4.305 -0.1579 -0.1864 -0.1578
20286W        W33700   7.698   4.685  15.848  0.1659  0.2057  0.1752
20287W        W33701  10.751  16.462  11.521  0.0333 -0.1788 -0.0414
20288W        W33702  16.455  15.662   0.282  0.0629  0.0314 -0.1949
20289W        W33703  12.793   3.419   0.691 -0.1852  0.0824  0.1199
20290W        W33704  15.794   2.772   4.087 -0.0921 -0.0664 -0.1225
20291W        W33705   8.419  12.640  12.449  0.0582 -0.1412  0.0150
20292W        W33706   4.491   0.297  14.619 -0.1575 -0.0357  0.0430
20293W        W33707  10.077   2.701  11.063 -0.2064  0.1459 -0.1871
20294W        W33708   0.820   4.375   4.514 -0.1641  0.0330  0.0202
20295W        W33709  14.287  17.678  14.740 -0.0335 -0.1447 -0.0459
20296W        W33710  16.441  17.634   1.738 -0.0118  0.1034  0.1471
20297W        W33711   8.989  14.389  14.867  0.0889  0.0038  0.0275
20298W        W33712   0.346  13.432  16.424 -0.0564 -0.1260 -0.0351
20299W        W33713   7.658   0.370   6.146 -0.1139  0.1682 -0.0164
20300W        W33714   5.955   8.893  11.843  0.0706 -0.2938 -0.0940
20301W        W33715  13.677   8.651  11.579 -0.2032  0.0096  0.1294
20302W        W33716   2.251   9.949   1.427 -0.1655  0.0799 -0.0273
20303W        W33717   3.041  18.179   5.197 -0.3941 -0.1028  0.1040
20304W        W33718  17.123  12.206  12.357  0.0358  0.1484  0.0080
20305W        W33719   2.294   0.521   2.962  0.4098 -0.3783 -0.2794
20306W        W33720   7.458   9.962   0.724 -0.4092 -0.3028 -0.1693
20307W        W33721   6.815  15.269  14.748 -0.5563  0.1399  0.1269
20308W        W33722   8.394   3.470  13.442 -0.1437  0.2560 -0.2864
20309W        W33723   1.233  14.780  14.376 -0.1235 -0.2511  0.2307
20310W        W33724   0.832   3.181  14.066 -0.2506  0.1359  0.1844
20311W        W33725  14.949  12.474  14.619  0.0352  0.0990  0.0080
20312W        W33726   6.018   7.654   3.687  0.1494 -0.0445  0.1960
20313W        W33727   5.241  10.913  12.831  0.2939 -0.0780 -0.1923
20314W        W33728   3.272   5.472  12.769  0.0930  0.1133  0.0523
20315W        W33729   0.141  15.744   5.326  0.1650 -0.1503  0.1476
20316W        W33730  14.956  11.339   4.949 -0.1511  0.2590 -0.0900
20317W        W33731   0.335   2.131   0.439  0.1893 -0.1331 -0.3406
20318W        W33732  16.607   1.852   0.185  0.2131 -0.1315 -0.2353
20319W        W33733   6.558   5.803   0.624 -0.1161  0.1258  0.4437
20320W        W33734  11.170   6.564   2.452 -0.0098 -0.1586 -0.1237
20321W        W33735  14.035  15.584  15.271  0.0035 -0.6194  0.1705
20322W        W33736  11.440   0.206   0.684 -0.0604 -0.1376  0.0057
20323W        W33737  15.306  10.639   3.180  0.1658  0.0474 -0.4991
20324W        W33738  17.450  10.736  11.260  0.1754  0.3745 -0.2343
20325W        W33739  17.610   5.070   4.273 -0.0237  0.4294  0.4016
20326W        W33740  10.351  17.778   3.673 -0.2948 -0.2530 -0.1449
20327W        W33741  15.613   4.999   0.249 -0.1596  0.2293 -0.1241
20328W        W33742  16.239   3.548   1.165  0.2105  0.2871 -0.1006
20329W        W33743  10.673   0.870  13.057 -0.1078  0.3948  0.2168
20330W        W33744   2.239   0.071   1.328 -0.1070 -0.0511  0.2506
20331W        W33745   3.553   7.597  13.417  0.0834  0.2068 -0.2337
20332W        W33746  11.044   4.823  12.339  0.1262 -0.0759  0.1605
20333W        W33747   2.836   9.233   2.809  0.1181  0.0142  0.0279
20334W        W33748   1.979   6.883   5.287 -0.4751  0.1354 -0.1600
20335W        W33749   9.713   7.878  15.136 -0.0812  0.1687  0.2312
20336W        W33750  11.813   0.181   6.242 -0.4388  0.0252 -0.1764
20337W        W33751   7.470  13.132  10.933 -0.0947  0.2008  0.0292
20338W        W33752  11.070   9.373  14.223  0.2356  0.0150  0.0822
20339W        W33753  16.501   3.134   0.487  0.1298 -0.0662  0.0025
20340W        W33754   6.569   0.958   0.312  0.0059  0.1796  0.2643
20341W        W33755   9.494  15.386   3.681  0.0819 -0.2101 -0.0276
20342W        W33756  10.910   2.581  16.242 -0.3264 -0.1643 -0.1949
20343W        W33757  11.367  11.164  15.691 -0.0301 -0.4078  0.0419
20344W        W33758   2.198   6.813  14.069  0.0463  0.1805 -0.1790
20345W        W33759  18.166  11.714   1.148  0.1431 -0.0540 -0.1163
20346W        W33760   2.368   9.983  12.249 -0.1210  0.2189  0.5750
20347W        W33761  15.887  15.220   5.610  0.1715  0.2577 -0.1486
20348W        W33762   9.963   1.645  15.168  0.2792 -0.0063 -0.2985
20349W        W33763   0.113   2.757   2.236 -0.1386 -0.1293  0.0062
20350W        W33764   4.464  13.857  13.346 -0.2375 -0.1710 -0.3172
20351W        W33765  16.148   1.771  15.766  0.0388  0.1226 -0.2367
20352W        W33766   0.175  13.525  12.502 -0.3298  0.0629  0.0561
20353W        W33767   4.866  14.822  14.698 -0.0717 -0.0109  0.1408
20354W        W33768   9.912   5.945   4.837  0.3085 -0.0223 -0.3089
20355W        W33769  18.023  18.073  13.180 -0.1936  0.1274 -0.2408
20356W        W33770   5.398  12.277   2.689 -0.0151  0.0859  0.0775
20357W        W33771   7.858  13.970  16.120 -0.0088  0.0652 -0.0333
20358W        W33772   7.967  12.698  13.148  0.0840 -0.1831 -0.1715
20359W        W33773  11.253  17.903   4.808  0.1218  0.0069 -0.3059
20360W        W33774   1.924   6.762   1.528  0.0927  0.2986  0.3133
20361W        W33775   0.865   5.793   2.191  0.1478 -0.2256 -0.2325
20362W        W33776   1.499  14.648  15.399  0.0885  0.1076 -0.3135
20363W        W33777   2.609   5.321   2.943 -0.2340 -0.0544  0.1521
20364W        W33778   8.835  16.575  14.323  0.0062  0.1885  0.2003
20365W        W33779  14.730   7.428  14.151  0.0454  0.1659  0.0172
20366W        W33780   5.758   7.058   4.820 -0.0368 -0.0646 -0.0307
20367W        W33781   2.817   8.321   1.501 -0.1554  0.1866  0.0933
20368W        W33782  16.371   8.926  15.046 -0.2523  0.3709  0.1544
20369W        W33783   4.995   9.689  14.087  0.0204 -0.3034 -0.2482
20370W        W33784  12.651  11.991  11.987 -0.0257 -0.1743 -0.0247
20371W        W33785  13.091   0.295  12.210  0.0210  0.0958 -0.1898
20372W        W33786   3.009   0.646  15.138 -0.0791 -0.0833  0.1263
20373W        W33787  16.171   6.276  11.058 -0.0908 -0.1304  0.1613
20374W        W33788   0.348  11.869  10.264  0.2104  0.1572 -0.1405
20375W        W33789  16.679   3.303   3.950 -0.0422 -0.1368 -0.2796
20376W        W33790  11.450   7.573   4.285  0.2184  0.1098 -0.3714
20377W        W33791  17.310   5.426  15.368  0.2121  0.1140 -0.1511
20378W        W33792  17.240  10.374  15.516 -0.3380 -0.1753 -0.0991
20379W        W33793   0.557  10.107   3.481  0.1957 -0.0542 -0.1200
20380W        W33794  16.825  13.315  13.215  0.1837  0.0289  0.0769
20381W        W33795   5.913  11.842   0.331  0.2723  0.1134  0.2291
20382W        W33796  11.360   9.555   4.590  0.0802  0.1820  0.1722
20383W        W33797  15.937   7.481   2.406  0.0854 -0.1346 -0.2036
20384W        W33798  13.633   7.660  13.798 -0.1297  0.0376 -0.0820
20385W        W33799   9.640  11.674   0.568 -0.1429 -0.2016  0.1718
20386W        W33800  10.263   1.771  11.403  0.4306 -0.2901  0.1694
20387W        W33801   4.817   4.546   4.342  0.0902 -0.3422 -0.0656
20388W        W33802  10.641   5.633  15.651  0.0404 -0.1569 -0.1111
20389W        W33803  10.092  17.243   5.509 -0.5144 -0.2212  0.1131
20390W        W33804  14.087   4.424   4.162 -0.0710 -0.0357 -0.2872
20391W        W33805  14.511  14.960   4.856 -0.2414  0.0189 -0.0120
20392W        W33806   7.637   0.256  13.663  0.2273 -0.4521  0.1964
20393W        W33807   4.973  13.094   6.377  0.0873 -0.2763  0.1056
20394W        W33808   2.507   7.572   3.429 -0.0151  0.0491  0.0395
20395W        W33809   9.763  13.450  12.034 -0.0029 -0.1447 -0.0253
20396W        W33810  10.227   1.954   3.047 -0.2291  0.0757  0.1574
20397W        W33811   3.600  16.546  13.266 -0.4310  0.3810  0.1466
20398W        W33812  13.741  12.551   4.457 -0.0872 -0.2920 -0.1626
20399W        W33813   4.117   1.173  13.859  0.1212 -0.0870 -0.1168
20400W        W33814   0.890   2.190  11.039  0.0243  0.0934  0.2387
20401W        W33815  17.874   0.785   0.109 -0.0106  0.3653 -0.3039
20402W        W33816  11.222  18.027   1.459 -0.0597 -0.1560 -0.0881
20403W        W33817   1.961   1.873  13.786 -0.0659 -0.0181  0.2941
20404W        W33818   5.142   3.578   1.289 -0.0390 -0.0341 -0.1159
20405W        W33819  10.634   1.159   1.138 -0.0148 -0.2335  0.0813
20406W        W33820   0.553   5.735   0.081 -0.0436  0.0516  0.1610
20407W        W33821  14.738   5.487   1.089  0.0177  0.0881 -0.3276
20408W        W33822   8.008  14.228   0.873 -0.1460  0.1052  0.1426
20409W        W33823   6.225   5.770   6.042  0.0609  0.2119 -0.2458
20410W        W33824   4.980  17.992  15.833 -0.1630  0.0291  0.0544
20411W        W33825  14.836  10.246  10.341  0.1064  0.0980 -0.0427
20412W        W33826  10.883  11.405   5.822  0.1996 -0.2558  0.2176
20413W        W33827   5.191  12.813   5.540 -0.1915 -0.3375 -0.0733
20414W        W33828   8.473  16.238   2.348 -0.0903 -0.0562 -0.1205
20415W        W33829   3.558   9.941  12.763  0.0890  0.1250  0.2257
20416W        W33830  14.693  14.982   4.295 -0.0588  0.0233  0.3962
20417W        W33831  12.811   5.235  14.521 -0.0486  0.0179  0.1798
20418W        W33832  14.550   4.080  15.449  0.1323  0.0057  0.0656
20419W        W33833  16.870   5.023  14.594  0.1990 -0.2545  0.2978
20420W        W33834  14.650   2.783   3.483 -0.0365 -0.1465  0.1428
20421W        W33835  10.169  13.864   5.258 -0.1424 -0.2873 -0.0560
20422W        W33836   9.665   2.497   1.559 -0.0853 -0.0799  0.2413
20423W        W33837   9.458   2.719  13.847 -0.1802 -0.0115 -0.0999
20424W        W33838   3.091  10.120   0.994  0.1057  0.1058 -0.0898
20425W        W33839   2.883  14.277  12.282 -0.1425 -0.0412  0.0990
20426W        W33840  14.852   7.191  15.869  0.0410  0.1494 -0.0101
20427W        W33841  15.168  13.361   2.121 -0.1410 -0.0381  0.0029
20428W        W33842  13.759   2.446  15.396 -0.0022  0.1353 -0.0640
20429W        W33843   0.486   8.423   1.523  0.1622 -0.2117  0.2029
20430W        W33844   7.285  15.366  14.111 -0.0347 -0.1979  0.2001
20431W        W33845  12.740   0.963   6.106 -0.2223 -0.0242 -0.1030
20432W        W33846   0.150  10.609  13.133  0.0523  0.0294  0.1157
20433W        W33847   6.773   8.595   2.700  0.1890  0.0245  0.1824
20434W        W33848  18.244   1.400   5.394 -0.0499 -0.1256 -0.0963
20435W        W33849  13.577  16.789   3.102  0.1179 -0.0705  0.1195
20436W        W33850  13.061   6.431  10.351  0.0163  0.0751  0.1702
20437W        W33851   2.153  13.935   1.064 -0.1436 -0.0446 -0.0779
20438W        W33852  13.274   5.901  10.496  0.0983  0.3078  0.1435
20439W        W33853  16.568   6.691  10.034  0.0575 -0.1320  0.0241
20440W        W33854  17.233  16.576   6.376 -0.1544  0.1012 -0.0362
20441W        W33855  12.191  11.459  11.302  0.2616 -0.0320 -0.0875
20442W        W33856   3.994  10.596  16.266  0.2296 -0.0388 -0.0014
20443W        W33857  10.333   3.073   5.652  0.1319 -0.2095  0.2680
20444W        W33858  13.202  15.587  14.155 -0.3131 -0.3353 -0.0876
20445W        W33859  17.578  12.101  14.591  0.1074 -0.1775 -0.1090
20446W        W33860   5.700  17.263   3.123  0.0548 -0.0158  0.3926
20447W        W33861  17.247   4.453   1.892 -0.2429 -0.2851 -0.0030
20448W        W33862  12.127   6.959   5.895  0.0419  0.2484  0.2535
20449W        W33863   3.499   7.884   4.339  0.0821 -0.0086 -0.2386
20450W        W33864  13.616   1.141   3.700  0.3184  0.1815  0.1428
20451W        W33865  18.089   2.284  14.452 -0.2166  0.0276  0.1222
20452W        W33866   9.953  12.638  13.188  0.1864  0.0940 -0.2643
20453W        W33867   3.472   0.573  12.670 -0.2475 -0.1538  0.0772
20454W        W33868  14.774   6.139   4.628  0.1252 -0.0231 -0.3613
20455W        W33869   8.850   9.378  13.786  0.0372 -0.0769  0.1019
20456W        W33870  15.867  14.943   4.563  0.1591 -0.1461 -0.0824
20457W        W33871   1.195  12.505   0.043  0.2519 -0.0033 -0.2069
20458W        W33872   6.078   5.663  16.448 -0.2861 -0.1331 -0.0195
20459W        W33873   6.836   9.884   4.823  0.2041 -0.2698 -0.0112
20460W        W33874   4.215  15.571  13.564  0.1778 -0.2303 -0.1088
20461W        W33875   7.310   9.650   3.631  0.0631  0.0558 -0.0121
20462W        W33876  13.139   3.895   0.552  0.0939 -0.1294 -0.0698
20463W        W33877  11.418  17.594  16.261 -0.1713  0.0285  0.0675
20464W        W33878  12.353   3.105   4.300 -0.2721  0.0470 -0.2667
20465W        W33879  16.911  13.164   6.141  0.0743 -0.1054 -0.0031
20466W        W33880  11.456   4.547  12.446  0.0151 -0.3100 -0.0900
20467W        W33881  15.807  14.516  10.522  0.1510 -0.0078 -0.1392
20468W        W33882   3.102  15.213  12.780 -0.1118  0.1218 -0.0591
20469W        W33883   6.474  10.967  13.729 -0.1146  0.0026  0.3013
20470W        W33884  14.246   7.873  11.808 -0.0186 -0.2667 -0.1224
20471W        W33885  14.975  12.173  15.230  0.2060  0.1160  0.0903
20472W        W33886   3.298   7.718   3.370 -0.2403  0.0352 -0.1114
20473W        W33887   4.546  15.469  15.069  0.2110 -0.4364  0.0233
20474W        W33888  17.715   6.822   2.873  0.0786  0.1046  0.3151
20475W        W33889  13.205   1.990  14.097  0.3423  0.1717 -0.2968
20476W        W33890   8.308   1.471   5.476 -0.1867 -0.0563 -0.3249
20477W        W33891  16.074  14.639  10.913  0.0802 -0.2474 -0.0105
20478W        W33892   4.944  16.099   5.163  0.1043 -0.0739 -0.1028
20479W        W33893  12.460  11.903  13.716 -0.0567  0.0224 -0.1295
20480W        W33894  14.662  13.959   6.478  0.1084 -0.1745 -0.0240
20481W        W33895   3.032  12.168   4.966  0.1171  0.1110  0.1447
20482W        W33896  16.259   8.254   0.018 -0.1090  0.1931 -0.0594
20483W        W33897   6.350   9.304   0.123 -0.2429 -0.0079  0.2593
20484W        W33898  13.728   0.728   1.307 -0.2594 -0.2515 -0.0521
20485W        W33899  16.901  13.453   0.167 -0.1106  0.2695 -0.1202
20486W        W33900   1.898  13.138   5.843 -0.1159 -0.1112 -0.3215
20487W        W33901   9.915  18.176  11.164  0.4550 -0.0705 -0.3017
20488W        W33902   1.466  11.430  10.836 -0.4726  0.2796  0.0312
20489W        W33903  10.557  17.143   5.743  0.0688 -0.0339 -0.1139
20490W        W33904  12.194   4.189  10.263 -0.0690  0.1299 -0.4879
20491W        W33905   9.623   4.673   2.168  0.0425 -0.2082  0.2909
20492W        W33906  17.046   0.503  12.332  0.1365  0.1580  0.0182
20493W        W33907   8.651  16.214  15.765  0.0103 -0.1167 -0.0379
20494W        W33908   3.798   4.957  10.938 -0.2910 -0.0340 -0.1367
20495W        W33909   8.354   3.365   0.289  0.0070 -0.2115  0.0665
20496W        W33910  11.512  15.157  11.022  0.1079 -0.0908  0.1124
20497W        W33911   9.377   7.733  15.579 -0.2902 -0.0305 -0.2461
20498W        W33912  11.206   2.584   0.494 -0.1389 -0.3618 -0.1390
20499W        W33913   5.764  13.817   4.195  0.1429  0.0010  0.1819
20500W        W33914  11.284  15.643  14.764  0.1651 -0.0593  0.0675
20501W        W33915   1.397   0.623   4.955  0.1898 -0.0872 -0.1153
20502W        W33916   5.659  16.103   1.409 -0.1273  0.1327 -0.0023
20503W        W33917  18.222   9.044   2.680 -0.1996  0.2329  0.1834
20504W        W33918  18.017  16.076   4.511 -0.0125 -0.1568 -0.3461
20505W        W33919   0.634  17.183  11.501 -0.1324 -0.1550 -0.1820
20506W        W33920   6.827   7.584  16.340  0.4623 -0.0875  0.1799
20507W        W33921   7.062   3.976   4.539 -0.1397  0.0892 -0.2636
20508W        W33922  16.646   1.222  12.413 -0.0358 -0.1634 -0.1979
20509W        W33923   5.634  12.788  16.278  0.1496 -0.1259  0.1870
20510W        W33924   3.680  13.430  13.210  0.1461 -0.0942  0.1278
20511W        W33925   9.440  12.904   1.280  0.1257 -0.1787 -0.2117
20512W        W33926   3.304   0.838   2.338 -0.0528  0.3305  0.1297
20513W        W33927   6.242   7.739  14.906 -0.1558  0.1897  0.1377
20514W        W33928   6.630  17.236  13.886  0.0445  0.1995  0.0434
20515W        W33929   2.138   4.759  12.954  0.3426  0.4043 -0.1960
20516W        W33930  14.802  11.748   5.256  0.4671  0.0843  0.2400
20517W        W33931   8.376   7.350   2.530 -0.1284  0.3036 -0.1682
20518W        W33932  17.117  12.453  15.953 -0.0981  0.2360 -0.0101
20519W        W33933  15.532  15.702   3.502  0.1955 -0.2132 -0.0482
20520W        W33934   6.390   9.959  14.720 -0.1428 -0.1240 -0.1637
20521W        W33935   3.732   5.886   5.304 -0.1995  0.0466 -0.0294
20522W        W33936  14.226   1.030   2.806 -0.1460  0.1717  0.2370
20523W        W33937  17.160   7.439  15.118  0.2601  0.0542  0.2140
20524W        W33938  16.840   9.235  14.213  0.0093 -0.0503  0.1666
20525W        W33939  17.011   9.315  11.514 -0.0463 -0.0138 -0.0884
20526W        W33940  17.758   0.538  12.800 -0.0363 -0.2383  0.0723
20527W        W33941  14.412   3.616   1.227  0.0557 -0.0816 -0.1576
20528W        W33942   7.812  18.242   1.512 -0.1440 -0.1263  0.1389
20529W        W33943  15.409   1.516  12.017  0.0249  0.1681  0.3884
20530W        W33944   6.823   3.283  14.304 -0.4336 -0.2970  0.0568
20531W        W33945  16.934  13.965   4.027  0.0343 -0.0954  0.1106
20532W        W33946   2.155   4.266  15.084 -0.0697 -0.0438 -0.5122
20533W        W33947   3.976   8.600   0.507 -0.0757 -0.2347  0.1074
20534W        W33948  11.810  15.884  11.468 -0.1072  0.1621 -0.1574
20535W        W33949  16.469  15.463   5.712 -0.0732  0.6117  0.1757
20536W        W33950  11.352   9.483  13.838  0.0043 -0.0945  0.1434
20537W        W33951  16.893   2.607   4.755 -0.2170  0.0541 -0.1576
20538W        W33952  12.103   0.522   1.280  0.1996  0.3849 -0.0178
20539W        W33953  12.308   9.022  11.350 -0.0569 -0.1136  0.1172
20540W        W33954  12.970   1.152   0.040 -0.3155 -0.1343 -0.0058
20541W        W33955  14.090   0.687   0.922 -0.3628 -0.1477  0.1547
20542W        W33956  15.579  16.227   5.205 -0.1995  0.2581 -0.1817
20543W        W33957  10.895   9.518  15.151 -0.0815  0.2657 -0.0265
20544W        W33958  17.786   5.434  10.957  0.0058  0.0209  0.0064
20545W        W33959   2.890   5.886   3.717  0.0559  0.0565 -0.0044
20546W        W33960   8.073   5.310   0.418  0.2615  0.0780 -0.1139
20547W        W33961   2.065   3.727   5.476  0.0354  0.0018 -0.0660
20548W        W33962   6.554  15.219   4.945  0.0490 -0.3783 -0.3181
20549W        W33963   1.836  13.729   3.776  0.2439 -0.0553 -0.0374
20550W        W33964  16.320   7.161  15.089 -0.2694 -0.1843 -0.2237
20551W        W33965   4.082  15.569  11.034 -0.1155 -0.4704 -0.4087
20552W        W33966   3.489  14.155   5.072 -0.0318  0.1224 -0.0644
20553W        W33967   4.745  17.316   1.128 -0.1582  0.0706 -0.0870
20554W        W33968  15.429   7.138  13.608 -0.1174 -0.0437  0.1763
20555W        W33969  11.003   2.789   5.979 -0.0689 -0.1735  0.1933
20556W        W33970   6.420   5.014   0.136 -0.0357 -0.1127  0.1926
20557W        W33971   2.955  16.104   0.892  0.0640 -0.0866 -0.1133
20558W        W33972  17.693   0.739  13.972 -0.0594  0.0292 -0.0256
20559W        W33973   8.320  15.088  12.557  0.4947 -0.2210  0.1586
20560W        W33974  14.943  12.994   0.428 -0.2933  0.1090 -0.0665
20561W        W33975  13.362   1.619   0.472  0.2340  0.0609  0.1815
20562W        W33976   9.994  12.847   5.844 -0.1710  0.1588 -0.1676
20563W        W33977  10.202  10.414  13.643 -0.3200  0.1785  0.0143
20564W        W33978  17.034  16.077  15.794  0.2008  0.1856  0.1662
20565W        W33979  11.422   5.606  12.227  0.2986 -0.3817 -0.0032
20566W        W33980  13.533  15.438  15.141  0.4880  0.3117  0.4514
20567W        W33981  13.893  11.004   1.899 -0.0885  0.4255  0.2298
20568W        W33982   0.500   7.533   0.525  0.1032 -0.0214 -0.1035
20569W        W33983  14.288  12.104  13.925  0.1356 -0.3248  0.4459
20570W        W33984   9.894   3.117   7.025  0.0236 -0.0502  0.0282
20571W        W33985  17.123  16.440  11.326  0.2683 -0.0332  0.4475
20572W        W33986   4.458   8.531  10.728  0.2723  0.0093 -0.2663
20573W        W33987   9.019  18.021  12.378 -0.1471 -0.0315 -0.0904
20574W        W33988  14.648   0.191   3.235 -0.1799  0.0024  0.1140
20575W        W33989  11.710   2.448   6.137 -0.0822 -0.0152 -0.0514
20576W        W33990   3.221   4.414  11.234  0.2871  0.0777 -0.0036
20577W        W33991   9.355  12.020   6.136  0.0911 -0.1965 -0.2900
20578W        W33992   5.669   1.197  14.446  0.3295  0.0200 -0.2666
20579W        W33993   3.953  17.594   6.479 -0.3273  0.0844  0.0732
20580W        W33994   8.642  16.909  12.999  0.1078 -0.1578  0.4142
20581W        W33995  11.874  12.984  15.684  0.1783 -0.3074  0.3118
20582W        W33996  12.675   5.751   5.400  0.0022 -0.1816 -0.2983
20583W        W33997  13.126   8.989  10.701  0.0759 -0.0313  0.3375
20584W        W33998  13.139   0.775  16.375 -0.0708  0.4245 -0.1178
20585W        W33999  10.112  13.461   3.158  0.1584 -0.1488  0.1808
20586W        W34000   1.898   2.763   2.570  0.0387 -0.0704  0.1033
20587W        W34001   4.691   9.285  16.376  0.3776 -0.1576  0.3300
20588W        W34002   5.324  13.769  15.354  0.2024  0.2624  0.0694
20589W        W34003  17.169  14.242   3.471 -0.2949  0.0549 -0.2396
20590W        W34004  10.180   8.701   0.357  0.0915  0.0115 -0.4055
20591W        W34005   8.593  10.816   1.690  0.0811  0.0474 -0.2356
20592W        W34006   8.518   6.916   5.307 -0.1836 -0.0538 -0.1648
20593W        W34007   2.497  12.267  13.920  0.1305 -0.0622 -0.2145
20594W        W34008  15.826   7.753   4.986 -0.0847  0.2039  0.0735
20595W        W34009   9.113   0.280   4.102 -0.3502  0.1617 -0.0977
20596W        W34010  12.320  18.183  15.180  0.2604  0.2032  0.0022
20597W        W34011   1.796   9.043  13.898 -0.3352 -0.1835  0.3042
20598W        W34012   9.571  12.658  10.913 -0.2413  0.2632 -0.3071
20599W        W34013  16.673  17.629   3.511 -0.2006 -0.1923  0.1726
20600W        W34014  15.011  13.277  16.477  0.2412 -0.1096  0.1915
20601W        W34015  17.966  10.600   1.963  0.3083  0.2440  0.0478
20602W        W34016  15.857  12.270   5.100  0.0063  0.0477 -0.4129
20603W        W34017  13.988   0.135   5.155  0.1591 -0.2081 -0.1560
20604W        W34018  16.751  11.185   4.178 -0.1554  0.1413  0.0018
20605W        W34019   3.170   8.717  10.670  0.1573 -0.0525  0.0104
20606W        W34020   8.016  16.565   0.766 -0.0551  0.0051  0.1463
20607W        W34021   2.416  13.993   5.736 -0.0123  0.0359 -0.1193
20608W        W34022  12.595  17.305  11.640  0.0946  0.0476 -0.0527
20609W        W34023  13.458  18.170   5.823 -0.3333 -0.3586  0.4115
20610W        W34024  17.622  16.831   3.676 -0.1470  0.3557  0.1383
20611W        W34025   2.057  14.634   4.594 -0.0805 -0.2717 -0.0134
20612W        W34026   3.713   1.143  12.633 -0.0063 -0.0118  0.0267
20613W        W34027  12.687  12.898  16.294 -0.1711  0.3893 -0.1086
20614W        W34028   2.478   6.693  11.953  0.0871  0.0272  0.0428
20615W        W34029   5.657   8.902   4.951  0.1141  0.1353 -0.1672
20616W        W34030   6.550   4.852  15.656 -0.2313 -0.1164 -0.0862
20617W        W34031   5.464  18.163   2.815  0.1902  0.0098  0.2579
20618W        W34032   4.968   6.691  11.167 -0.4890  0.0645  0.0259
20619W        W34033  12.017   3.841  13.622  0.1138  0.0384  0.1107
20620W        W34034  11.793  12.328   5.291 -0.0686  0.1689 -0.3019
20621W        W34035   4.503  16.501  12.561 -0.0810  0.1955 -0.0752
20622W        W34036   6.507   2.096   2.026  0.0320 -0.0139 -0.0288
20623W        W34037  10.188   1.238   1.865  0.1902 -0.0722  0.2177
20624W        W34038  15.867   7.906   5.444 -0.1863  0.0587 -0.3483
20625W        W34039   9.945   1.565   6.293  0.0029 -0.3311  0.2393
20626W        W34040   8.528  16.482   3.471 -0.0436 -0.1186 -0.0431
20627W        W34041   6.300  16.842   5.960  0.1776 -0.2425 -0.0048
20628W        W34042  13.608  10.268  13.053  0.2297  0.1499  0.1506
20629W        W34043  12.423   7.653   2.284 -0.0191 -0.0064 -0.0081
20630W        W34044  13.553  15.847  11.026  0.0801 -0.0978 -0.1327
20631W        W34045  15.175   4.372   5.079 -0.1275 -0.1995  0.2003
20632W        W34046  13.904   6.869  13.349 -0.0166 -0.1731 -0.2549
20633W        W34047  16.084   8.723   0.286  0.2420  0.2137 -0.3084
20634W        W34048   0.237   1.104   1.014  0.0287  0.0793 -0.1727
20635W        W34049   0.588   8.957  14.976  0.0722 -0.1258 -0.0175
20636W        W34050  14.035   7.600   4.340 -0.2793  0.1518 -0.1571
20637W        W34051   6.245  18.093   1.543  0.1176  0.0337  0.3285
20638W        W34052   5.250  12.946  14.140 -0.2310 -0.0299  0.3456
20639W        W34053  11.688   5.207   1.930 -0.1184 -0.0456 -0.0223
20640W        W34054  16.015  10.058  11.841 -0.0150  0.0334 -0.0059
20641W        W34055   8.493   2.594   1.802  0.0864  0.0386 -0.0328
20642W        W34056  14.195   3.908  13.811  0.1665 -0.1889  0.0724
20643W        W34057   0.504  12.646  11.429  0.3380 -0.0670 -0.1439
20644W        W34058  15.277  16.758  15.109  0.5176 -0.0117 -0.2764
20645W        W34059  15.209   5.840   2.161 -0.5089  0.0587  0.1374
20646W        W34060   6.578   2.952   1.457 -0.3517  0.0381  0.0396
20647W        W34061   2.515  14.877   4.524  0.0200  0.0576  0.0254
20648W        W34062   8.265   6.477   2.813  0.1545 -0.1124 -0.5292
20649W        W34063  13.569  14.167   4.811  0.2826  0.0657  0.0156
20650W        W34064   0.897  10.965  15.554 -0.1589  0.1407  0.0570
20651W        W34065  17.791   2.658  14.684 -0.1728  0.0821 -0.2843
20652W        W34066  15.013  16.604  13.156 -0.0137 -0.1221 -0.1452
20653W        W34067   5.548   6.443   5.598  0.2630  0.0628 -0.1989
20654W        W34068   0.306  17.314   2.230 -0.0502 -0.4196 -0.2487
20655W        W34069  11.167   0.077   2.371  0.0216  0.4123 -0.0187
20656W        W34070   3.458   5.802  10.469  0.0378 -0.3308 -0.0169
20657W        W34071   9.326  12.663   2.127  0.3219 -0.1567  0.1731
20658W        W34072  17.585   0.624   1.076 -0.2844  0.3412  0.1784
20659W        W34073   6.118   7.607   0.174  0.2631  0.0157  0.0386
20660W        W34074   7.782   6.488  14.584  0.1957 -0.2511 -0.0529
20661W        W34075   1.043   8.216  14.595 -0.1132 -0.2090 -0.0398
20662W        W34076  14.273   4.877  16.396 -0.1612 -0.1209 -0.0270
20663W        W34077   5.071   1.624  10.402  0.0540 -0.1109  0.0589
20664W        W34078  14.047  16.013   4.311 -0.0542  0.0893 -0.0959
20665W        W34079  11.519   8.830   1.923  0.0220  0.1036  0.0529
20666W        W34080  16.216   3.830   2.123 -0.1976 -0.1281 -0.0775
20667W        W34081   0.472   3.147   5.248 -0.3901 -0.4002  0.1222
20668W        W34082   1.386   9.172   0.893 -0.0323 -0.1849  0.1624
20669W        W34083   9.942  17.161   2.346  0.1114  0.2474 -0.0621
20670W        W34084   9.243   9.663  10.288  0.1783  0.2163 -0.2449
20671W        W34085   2.346   4.355   1.234  0.1607 -0.0770  0.3310
20672W        W34086   4.289  16.096  12.964  0.0371  0.1152  0.2686
20673W        W34087  11.006  10.874   4.898 -0.0941 -0.2804  0.0432
20674W        W34088   2.315   9.597  11.285  0.2717  0.4907 -0.3032
20675W        W34089  14.769   2.191  12.327  0.1809 -0.1924 -0.4569
20676W        W34090  17.802   4.882   2.634 -0.0808  0.0110 -0.1499
20677W        W34091   7.597   2.209   0.954 -0.1013 -0.2440  0.2155
20678W        W34092  10.673  11.697  10.689  0.0837 -0.0023  0.3020
20679W        W34093   6.274  16.767   0.953  0.1237 -0.1549 -0.0171
20680W        W34094  10.253  13.233  14.371 -0.2527  0.0310  0.0837
20681W        W34095   2.348   9.573   0.288 -0.1559 -0.0291 -0.2144
20682W        W34096  11.571   2.264   2.175  0.1888  0.3536  0.2344
20683W        W34097  13.888   9.079   2.130 -0.1276 -0.0618  0.2864
20684W        W34098  11.363   8.081   3.817 -0.1337  0.3323 -0.0527
20685W        W34099  11.460   2.379   0.907 -0.2895 -0.0858  0.1823
20686W        W34100  14.998   7.036  10.283 -0.0679  0.0652  0.1994
20687W        W34101   7.860  17.267  14.041 -0.0107 -0.0509 -0.2075
20688W        W34102  16.958   8.542   1.677 -0.0708 -0.0246 -0.1222
20689W        W34103   5.589  11.948  14.966  0.1301 -0.2900  0.0393
20690W        W34104   7.268  11.947   4.333  0.1645 -0.0743 -0.1860
20691W        W34105  12.304   8.273   0.449 -0.1582 -0.2265 -0.0536
20692W        W34106  13.870  10.907   5.094 -0.0393 -0.1386  0.0629
20693W        W34107  10.945  14.444   5.278 -0.1761 -0.3027  0.2357
20694W        W34108  16.624  11.934   5.184  0.3153 -0.0853 -0.1125
20695W        W34109   5.778  13.675   2.548  0.0277  0.1470  0.1472
20696W        W34110   3.248   1.749   0.125  0.4514  0.1871  0.2757
20697W        W34111  18.174   5.174   0.029  0.0341  0.2943 -0.1697
20698W        W34112   8.491   7.328  11.076 -0.1948  0.1071 -0.0273
20699W        W34113   1.413   3.813   5.338  0.0806 -0.0291  0.2593
20700W        W34114   2.086   9.298  12.173  0.1598 -0.1958 -0.1683
20701W        W34115   5.625  17.770  10.679  0.0990 -0.1862 -0.2104
20702W        W34116   4.148   4.838  14.251  0.1795 -0.2641 -0.3730
20703W        W34117   4.026  10.078  13.757  0.0787  0.2650  0.0003
20704W        W34118  10.127  10.456   3.806 -0.0954 -0.1409  0.0050
20705W        W34119  10.182  17.364   0.950  0.0018  0.1870  0.1567
20706W        W34120   8.944   8.429   3.398 -0.1844  0.4491  0.3175
20707W        W34121   7.366   4.419  13.190 -0.2587 -0.0853 -0.0573
20708W        W34122  16.922  13.192   3.201  0.5372 -0.1225 -0.1221
20709W        W34123   2.179   4.320   4.504  0.3770  0.1046  0.0815
20710W        W34124   5.699  10.127  13.133  0.0986 -0.0210 -0.1259
20711W        W34125   5.688   1.235  12.013  0.3649  0.0518 -0.1992
20712W        W34126  11.472  11.808   0.725  0.2578  0.2095 -0.3136
20713W        W34127   6.655  14.221   1.182 -0.0955 -0.1105  0.1440
20714W        W34128   5.860  13.496  10.582 -0.7386  0.3335 -0.1647
20715W        W34129  11.329   3.706   1.420 -0.1623  0.0989 -0.1111
20716W        W34130  17.461   1.457   4.679 -0.0641 -0.1997  0.1948
20717W        W34131   9.364  13.214  14.046 -0.2454  0.1238  0.2135
20718W        W34132   1.796   0.837  15.851  0.1158  0.0002 -0.0662
20719W        W34133   4.560   6.660   6.114 -0.0331  0.0152 -0.0776
20720W        W34134   3.520  11.827   2.858  0.1870 -0.1752  0.0190
20721W        W34135   9.240   0.937   1.072  0.4964  0.0768  0.2771
20722W        W34136  11.398   2.734  13.350 -0.0113 -0.2625  0.1850
20723W        W34137   3.184  14.872   5.645  0.2729 -0.2913  0.4303
20724W        W34138   6.465   5.720   4.786  0.2691  0.2240  0.0003
20725W        W34139   1.241  17.126   3.135  0.0075 -0.0511  0.0368
20726W        W34140   7.352   3.757   4.868 -0.1223 -0.0249  0.0022
20727W        W34141   2.346  17.191   5.372  0.0691 -0.0029  0.0765
20728W        W34142   2.550   4.252   4.874 -0.0625 -0.1323 -0.0147
20729W        W34143  17.171   9.029  13.446  0.6192 -0.1695 -0.2265
20730W        W34144   7.254  18.219  13.613  0.2043  0.1437 -0.0946
20731W        W34145   2.722  10.432   0.766 -0.1610 -0.2009 -0.0506
20732W        W34146   3.170  14.869   3.270  0.0783  0.0251  0.0255
20733W        W34147  18.104  17.672  15.922 -0.2941 -0.0550  0.2110
20734W        W34148   6.195   8.380   4.395 -0.1828  0.0604 -0.1450
20735W        W34149   6.957   0.712  13.197  0.2498 -0.2115  0.1902
20736W        W34150  12.209  14.545  11.288 -0.0552  0.1971  0.2416
20737W        W34151   0.900   5.502  12.772 -0.2124 -0.1165  0.1307
20738W        W34152  14.021  14.241   2.674  0.2449  0.2755  0.2585
20739W        W34153   5.809   2.682   3.755 -0.2170  0.2317  0.0419
20740W        W34154  11.468   5.758   4.006  0.1936 -0.2143 -0.0144
20741W        W34155  13.739   4.551   0.941  0.0378 -0.2750 -0.1431
20742W        W34156  17.608  14.554  12.929  0.0432  0.3740 -0.4040
20743W        W34157   9.588   7.166  15.628  0.3946 -0.4235 -0.2835
20744W        W34158   8.318  12.243   4.931 -0.1012  0.0327 -0.0529
20745W        W34159   0.771   0.812  13.358  0.0927  0.1089  0.0251
20746W        W34160  15.997  11.893  11.524  0.1040  0.2281  0.1390
20747W        W34161  17.042  14.302  15.286 -0.0571  0.1800 -0.0461
20748W        W34162   0.938  10.511  12.406 -0.2791 -0.0644 -0.1108
20749W        W34163  17.966  17.938  14.574  0.0496  0.2508 -0.0872
20750W        W34164   2.110   1.698   1.999  0.2531 -0.0723  0.1651
20751W        W34165  14.337   3.033  15.955 -0.0577  0.2494 -0.1560
20752W        W34166   8.208   6.504   4.429 -0.0406  0.0218  0.0511
20753W        W34167   2.659   6.485   3.081 -0.1011 -0.0751  0.0935
20754W        W34168   8.436   0.909   5.664  0.0259 -0.3481  0.2526
20755W        W34169   6.529  12.975  16.218 -0.1609 -0.1979 -0.1657
20756W        W34170   9.747   2.771  15.909  0.0263  0.2430 -0.2489
20757W        W34171   4.756   1.187  10.357  0.2671  0.0162 -0.0096
20758W        W34172   8.960   9.420  11.561 -0.1122  0.1429 -0.2515
20759W        W34173  12.297  10.781   1.346  0.0710 -0.0820 -0.1995
20760W        W34174   3.409   3.067   1.882  0.1421 -0.0010 -0.0604
20761W        W34175   5.998  14.646  15.576  0.0981 -0.0753 -0.3480
20762W        W34176   9.737   3.624  10.972  0.4474 -0.1681  0.0809
20763W        W34177  16.544  10.348   5.245 -0.1964 -0.1663 -0.1945
20764W        W34178   0.743  14.687  14.315  0.0635 -0.1275  0.1373
20765W        W34179   7.813   6.148   2.213 -0.5695 -0.1679 -0.0155
20766W        W34180  15.594   7.068  10.054 -0.3115  0.2489 -0.3659
20767W        W34181   5.074   9.068   4.189  0.0311  0.0070  0.0531
20768W        W34182   9.523   6.168  11.224  0.1228 -0.0330  0.0542
20769W        W34183   2.568   0.968   3.004  0.1181 -0.1317  0.0319
20770W        W34184   7.468   9.933  10.538 -0.3116 -0.1737  0.2992
20771W        W34185   1.322   1.417  13.728 -0.4435  0.3663 -0.1341
20772W        W34186   7.057  12.920   0.929 -0.1489  0.1844  0.2766
20773W        W34187  15.882   2.367  14.095 -0.1374  0.0323 -0.1407
20774W        W34188  17.137  13.884   0.496 -0.2136  0.0852 -0.0745
20775W        W34189  13.082  14.331   3.795 -0.1735 -0.2455 -0.3620
20776W        W34190  14.875  13.510   3.017  0.2608  0.1404 -0.1883
20777W        W34191  11.941   0.819   2.356  0.0971  0.2294  0.0692
20778W        W34192   1.832  10.285  12.862  0.1384  0.1145 -0.0261
20779W        W34193   5.355   7.025  15.584 -0.3404  0.2136  0.1302
20780W        W34194   8.359   0.027   5.561 -0.1584 -0.1887 -0.1472
20781W        W34195   6.188   4.455  15.785  0.0473 -0.6430  0.0775
20782W        W34196  16.830  16.930   3.510  0.2100  0.0221  0.0201
20783W        W34197  14.703  11.787  14.042  0.1157  0.5057  0.0081
20784W        W34198  15.780   8.024   0.029  0.0444 -0.4147  0.0608
20785W        W34199  10.666   8.924   2.942 -0.3038  0.1697 -0.2038
20786W        W34200   5.166   8.980   0.553 -0.0830  0.2512  0.1297
20787W        W34201   9.142   3.481  15.556 -0.2728 -0.1821  0.3555
20788W        W34202   4.634  14.459  15.738  0.1841 -0.3269 -0.1643
20789W        W34203  11.683   0.533   1.793  0.4856 -0.2570  0.4010
20790W        W34204   7.701   1.466   0.312 -0.2440  0.0777 -0.2576
20791W        W34205  13.738   7.765  15.030 -0.0467  0.0105  0.1768
20792W        W34206   7.085  10.742   4.179  0.0806  0.0429 -0.0026
20793W        W34207   3.582   2.075  13.641 -0.0246 -0.1805  0.1388
20794W        W34208   2.784   5.960  14.652 -0.1493 -0.0552  0.2639
20795W        W34209   0.980   1.521  10.509  0.2996 -0.1248 -0.0823
20796W        W34210  14.539   3.609  16.475  0.3106  0.1958  0.2435
20797W        W34211  13.321  15.358   4.485 -0.1683  0.0378  0.1318
20798W        W34212   4.835  12.855   2.783 -0.0237 -0.0013  0.1743
20799W        W34213   5.374   5.679   5.541  0.3981 -0.0269 -0.1320
20800W        W34214   6.050  17.545   3.355  0.1207 -0.1007  0.1159
20801W        W34215  15.733  12.521   4.689  0.1572 -0.4323  0.0989
20802W        W34216   6.326   5.996  13.084  0.1142 -0.0236 -0.2538
20803W        W34217   6.221   8.718  13.204  0.3452  0.0284  0.2162
20804W        W34218   2.069   8.999  13.072 -0.0079 -0.2399 -0.1418
20805W        W34219  16.861   5.520   1.278 -0.2744 -0.0411 -0.0479
20806W        W34220   7.077  16.377   5.369 -0.0315 -0.2038  0.0075
20807W        W34221  16.227   6.151   0.588 -0.0587 -0.2446  0.0386
20808W        W34222   2.075   3.896  12.365  0.2562  0.3759 -0.0818
20809W        W34223  16.693   6.177  11.267 -0.3471  0.2589 -0.1562
20810W        W34224  17.236  17.917   1.438  0.0294 -0.2913 -0.1784
20811W        W34225  16.188   8.804  11.494 -0.4250  0.0218 -0.2437
20812W        W34226  15.347   3.554  11.864  0.1744  0.1644  0.0322
20813W        W34227  10.977  13.179   0.051 -0.1432 -0.1517  0.0960
20814W        W34228   2.767   4.434   2.523 -0.4906  0.0301  0.0768
20815W        W34229   4.147   3.697  12.977 -0.0662 -0.2465  0.0484
20816W        W34230   0.448  11.837  13.696 -0.0945  0.1118 -0.1948
20817W        W34231   8.112   1.121   3.233  0.2567 -0.3414  0.0210
20818W        W34232  17.988   3.464   2.200  0.0473 -0.1171 -0.2457
20819W        W34233  17.539   2.969  16.008 -0.1010  0.2330 -0.1405
20820W        W34234  16.788   4.848  15.384 -0.0144  0.1763  0.4186
20821W        W34235   9.016   3.451   6.207  0.0834  0.1274  0.3785
20822W        W34236  16.330  14.236   5.359  0.2041  0.1338 -0.0803
20823W        W34237  13.816   8.485  10.138 -0.2601 -0.0464  0.0380
20824W        W34238   4.220  15.091   1.340 -0.1121 -0.2518  0.1648
20825W        W34239   9.684   9.896   0.066  0.1070  0.2076  0.0844
20826W        W34240  11.274   9.189  11.014  0.2522  0.2181  0.1428
20827W        W34241  12.511   8.556  11.233 -0.3999  0.4214  0.0166
20828W        W34242   1.567  14.989   3.917 -0.2115  0.1690 -0.1174
20829W        W34243   5.507   0.960  12.843  0.0139 -0.0852 -0.2126
20830W        W34244   8.394   3.010  12.495  0.0750 -0.0291  0.0930
20831W        W34245   0.175   0.297  13.906 -0.0123 -0.1912  0.5123
20832W        W34246   4.031  14.959  11.543 -0.0909  0.0558 -0.0633
20833W        W34247  15.102   3.987   4.605  0.1697 -0.0342  0.0790
20834W        W34248  11.574   6.758   0.018 -0.0274  0.0285 -0.3835
20835W        W34249  15.555   3.161   4.375 -0.0450 -0.0748  0.1517
20836W        W34250   2.668   8.674  14.188  0.1756  0.0829 -0.1075
20837W        W34251   2.842   4.532  14.048 -0.3177  0.0999 -0.1985
20838W        W34252  16.089  17.756   5.346  0.3028  0.0831  0.4282
20839W        W34253   7.222   8.421   0.059  0.1859 -0.1417 -0.0228
20840W        W34254  11.987   9.909  11.247 -0.3782 -0.1474  0.0483
20841W        W34255  15.096  10.269   5.107  0.0042  0.0395 -0.2665
20842W        W34256  17.027   3.748   2.462 -0.2201  0.1961 -0.0064
20843W        W34257   6.905   6.770  12.893 -0.0315  0.0431 -0.4444
20844W        W34258   1.546  10.280   2.930 -0.0992 -0.0507  0.2635
20845W        W34259  13.793   0.707   2.767 -0.1294  0.0306  0.0399
20846W        W34260  13.780  17.332   1.954 -0.0326 -0.2204 -0.2878
20847W        W34261  10.599  16.199  11.060 -0.0148 -0.0164 -0.0935
20848W        W34262   2.015  10.958   5.526  0.3244  0.0654  0.2319
20849W        W34263  15.305  14.184  13.091 -0.3570 -0.2918 -0.0242
20850W        W34264  18.128  10.928   1.509  0.1353  0.0676  0.1943
20851W        W34265   8.588   3.465   1.531 -0.0583  0.1869  0.0229
20852W        W34266   4.811   0.998  14.252  0.2748  0.1542  0.3930
20853W        W34267  12.257   6.477   1.363  0.0064  0.2107 -0.3215
20854W        W34268   4.984  10.340  15.901 -0.3470 -0.1528 -0.0853
20855W        W34269   7.985   4.204  15.483  0.0633 -0.1717 -0.1677
20856W        W34270   4.757  11.691   4.326  0.0977  0.0084 -0.0109
20857W        W34271   1.691   2.915  13.566 -0.1533 -0.0924 -0.0680
20858W        W34272   2.081  17.234   4.372  0.0515  0.0756  0.0557
20859W        W34273  17.038  15.306   5.911  0.1034  0.3635  0.1371
20860W        W34274   4.885   9.192   5.278  0.0488 -0.1318  0.0266
20861W        W34275   4.004   6.860   0.260 -0.1300  0.1219 -0.0968
20862W        W34276   2.086  16.125  11.532  0.0683 -0.1303  0.3047
20863W        W34277   8.802   5.610  10.534  0.1996  0.0342  0.1524
20864W        W34278   4.772  12.301  11.663 -0.0161 -0.1590  0.1894
20865W        W34279  17.491   8.905  14.515  0.1148  0.2724 -0.0193
20866W        W34280  10.772   3.058  16.463  0.3040 -0.0939 -0.0543
20867W        W34281  11.812   0.743  16.267 -0.2455  0.1088  0.2170
20868W        W34282   4.981   2.895   4.895  0.2514  0.1638  0.1054
20869W        W34283  12.338  12.403   2.164  0.3199 -0.3397  0.0094
20870W        W34284   1.325  14.645  16.535 -0.1038  0.2178  0.3720
20871W        W34285   8.609  14.213   0.103 -0.3157 -0.0474 -0.1066
20872W        W34286  14.330  16.647  12.596  0.0589 -0.0903  0.2083
20873W        W34287   6.561   6.001  14.004  0.0483 -0.2281  0.0989
20874W        W34288   8.442   8.162   4.032  0.3409  0.1381  0.0778
20875W        W34289  15.583   8.726   5.260 -0.1269 -0.0255  0.3864
20876W        W34290   5.393  14.991   6.044 -0.1301 -0.1220  0.0226
20877W        W34291  10.203   9.617  11.412 -0.1461  0.1563 -0.1438
20878W        W34292  14.272   0.168  16.060 -0.1697  0.1083 -0.1158
20879W        W34293  15.794  14.336   0.010  0.2549  0.3462 -0.0441
20880W        W34294   5.987  13.193  13.768  0.2764  0.0995 -0.1430
20881W        W34295  12.757   9.454   4.941  0.2328 -0.0905 -0.0751
20882W        W34296  12.196   0.009   4.684 -0.2286  0.1282 -0.2865
20883W        W34297   3.494  16.340   3.149 -0.3341  0.0135  0.1333
20884W        W34298   8.033  14.860   1.144 -0.0311  0.1563  0.0835
20885W        W34299   9.496  14.619   1.108  0.0237 -0.3334  0.2133
20886W        W34300  11.927   1.219  11.272 -0.1310  0.3405  0.1552
20887W        W34301  13.265   6.713   5.439  0.3574  0.0329 -0.1228
20888W        W34302  12.514  15.178   5.350 -0.1163  0.4016  0.2992
20889W        W34303   5.246  11.196  16.364 -0.0879 -0.2229 -0.2193
20890W        W34304  11.879  11.417   0.035 -0.0001 -0.1477  0.2692
20891W        W34305   8.364  14.344   5.563  0.0135  0.1386 -0.2337
20892W        W34306  14.820  14.697   1.284  0.1029 -0.0954  0.0155
20893W        W34307   4.349  14.796  14.691 -0.0900 -0.0958  0.0746
20894W        W34308  13.001   7.220  14.164  0.1672  0.0417 -0.1078
20895W        W34309  15.143   4.483  14.437 -0.1603  0.2765  0.3201
20896W        W34310   9.529  12.567  12.801 -0.0245 -0.0564 -0.1259
20897W        W34311   5.694  13.175   6.108 -0.2584  0.0783  0.1593
20898W        W34312  10.515   9.685   5.042 -0.1006  0.1843  0.0925
20899W        W34313  14.531   5.682   4.748 -0.1876 -0.4418  0.0938
20900W        W34314  15.778   4.051   3.256  0.2355  0.3670 -0.3242
20901W        W34315  10.634   0.185   2.357  0.1033  0.3022 -0.0238
20902W        W34316  12.335   7.779   0.429 -0.0015  0.1671 -0.1268
20903W        W34317  12.220  14.413  12.147  0.2063 -0.0555  0.0347
20904W        W34318   6.045  16.085  10.877  0.1566  0.0377  0.4064
20905W        W34319   5.034  15.127   3.531  0.1456 -0.2020 -0.0278
20906W        W34320  17.443  12.888  12.623 -0.1966 -0.5591  0.3743
20907W        W34321  17.242   1.310   3.007 -0.1349  0.0136  0.1202
20908W        W34322   6.385   3.902   0.986 -0.1125  0.0970  0.2574
20909W        W34323   6.294   4.076  13.180  0.3525 -0.0953 -0.0543
20910W        W34324   0.717   2.137   4.607 -0.2359 -0.0240  0.0890
20911W        W34325  14.148   6.640  14.578  0.0442  0.1193  0.0117
20912W        W34326   4.166  14.112   6.044 -0.1551  0.0503 -0.3030
20913W        W34327   5.592  11.890  15.568 -0.0568 -0.0596  0.0580
20914W        W34328  10.368  12.840   3.505 -0.1184  0.2474 -0.2113
20915W        W34329  11.057   2.438  11.902 -0.2940 -0.0373  0.0709
20916W        W34330  14.657   2.960  14.628  0.3806  0.0027 -0.1457
20917W        W34331   4.208  10.688  13.115 -0.3414 -0.2139 -0.2277
20918W        W34332   4.613   8.847   3.345 -0.0740  0.0905 -0.1869
20919W        W34333   0.120  11.177  15.180 -0.0808  0.2605 -0.0940
20920W        W34334   3.164  15.651  13.266 -0.0178  0.0260  0.2944
20921W        W34335   0.769   5.363  13.857 -0.0558 -0.2404  0.2465
20922W        W34336   8.627   5.243   0.178 -0.0732 -0.1513  0.1118
20923W        W34337  13.366  17.919   5.419 -0.1873  0.2810  0.0004
20924W        W34338   7.934  17.185   2.174  0.1249  0.0782 -0.2808
20925W        W34339   7.075   7.107   0.744  0.1459  0.1997  0.3582
20926W        W34340   5.149   2.005   3.684 -0.1396 -0.1927 -0.1779
20927W        W34341  11.518  10.184   3.117 -0.1519  0.1183  0.2141
20928W        W34342   1.938   8.628  12.345  0.0220 -0.1464 -0.0648
20929W        W34343  12.855   9.214  12.094 -0.0582  0.2081  0.2735
20930W        W34344  12.695   5.127  12.856 -0.4103 -0.1315  0.0029
20931W        W34345   0.157   0.531   3.537  0.0409  0.1525 -0.1513
20932W        W34346  14.406  15.682   2.056  0.2273  0.2086 -0.0164
20933W        W34347   1.069  17.427   1.889  0.1158 -0.1483 -0.1632
20934W        W34348   8.773  12.507   3.973  0.4360 -0.2142  0.0477
20935W        W34349   3.152   1.552   0.892 -0.4290 -0.1590 -0.1570
20936W        W34350  14.408  11.125  11.303  0.0403  0.0162  0.0922
20937W        W34351  16.762  13.891  12.209  0.0464 -0.1202 -0.3453
20938W        W34352   7.432  11.837   1.776  0.2825  0.2243  0.0344
20939W        W34353  10.806   5.036   5.085  0.3111 -0.0546  0.0852
20940W        W34354   7.268   9.497  14.751  0.0429 -0.0370  0.1317
20941W        W34355   1.686   9.034  12.157 -0.0201  0.0473 -0.0809
20942W        W34356  16.596  18.018   2.599 -0.1311  0.0427  0.1006
20943W        W34357  17.923   8.111   5.060  0.1819 -0.1087  0.1046
20944W        W34358   4.902   0.308   3.230  0.1811 -0.0530 -0.3122
20945W        W34359  16.977  10.648  13.420  0.1241 -0.1572  0.1936
20946W        W34360  12.004   0.368   2.581  0.1322  0.1985  0.4109
20947W        W34361   7.109   1.587   3.162 -0.0424 -0.0645  0.2528
20948W        W34362  11.101   0.636   4.323 -0.0800 -0.1700 -0.2580
20949W        W34363  11.812   9.732   6.165  0.0522 -0.2934 -0.2042
20950W        W34364   9.970   7.353  13.333  0.1145 -0.0749 -0.0617
20951W        W34365  14.843   2.736  15.043 -0.0629  0.1966  0.4645
20952W        W34366   3.827  16.035   3.382 -0.0175 -0.1098  0.3333
20953W        W34367   0.883  13.520   2.734 -0.4279 -0.0273  0.2214
20954W        W34368   0.333  14.376  11.962 -0.0122  0.0918 -0.0454
20955W        W34369  11.210   3.269   1.098  0.3604 -0.0844 -0.2257
20956W        W34370   7.391   6.901  15.932  0.2262 -0.2491  0.1317
20957W        W34371   2.268  10.212  13.107 -0.2405 -0.3069 -0.1915
20958W        W34372  14.163  12.669   2.070  0.2466 -0.0255 -0.1194
20959W        W34373  15.484  12.856   5.574 -0.2381 -0.1236 -0.0455
20960W        W34374   4.368  12.200   4.990 -0.2490 -0.0771  0.0647
20961W        W34375   4.557  12.821  12.364  0.0308 -0.1839 -0.0481
20962W        W34376   2.143  12.899  15.907  0.2709 -0.1036 -0.1313
20963W        W34377   6.072  10.338  11.972 -0.2813 -0.0703 -0.0832
20964W        W34378  14.669  15.371  13.198 -0.1363 -0.2828  0.0949
20965W        W34379   3.980   6.020   0.909  0.0609  0.1042 -0.0318
20966W        W34380  13.288   9.888   4.352 -0.0219  0.0553 -0.0284
20967W        W34381  13.482  16.859  12.906  0.0661  0.0064 -0.1512
20968W        W34382   8.717   7.234   4.996 -0.1051 -0.0103 -0.1191
20969W        W34383  15.823   2.379  10.637 -0.4012  0.1029 -0.2200
20970W        W34384   3.936   1.310  16.012 -0.1337 -0.0153 -0.2232
20971W        W34385  17.389  14.782   6.406  0.0843  0.1727 -0.1685
20972W        W34386   0.396  15.449  13.447  0.0146 -0.1320 -0.1436
20973W        W34387  12.774  13.317   0.035 -0.1632 -0.0795  0.1850
20974W        W34388  11.968   4.020   5.186 -0.1047  0.0907  0.1807
20975W        W34389   8.112  17.813   4.143 -0.1759 -0.0847 -0.2171
20976W        W34390  14.391  16.791  15.994 -0.1257  0.0674  0.0781
20977W        W34391  12.287   8.567   4.574  0.1087 -0.1779  0.0603
20978W        W34392  15.990  14.984   0.375  0.1120  0.0925 -0.1476
20979W        W34393  17.352  12.463   5.507  0.0173 -0.2437 -0.2922
20980W        W34394   4.536   3.299  11.843  0.2330 -0.1644  0.1109
20981W        W34395   4.744  14.254  11.073  0.1162 -0.3099  0.0360
20982W        W34396  10.631   7.382  15.182 -0.1447 -0.1076  0.0695
20983W        W34397   3.282  13.412   4.762 -0.2554 -0.0955  0.1685
20984W        W34398  16.466  16.752  15.707  0.2097  0.1227 -0.0472
20985W        W34399  13.105  13.891  14.131  0.2115  0.0224 -0.1299
20986W        W34400  14.364  15.423   5.394 -0.2810  0.0368  0.0043
20987W        W34401   1.599   2.938   5.264 -0.4024 -0.1756  0.2604
20988W        W34402  16.107   5.722  15.524  0.2692 -0.0155 -0.3884
20989W        W34403  10.304   5.976  11.639  0.3460  0.0437 -0.0529
20990W        W34404   5.336  15.050  15.931  0.2219  0.2455  0.1274
20991W        W34405  13.312   1.074   0.408  0.2017  0.0487 -0.1919
20992W        W34406   0.794   4.072  10.540 -0.1029  0.1884  0.2020
20993W        W34407  16.577  16.712  10.626  0.0780  0.0308  0.0572
20994W        W34408   6.013  16.753   5.544 -0.0557  0.0065  0.3440
20995W        W34409  12.586  14.140   3.906 -0.2119  0.2962  0.2569
20996W        W34410   7.988  17.463   0.096  0.0552  0.0466  0.0011
20997W        W34411   5.526   5.719  12.414 -0.1526  0.0246 -0.4291
20998W        W34412  12.759   6.616  15.163  0.0270 -0.3664  0.0889
20999W        W34413   4.631   7.793   0.940 -0.0083 -0.3737  0.0603
21000W        W34414  11.594  11.606   2.150  0.1461  0.3008  0.0571
21001W        W34415   7.712   5.374  11.783 -0.2625 -0.3805 -0.1700
21002W        W34416  12.187   9.453  11.038  0.1299 -0.1255 -0.0070
21003W        W34417   3.451   5.455  11.708  0.0456 -0.0062  0.0636
21004W        W34418  16.296  14.013  12.405 -0.1759  0.1860  0.0571
21005W        W34419  16.711  14.224   1.230 -0.2632  0.0153  0.0868
21006W        W34420   8.657   1.149  16.470 -0.0870 -0.2445  0.3008
21007W        W34421   0.548  13.004  16.266  0.0262 -0.2970  0.1128
21008W        W34422   4.220   5.612   3.613  0.2065  0.0944 -0.0018
21009W        W34423   3.135  14.232  14.746 -0.0295 -0.0546 -0.0000
21010W        W34424   5.750   8.606  13.380 -0.0515 -0.2560 -0.6512
21011W        W34425   5.998  12.139   3.967  0.2493 -0.1180  0.2999
21012W        W34426   6.841  16.984  12.655 -0.1124  0.2335 -0.0894
21013W        W34427   8.570   1.742   6.355  0.0216  0.1076 -0.1538
21014W        W34428   8.110   1.849   6.519 -0.2194 -0.2863 -0.1775
21015W        W34429   5.745   5.283  14.433  0.0741 -0.0841 -0.0489
21016W        W34430  16.071  15.692   4.580 -0.2736 -0.3347 -0.0346
21017W        W34431   9.926   5.164  11.842 -0.0299  0.0240 -0.3630
21018W        W34432   7.866  12.522   0.080 -0.1250 -0.1934 -0.0892
21019W        W34433   5.862   0.318   3.792 -0.4186  0.1528  0.1639
21020W        W34434   8.319  17.882  13.096 -0.1285  0.0060  0.1437
21021W        W34435  11.633   4.932   3.681  0.0155  0.0696 -0.1119
21022W        W34436  14.965   6.462   3.387  0.2140  0.0538  0.0042
21023W        W34437  14.137  16.630   2.164 -0.1216 -0.0958  0.0676
21024W        W34438   8.305  17.096   0.945  0.1589 -0.3734  0.0511
21025W        W34439   4.803   5.238  16.312 -0.2436  0.0104 -0.2629
21026W        W34440   0.255   5.871  11.028  0.1358  0.0679 -0.1064
21027W        W34441  13.162   1.281   3.865  0.0120  0.3973  0.0726
21028W        W34442  11.456  11.694  13.805  0.1382  0.2651  0.2311
21029W        W34443   1.994  11.047   3.918 -0.0954  0.2426  0.4497
21030W        W34444   9.735   5.052  12.365  0.1169 -0.2922  0.3035
21031W        W34445  15.356   1.964  12.723  0.3420 -0.1209 -0.3988
21032W        W34446   1.621   9.179   0.460  0.2880 -0.1708  0.1139
21033W        W34447   0.428  11.089   2.948 -0.1126  0.0298 -0.3013
21034W        W34448   8.744   8.883   4.460  0.2047  0.0804  0.2236
21035W        W34449  11.221  13.150  11.849 -0.2530  0.2722 -0.1488
21036W        W34450   0.544   2.096  13.465  0.0176  0.1672 -0.0498
21037W        W34451   5.567  15.749   3.237 -0.0531 -0.0184  0.2012
21038W        W34452  15.569   2.247   0.855  0.0562 -0.0457 -0.2371
21039W        W34453   4.756   0.466  15.360 -0.1237 -0.0862  0.2153
21040W        W34454  14.645   9.916  12.186 -0.3766 -0.2228 -0.1430
21041W        W34455   7.655  14.538  15.199 -0.1720 -0.0592  0.1895
21042W        W34456   6.730  11.058  14.147 -0.1904  0.2314 -0.0076
21043W        W34457  12.840   2.488   4.053  0.1066  0.3350 -0.1248
21044W        W34458   7.453   5.038   6.163 -0.1060 -0.3518 -0.0759
21045W        W34459   6.831  14.416  11.652  0.0379  0.0877 -0.1169
21046W        W34460   5.405   2.242  16.416  0.0636  0.4791  0.0403
21047W        W34461  11.531  15.505  16.401  0.1918  0.1560 -0.0047
21048W        W34462   2.821  13.105  12.003  0.2026 -0.0618 -0.0043
21049W        W34463   4.239  16.511  16.040  0.1925 -0.0611  0.2498
21050W        W34464  17.871   4.098  15.942  0.0657 -0.1969  0.0612
21051W        W34465  18.244   7.059  10.068  0.0309  0.0718  0.1230
21052W        W34466   4.297  12.516  10.250  0.1258  0.0375 -0.1530
21053W        W34467   8.538  17.585   3.688  0.2096  0.0158 -0.4604
21054W        W34468   9.533   9.157   1.044  0.2529 -0.2961 -0.0078
21055W        W34469  10.653   9.280  15.604 -0.0188 -0.0881  0.4435
21056W        W34470   4.237  15.327   0.485 -0.0194  0.1726 -0.0503
21057W        W34471  17.450  16.761   2.963 -0.0312  0.2387 -0.4234
21058W        W34472  11.216  11.045   1.162  0.3310 -0.1306 -0.0494
21059W        W34473   6.147   8.659  12.272  0.3044 -0.1940 -0.2240
21060W        W34474  14.439  15.847   4.617 -0.4381  0.1122  0.0625
21061W        W34475  14.162  16.237  15.779 -0.0398 -0.2847 -0.3172
21062W        W34476  10.614   2.241  13.493  0.0724  0.0166  0.0708
21063W        W34477   7.297  10.986  12.885 -0.1895  0.1580  0.0917
21064W        W34478   7.622   3.946   3.287 -0.4866 -0.1513  0.3354
21065W        W34479  11.434   3.977  13.961  0.0121  0.2454  0.2436
21066W        W34480   3.484  13.573  15.537  0.1365 -0.0488 -0.0948
21067W        W34481   0.959  16.905  15.357 -0.0747  0.2789  0.0020
21068W        W34482   5.199  17.712   4.889  0.0400 -0.0269 -0.0823
21069W        W34483  17.009   0.267  10.564  0.0169 -0.1341 -0.1950
21070W        W34484  16.659   6.076  14.554  0.1447  0.1368  0.0555
21071W        W34485   2.009   5.947  10.368 -0.0300  0.2151  0.0468
21072W        W34486   4.706   9.030   0.730  0.0166 -0.0227 -0.1384
21073W        W34487   2.506  11.023  16.103  0.0948 -0.1454  0.0555
21074W        W34488   6.685   6.769  12.107  0.0529  0.1671 -0.3231
21075W        W34489  11.551   6.615  10.358 -0.3383 -0.1117  0.1095
21076W        W34490  15.887   3.294  11.119  0.0666  0.1395 -0.1281
21077W        W34491   1.852  15.806  16.521  0.1440 -0.3325  0.1276
21078W        W34492   5.378   9.824   0.898 -0.1198  0.2108  0.3267
21079W        W34493  15.312   3.133   1.007 -0.1277 -0.2928  0.1172
21080W        W34494   2.619  11.499   3.587  0.0408 -0.2283  0.0974
21081W        W34495   4.685   2.114   5.431 -0.0536  0.2481 -0.1131
21082W        W34496  13.165   8.307   9.519 -0.1496 -0.1036 -0.1558
21083W        W34497  10.991   3.507   6.495  0.1363 -0.2102 -0.1438
21084W        W34498  17.292   7.799   3.055  0.0597  0.1297 -0.3547
21085W        W34499  13.028   6.383   1.268 -0.2146  0.0249 -0.1091
21086W        W34500  14.229  17.302   1.659 -0.1586 -0.1566 -0.2123
21087W        W34501   1.606  12.412   5.623 -0.1318 -0.0907 -0.1030
21088W        W34502  10.977  11.682  11.547  0.0357 -0.0922 -0.0080
21089W        W34503  11.501   3.958  15.830  0.0841  0.0284  0.1196
21090W        W34504   7.654  14.309   4.484  0.3158  0.1500 -0.0151
21091W        W34505   0.898  14.343  15.659 -0.0978  0.1162 -0.2783
21092W        W34506   7.505   3.535   5.570 -0.0097  0.0216 -0.0242
21093W        W34507   0.615  14.637  12.790 -0.0410 -0.0978 -0.1642
21094W        W34508   5.725  10.360   0.037 -0.4412  0.1780  0.1450
21095W        W34509  12.175   0.156   2.147 -0.2062  0.0874 -0.1689
21096W        W34510  10.866   9.931   2.883 -0.3632  0.1440  0.2548
21097W        W34511  18.259   0.276   2.474  0.1426 -0.3209 -0.1130
21098W        W34512   3.886  13.525  14.014 -0.0988  0.0158 -0.0470
21099W        W34513  17.092   2.390   4.314 -0.1835  0.1072  0.0031
21100W        W34514   5.465   7.987  12.778  0.0568  0.1969  0.2207
21101W        W34515   0.120  10.928   5.731 -0.0807  0.0487 -0.0228
21102W        W34516   2.420   7.076  16.062 -0.0443  0.0204 -0.1990
21103W        W34517   7.730   1.286   1.100 -0.1244  0.2984 -0.0936
21104W        W34518  15.347  14.257   0.428 -0.0889 -0.4234  0.1449
21105W        W34519   9.499  11.390  13.326 -0.0110  0.3533  0.1224
21106W        W34520  10.011   3.965   5.740  0.0794  0.1790 -0.1470
21107W        W34521   3.935   5.685   3.985 -0.1960 -0.3231  0.0895
21108W        W34522   2.360   2.930  14.727 -0.1640  0.3181  0.1187
21109W        W34523  14.417   4.040   1.660  0.1181 -0.1770 -0.1369
21110W        W34524  14.531   1.380  13.414 -0.0956  0.0691  0.3233
21111W        W34525  11.272   6.649  15.823 -0.1732  0.2266  0.0031
21112W        W34526   9.328  14.444   3.393 -0.4115 -0.0005  0.0082
21113W        W34527   9.991   1.895   4.865  0.0284 -0.0056 -0.0807
21114W        W34528  16.801   5.898  12.325  0.0078  0.0908  0.0702
21115W        W34529   7.291  13.685  11.720 -0.0730  0.0403 -0.0219
21116W        W34530   2.416  14.616  12.453  0.1312  0.0705  0.0914
21117W        W34531   4.992  11.331  12.588 -0.0922 -0.0322  0.1120
21118W        W34532  15.489   1.377   3.359  0.0200 -0.1580  0.2183
21119W        W34533  13.363   5.165   1.419  0.1184 -0.1805  0.1201
21120W        W34534   7.544   9.924   0.192 -0.0481 -0.1113  0.2717
21121W        W34535  13.364   3.419  10.635 -0.1464 -0.0039  0.0262
21122W        W34536  15.898   3.828   5.010 -0.1226  0.3347 -0.1779
21123W        W34537   8.071  16.772  13.917 -0.0639  0.0504 -0.1400
21124W        W34538  15.807   1.634   3.060  0.3375  0.0723 -0.1902
21125W        W34539  15.890  14.863  12.433 -0.1060 -0.0265 -0.1603
21126W        W34540   5.631   8.487   0.232 -0.2345  0.1018  0.2144
21127W        W34541   7.244  15.643  14.646  0.3683  0.1243  0.2874
21128W        W34542  11.004  15.697   3.206  0.1471 -0.0119 -0.1027
21129W        W34543  11.315   3.684   5.835  0.0324  0.0265  0.1361
21130W        W34544  12.791   7.965   2.881  0.1815 -0.3628 -0.0653
21131W        W34545  14.906  16.535   0.482 -0.0311 -0.1246  0.3679
21132W        W34546   0.540   1.968  16.522 -0.0990  0.1250  0.2936
21133W        W34547   2.037  17.528  13.511  0.3363 -0.4146 -0.0007
21134W        W34548   9.604   9.459  13.131 -0.0146  0.2143 -0.0304
21135W        W34549  12.401   6.068   3.147 -0.1382 -0.2289 -0.1838
21136W        W34550  13.511  10.068  12.590 -0.1330  0.0275 -0.1173
21137W        W34551  14.151  13.871   3.045 -0.0875  0.2672  0.0982
21138W        W34552  13.980  15.387   5.678 -0.0520 -0.4047 -0.0338
21139W        W34553   3.126  16.929   2.844  0.0026  0.0364 -0.0851
21140W        W34554   7.530  11.393   3.577 -0.0613 -0.0268  0.0732
21141W        W34555  10.609   3.292   1.096 -0.3204 -0.0272 -0.1129
21142W        W34556  13.749   2.913  11.208  0.2057  0.1377  0.2643
21143W        W34557   8.891   5.445  13.939  0.0662  0.3733  0.0971
21144W        W34558  16.566  15.577   4.947 -0.0801  0.1063  0.1506
21145W        W34559  12.507  17.695   6.081 -0.0888 -0.1941  0.0940
21146W        W34560   6.094  10.454  12.932  0.0194 -0.0285  0.0211
21147W        W34561  15.662  10.435   5.817 -0.0320 -0.2125 -0.4068
21148W        W34562  12.988   8.051  10.372  0.0409  0.2767  0.0134
21149W        W34563  11.949   1.498   6.424  0.0280 -0.2439  0.3960
21150W        W34564  14.426   5.062   4.364  0.1032 -0.0019  0.0989
21151W        W34565   7.874  15.145   2.560 -0.2450  0.3359 -0.3889
21152W        W34566   7.187   1.317   2.269 -0.1623 -0.0855  0.0017
21153W        W34567  12.474   4.567   3.835 -0.1604  0.0993  0.0819
21154W        W34568  10.206   9.200   4.531 -0.1697  0.0708  0.0961
21155W        W34569  15.921  18.056   3.882  0.0419 -0.1071  0.0153
21156W        W34570   1.025  10.535  14.325  0.1366  0.2507 -0.0120
21157W        W34571   0.355  16.395   0.570 -0.1953  0.2785 -0.0625
21158W        W34572   4.254   6.430   2.657  0.0238 -0.1850 -0.3775
21159W        W34573  13.973  11.324  14.976  0.3065 -0.0572  0.0144
21160W        W34574  17.640  13.685  13.146 -0.0162 -0.0712  0.2525
21161W        W34575   0.662  13.970   5.808 -0.2750 -0.2103  0.1794
21162W        W34576  17.188   9.099  12.020  0.0699  0.2556 -0.1891
21163W        W34577   2.692   5.597  11.224  0.1346 -0.2120  0.0854
21164W        W34578  17.819  11.178   2.603 -0.1136  0.0371 -0.0802
21165W        W34579   0.339   2.292  14.430  0.0210  0.0370 -0.3118
21166W        W34580  11.762  13.156  16.157  0.0720  0.2321  0.0570
21167W        W34581   7.590   4.070   0.233  0.2714 -0.0950  0.1661
21168W        W34582   8.965   7.140   1.170  0.2457 -0.0540 -0.1526
21169W        W34583   0.193   9.271   3.064  0.0430  0.2834 -0.0592
21170W        W34584  14.764   8.935  12.222  0.0726  0.1002 -0.1432
21171W        W34585   9.602  12.273   4.367 -0.1502 -0.3418 -0.0136
21172W        W34586  14.449  15.864  15.525  0.0002 -0.1251  0.2847
21173W        W34587  11.812   9.907  13.994 -0.1361  0.2675  0.0024
21174W        W34588  17.439   2.913   4.391  0.0629 -0.3397 -0.0567
21175W        W34589   3.063  15.805  15.093 -0.0783 -0.0492 -0.2920
21176W        W34590   8.692   7.979   3.552 -0.3303 -0.0325 -0.0881
21177W        W34591   3.863   3.328  11.785  0.0559 -0.3733  0.0454
21178W        W34592   4.174  10.256   0.932  0.1788  0.0981 -0.2991
21179W        W34593   9.354   0.979   3.802 -0.3790  0.5224 -0.1319
21180W        W34594  14.137   7.683   2.395 -0.2062 -0.0425  0.0867
21181W        W34595   8.472  12.847   2.721  0.4381 -0.3942 -0.0085
21182W        W34596   3.231  16.481   2.639 -0.2818  0.4895  0.2832
21183W        W34597   5.485  13.830  15.798 -0.0319 -0.2054 -0.1144
21184W        W34598  15.497  10.960   2.857  0.0620  0.1687  0.3778
21185W        W34599  14.852   3.401  11.884  0.2206  0.0804 -0.0955
21186W        W34600   6.667  11.942   2.706  0.1402 -0.0033 -0.1348
21187W        W34601  16.365  10.745  14.252 -0.0628 -0.0284  0.0641
21188W        W34602   0.928   4.775   3.557  0.0333  0.2063 -0.0257
21189W        W34603   1.837  15.351  11.989 -0.2574  0.1811 -0.1842
21190W        W34604  16.897  16.323   2.395 -0.0640  0.1596  0.0991
21191W        W34605  16.280  17.393  12.695  0.2826 -0.2403  0.1388
21192W        W34606   2.917   2.503  12.364 -0.0273  0.1912  0.2107
21193W        W34607  13.967   1.561  15.577  0.0961 -0.1858  0.0302
21194W        W34608  12.755   9.992  15.029 -0.1648  0.1201 -0.0178
21195W        W34609   9.085   3.976  15.730  0.2982  0.0329 -0.1561
21196W        W34610  15.421   4.390  12.814 -0.2330 -0.2111 -0.0961
21197W        W34611   1.590  16.366  14.462  0.1664 -0.0343  0.1628
21198W        W34612  16.149   7.779   2.734 -0.3074  0.0046 -0.0426
21199W        W34613  10.597  10.872  10.379  0.3703 -0.2301  0.0687
21200W        W34614   1.451   0.417  16.273  0.2960  0.0851 -0.1806
21201W        W34615   6.660  13.035   1.949 -0.3867 -0.0441  0.2405
21202W        W34616   4.888   1.101   0.168 -0.2947  0.1463  0.3586
21203W        W34617   4.403  14.724   1.634 -0.3731 -0.0528 -0.0256
21204W        W34618  14.986   2.922  13.026  0.2054 -0.0769  0.1424
21205W        W34619   8.431   9.339  12.796 -0.0336 -0.2447 -0.0226
21206W        W34620   5.293   5.255  16.117  0.2940 -0.0507 -0.1028
21207W        W34621   9.489  17.123   0.585 -0.1415 -0.0700 -0.1688
21208W        W34622   2.256  13.974  12.992 -0.2357 -0.2362  0.1995
21209W        W34623   2.641  10.199   5.210 -0.0036  0.1778 -0.2720
21210W        W34624   6.860  13.852   4.954 -0.2121 -0.3183  0.2859
21211W        W34625  18.054  11.854  12.355 -0.3567  0.1135  0.3529
21212W        W34626  15.538  15.248   0.313 -0.1529  0.0225 -0.1767
21213W        W34627   7.924   1.498  15.904 -0.1037  0.0445 -0.0513
21214W        W34628   2.747  13.124   2.849  0.1669 -0.1559 -0.0223
21215W        W34629   3.757   3.073  13.308 -0.1251 -0.1181  0.1525
21216W        W34630   4.696  16.160  16.107  0.0021 -0.0342  0.1584
21217W        W34631   1.399   5.056  12.953  0.3366  0.2553 -0.0795
21218W        W34632   7.346   2.621  12.712 -0.0264  0.1019 -0.1268
21219W        W34633  13.235   1.282  14.849 -0.2989 -0.0500 -0.1840
21220W        W34634   3.152   2.313  11.478  0.2883  0.0305  0.2089
21221W        W34635   0.705  17.104   4.276 -0.2113  0.0946  0.2081
21222W        W34636  16.776  12.293  12.839  0.3291 -0.3641  0.1399
21223W        W34637  15.446   0.197  14.657 -0.1642  0.1862  0.1040
21224W        W34638  14.768  17.385   5.853 -0.0589 -0.2099  0.0745
21225W        W34639  12.463  14.827   5.729  0.2839 -0.0118  0.0987
21226W        W34640  10.760   6.617   4.806 -0.1353  0.1098  0.2129
21227W        W34641  12.718  10.941  16.393  0.3527 -0.0807 -0.0469
21228W        W34642  10.123   7.833  14.409  0.1844 -0.3606 -0.2742
21229W        W34643   4.687  13.896   0.839  0.1524 -0.1976 -0.2152
21230W        W34644   8.851  12.657   0.016 -0.1578  0.4384 -0.2510
21231W        W34645   4.987  15.384  15.870  0.1603  0.0931 -0.3956
21232W        W34646  17.548   4.066   3.392  0.2299 -0.3245  0.2134
21233W        W34647   4.126  14.254  15.518 -0.2481 -0.0205 -0.5266
21234W        W34648  17.113   8.768  12.993 -0.1078 -0.3036 -0.0049
21235W        W34649  16.871   5.677  11.240 -0.2167  0.1167  0.1822
21236W        W34650   7.692  14.799   9.993  0.2392  0.2055  0.3788
21237W        W34651   0.004   1.662  11.445  0.1630  0.3193 -0.0923
21238W        W34652   4.566  16.813   1.950 -0.1806 -0.0748  0.0551
21239W        W34653   4.008   7.863  12.861 -0.0889  0.0687 -0.0215
21240W        W34654   6.144  13.206   3.231  0.1581  0.1372  0.1343
21241W        W34655  12.469   1.120   5.082 -0.0253  0.0567  0.0779
21242W        W34656   7.817  17.542  13.045  0.0765  0.1414  0.0595
21243W        W34657  16.094  14.693  14.861 -0.0227 -0.1150  0.0653
21244W        W34658  15.143   1.896  15.853 -0.0027  0.1036  0.0456
21245W        W34659   9.838   2.123   5.686  0.1378  0.1636  0.2697
21246W        W34660  13.440   1.776   3.804 -0.4091  0.0672  0.3277
21247W        W34661   8.385  10.550   2.553 -0.0414 -0.0764  0.0417
21248W        W34662   6.919   2.861  16.107  0.1194 -0.1161  0.2982
21249W        W34663   2.491  13.563  13.522  0.0337 -0.0910  0.2810
21250W        W34664   3.800   5.681  15.371 -0.1388  0.0455  0.0320
21251W        W34665   3.689   2.057   3.945  0.2983 -0.2288  0.3009
21252W        W34666   8.092   0.223   2.756  0.1995  0.1287  0.1834
21253W        W34667   2.231   2.331  14.619  0.2917 -0.1420  0.0455
21254W        W34668   4.069  13.265   2.788  0.3918  0.2233 -0.1238
21255W        W34669  18.093  10.265   4.526 -0.0242 -0.3039  0.0701
21256W        W34670   5.771  17.969  14.651 -0.0786  0.0754  0.3468
21257W        W34671   8.411   9.545  15.191 -0.2655 -0.1577  0.0496
21258W        W34672   0.044   6.561  11.627 -0.2563  0.0848 -0.2621
21259W        W34673  13.719  15.381   0.085 -0.0190  0.2819 -0.1009
21260W        W34674   5.847  11.019   2.422 -0.1898  0.2057 -0.1585
21261W        W34675  13.224   3.594  11.114  0.2155 -0.1395 -0.1219
21262W        W34676  15.429   5.513  14.969  0.1440  0.1813  0.1849
21263W        W34677  13.867   9.547  14.292 -0.0590  0.1060  0.0637
21264W        W34678  15.147  12.036  13.360 -0.2802  0.1986 -0.2164
21265W        W34679  15.078   1.376   0.754  0.1625  0.3386  0.1681
21266W        W34680  16.289  11.533  15.682 -0.1444 -0.1235  0.0812
21267W        W34681  14.710  12.313  14.218 -0.2260  0.0108 -0.1954
21268W        W34682   0.569  15.721   4.859 -0.2521  0.1723 -0.3098
21269W        W34683  13.706  13.800  12.059  0.0871 -0.1748 -0.0347
21270W        W34684  18.251   4.748   2.371  0.3156 -0.2207  0.2901
21271W        W34685   4.556  11.016  15.093 -0.2923 -0.2659 -0.2878
21272W        W34686  17.454  17.582  13.838 -0.0466  0.0596 -0.2488
21273W        W34687   5.532   9.910   0.372 -0.4772 -0.0229  0.1894
21274W        W34688   4.752  13.867   2.764 -0.2796 -0.0281  0.0630
21275W        W34689  15.037  10.174  13.340  0.1261 -0.2298 -0.1979
21276W        W34690   4.886  13.243   4.248 -0.0454 -0.1568 -0.0674
21277W        W34691   5.802   7.007  11.391  0.0133  0.0147  0.3256
21278W        W34692  13.477  14.990  15.415 -0.1854 -0.2708 -0.0720
21279W        W34693  15.172   8.826  13.322 -0.1021 -0.0314  0.0802
21280W        W34694   7.289  15.789  16.344  0.1349 -0.2276 -0.2337
21281W        W34695   3.140   9.707   4.726 -0.4913  0.0894  0.2233
21282W        W34696  13.114   3.105  13.776  0.0081 -0.0506  0.4761
21283W        W34697   9.100   9.461  16.153 -0.1190  0.0755 -0.2444
21284W        W34698  10.753  13.212   2.226 -0.1091  0.0169  0.0898
21285W        W34699   8.865  15.012   1.811  0.2470  0.1428 -0.0281
21286W        W34700   1.466   4.335   2.046  0.0930 -0.0397  0.2903
21287W        W34701  16.843  12.703  12.471 -0.0851  0.1922  0.0262
21288W        W34702   6.104  15.540   4.039 -0.0755 -0.1411 -0.1979
21289W        W34703   4.219  11.678  13.224 -0.1205 -0.2416 -0.0472
21290W        W34704   8.203   2.742   3.832  0.1522 -0.1677 -0.0448
21291W        W34705  11.166  17.877  15.000 -0.1771 -0.0167 -0.2950
21292W        W34706   0.614   7.863  10.957  0.3007  0.2854 -0.0568
21293W        W34707   4.901  14.033   4.940 -0.1432 -0.0411 -0.2719
21294W        W34708   7.632   2.219  10.358  0.1725 -0.2520 -0.2085
21295W        W34709   0.768   5.388   4.222 -0.0745  0.1103  0.0589
21296W        W34710   3.254  14.007  15.672  0.1513  0.0183  0.2836
21297W        W34711   2.019  14.760  15.307  0.1117  0.2853 -0.3361
21298W        W34712   5.125  14.050  14.386 -0.1462  0.2700 -0.0804
21299W        W34713   7.233   3.297   2.369 -0.1107  0.2790 -0.2178
21300W        W34714  12.189  14.153  14.886 -0.2108 -0.1906 -0.3342
21301W        W34715  14.178   4.221   2.470  0.1156 -0.1594 -0.3850
21302W        W34716   4.994   4.033  16.375  0.0118  0.3596 -0.1190
21303W        W34717   3.026  11.949  13.704  0.2115  0.2044  0.0641
21304W        W34718   0.525   7.774  10.422  0.0717 -0.1139 -0.0638
21305W        W34719  15.510   0.984  13.852 -0.0042 -0.1224 -0.0703
21306W        W34720  15.109  10.283  14.990 -0.1635  0.1813 -0.3139
21307W        W34721  14.262   9.351  14.779  0.4351 -0.1443 -0.1898
21308W        W34722  11.252  17.087   4.509  0.0651 -0.1712  0.1938
21309W        W34723   5.168  16.104  14.685  0.0248  0.1460 -0.1192
21310W        W34724   6.950   8.300  12.137 -0.3294  0.2908  0.0579
21311W        W34725  15.254   0.663  14.665 -0.2216 -0.0054 -0.1110
21312W        W34726  13.737  10.682   2.305  0.1592  0.0150  0.0238
21313W        W34727   8.308  14.344   4.971 -0.4526  0.1057 -0.1398
21314W        W34728   3.837  14.265  11.324 -0.2492 -0.3122 -0.3818
21315W        W34729  12.359  15.945   3.473  0.0661  0.0707  0.0022
21316W        W34730   1.927   7.507   0.099  0.1614 -0.0461 -0.0030
21317W        W34731   3.382   3.873  12.335 -0.2651 -0.0855  0.2137
21318W        W34732   0.135   6.042  16.278  0.4517 -0.2201  0.2521
21319W        W34733  18.187  17.655   1.667  0.0619  0.1795 -0.0059
21320W        W34734   2.154   5.420   5.351  0.0130 -0.2144 -0.0677
21321W        W34735  13.870  15.029  16.273 -0.1190 -0.2748  0.1078
21322W        W34736  16.988   9.948   2.827  0.2013  0.0510  0.0460
21323W        W34737   8.970   8.453  10.660 -0.1495  0.3307  0.0243
21324W        W34738  14.439   6.438   1.640 -0.0642  0.2065  0.1142
21325W        W34739  17.062  17.675  15.214 -0.0602  0.0672 -0.4714
21326W        W34740  15.836  16.583   0.238  0.3024  0.2424  0.1218
21327W        W34741  15.570   7.830  14.612 -0.0669  0.1888 -0.0725
21328W        W34742   5.663   0.042   4.831 -0.1113  0.1462  0.5328
21329W        W34743   5.183   5.426  10.538  0.1816 -0.0886 -0.0298
21330W        W34744   6.353  13.238  12.467 -0.2206 -0.0662 -0.2260
21331W        W34745  16.916  10.878  16.052  0.2046  0.2415 -0.1126
21332W        W34746  17.892  12.860   4.143  0.0892 -0.3471 -0.1570
21333W        W34747   9.194   6.497  12.344 -0.2037  0.0452  0.2652
21334W        W34748  17.084   3.982   2.001  0.2881 -0.0653  0.3874
21335W        W34749   4.292   4.160   3.103 -0.1289 -0.5366 -0.0639
21336W        W34750   5.578   0.438   2.556  0.0892 -0.3785 -0.0581
21337W        W34751  14.544  10.496   2.638  0.2207 -0.0033  0.1618
21338W        W34752  11.241   2.296   5.412  0.0431 -0.0549  0.1107
21339W        W34753  12.601   8.951  10.603  0.0756 -0.0731 -0.0966
21340W        W34754  14.391   1.031   2.336 -0.0772  0.0513  0.0662
21341W        W34755   7.207  16.693   0.150  0.0798 -0.3035  0.0191
21342W        W34756  12.399  16.955  11.212  0.0464  0.3598  0.4158
21343W        W34757  10.203   2.628   0.544 -0.0924  0.1326  0.1125
21344W        W34758   7.569   0.746  16.114  0.1640 -0.2439  0.1034
21345W        W34759  12.859   1.768  16.537 -0.1088 -0.0723  0.2335
21346W        W34760   9.178   9.523   1.924 -0.0746  0.0944  0.1023
21347W        W34761   4.982   3.774   3.077 -0.2606 -0.0489  0.2527
21348W        W34762   0.796   8.750  12.880  0.3025  0.1353  0.0443
21349W        W34763  13.003  16.956   0.190  0.0066 -0.1403  0.6288
21350W        W34764   5.848  10.985  14.733 -0.1159  0.1223 -0.0447
21351W        W34765   5.632  17.843   3.280 -0.1408  0.2992 -0.1514
21352W        W34766   6.432  13.816  16.249 -0.3478 -0.1607  0.0308
21353W        W34767   4.280   8.937  15.089  0.2037  0.1607  0.1816
21354W        W34768  10.469   5.269   5.493  0.0418 -0.3596  0.0656
21355W        W34769  11.551   7.294   0.797  0.2599  0.0321  0.1181
21356W        W34770   6.007   6.094   2.130  0.0096  0.1510 -0.2602
21357W        W34771   3.224   3.311  13.381 -0.1987 -0.1750  0.0196
21358W        W34772   1.512   0.933  12.441  0.0391  0.0739  0.2310
21359W        W34773  11.847  10.488  13.333 -0.0470  0.3339 -0.2969
21360W        W34774   4.298  12.459  15.591  0.0803  0.0179  0.0090
21361W        W34775  12.986  13.044   1.953 -0.0119  0.1441  0.0792
21362W        W34776  16.174   5.248   1.548 -0.1623  0.2312 -0.0789
21363W        W34777   7.659   8.251  12.562 -0.2625  0.2042 -0.0206
21364W        W34778   9.697   5.521   4.976 -0.0878  0.0124  0.1194
21365W        W34779  17.485  10.697   0.881 -0.3435 -0.2202 -0.0317
21366W        W34780   3.207   8.531   0.228 -0.2245  0.2824 -0.0191
21367W        W34781  18.050  13.188  15.207 -0.0763  0.0656  0.0935
21368W        W34782   5.325  14.764   0.644  0.0267 -0.0785 -0.3436
21369W        W34783   4.116   1.614   4.499 -0.2913 -0.2793  0.0211
21370W        W34784   3.569  16.552   3.646  0.2579 -0.1352  0.2821
21371W        W34785   3.359   6.827  11.546 -0.2858  0.0885 -0.1987
21372W        W34786  16.750  10.183  13.469  0.1901 -0.0613 -0.3752
21373W        W34787  14.164   2.316  14.222  0.2240  0.1053 -0.3721
21374W        W34788   6.309  13.507  10.363 -0.2935  0.0447  0.2056
21375W        W34789   0.136   2.648  12.340 -0.1112  0.3728 -0.0034
21376W        W34790  10.618   9.926   1.124 -0.0700  0.0944 -0.0880
21377W        W34791  10.916   1.833  12.514  0.0418  0.2107  0.0228
21378W        W34792   0.760   8.113  16.131  0.2463 -0.1514  0.2421
21379W        W34793  16.903   1.211   0.352 -0.1391 -0.3390 -0.0530
21380W        W34794  14.159   4.049   1.153 -0.1253  0.0271 -0.1385
21381W        W34795  11.626   1.155  12.059 -0.1057 -0.2937 -0.0681
21382W        W34796   8.307  12.444  13.490 -0.2396  0.1742 -0.2077
21383W        W34797   7.519   3.931   4.363 -0.2013  0.1798 -0.5485
21384W        W34798   4.547  11.133   3.685 -0.1301 -0.1535  0.1320
21385W        W34799   8.788   1.530  14.313  0.0976 -0.4203 -0.0048
21386W        W34800  11.409   7.920  10.584  0.0810  0.0348  0.1790
21387W        W34801   8.356  12.524   0.104  0.2861  0.1304 -0.1357
21388W        W34802  15.159   7.356  12.289 -0.0685 -0.1447  0.1296
21389W        W34803   6.823  15.649  14.426  0.0326 -0.1131  0.0050
21390W        W34804  14.772   5.729  15.787  0.0009  0.3702 -0.0020
21391W        W34805   3.810  10.844   2.133 -0.2442 -0.1383  0.0008
21392W        W34806   9.363   9.742  12.781  0.0386 -0.1690  0.1776
21393W        W34807  11.561  10.951   0.702  0.0997 -0.1499  0.1920
21394W        W34808  14.823  17.632   2.554 -0.2655  0.2549 -0.1186
21395W        W34809  15.620  12.644  13.960  0.1010  0.1631  0.1930
21396W        W34810   7.462   7.493   3.757  0.0394 -0.2094  0.0888
21397W        W34811  16.732   6.547   4.366  0.2173  0.0819 -0.0399
21398W        W34812   6.042   9.090  15.308  0.1553  0.0459  0.1617
21399W        W34813  16.633   6.280  15.318  0.0209  0.2190 -0.0942
21400W        W34814   0.126  16.552   3.907  0.0028  0.1796 -0.0635
21401W        W34815   0.291   3.900  10.378 -0.0837  0.3403 -0.2830
21402W        W34816  17.600   2.848   1.386 -0.0376 -0.0602 -0.0646
21403W        W34817   3.626   5.541  12.370 -0.1643 -0.2091  0.2024
21404W        W34818   9.588   6.245   2.152 -0.0499 -0.0576 -0.2510
21405W        W34819   2.301   2.467   0.459 -0.0452 -0.0428  0.2567
21406W        W34820   0.083  15.042   6.535  0.0335  0.0273 -0.3102
21407W        W34821  12.792   9.026  12.689  0.0367  0.0533 -0.2349
21408W        W34822   0.702   4.608  14.770  0.0266 -0.0154  0.1813
21409W        W34823   5.299  15.196   4.843  0.0948  0.1397 -0.0742
21410W        W34824   8.137   3.440  11.741  0.0591  0.3717 -0.5240
21411W        W34825   0.507   7.925   2.871 -0.1633 -0.0415 -0.0346
21412W        W34826   6.960   2.005   4.544  0.1437  0.1555  0.2591
21413W        W34827   2.551   3.105  13.644  0.1273  0.0974  0.0593
21414W        W34828   9.441  13.483  11.614  0.0935  0.0622  0.1106
21415W        W34829  10.421   3.824   3.352  0.0422 -0.0149  0.0685
21416W        W34830   1.927   6.859   2.981 -0.0316 -0.2114  0.1121
21417W        W34831   1.116  12.634   5.841 -0.1200  0.4672 -0.2482
21418W        W34832   4.964  16.379  11.556  0.1053  0.2290 -0.2827
21419W        W34833   4.595  11.572   1.007  0.1212  0.0264 -0.0903
21420W        W34834   7.999   3.853   4.209  0.1376 -0.2973  0.1914
21421W        W34835  11.214   8.696  15.368 -0.1245 -0.2411 -0.1988
21422W        W34836  11.981   6.179  15.005  0.2343  0.2010 -0.2457
21423W        W34837  17.133  16.462  12.418 -0.1992  0.2476  0.1426
21424W        W34838  15.694  14.390  14.689  0.1715  0.3251  0.0904
21425W        W34839  15.362  11.412  15.786 -0.0387  0.2252  0.2458
21426W        W34840  13.547   2.320   2.855  0.4816  0.0120  0.2243
21427W        W34841   2.529  11.567   4.978 -0.4971 -0.0016 -0.0508
21428W        W34842  15.224  17.467   2.773 -0.1856  0.1277 -0.0539
21429W        W34843  14.087   8.443   1.459 -0.2375 -0.1943 -0.0412
21430W        W34844   4.920   0.793  10.743  0.1503 -0.2450 -0.0091
21431W        W34845  16.073   6.348   3.796 -0.0070 -0.2554  0.2796
21432W        W34846  15.481   1.867   3.456  0.1513  0.0006  0.0719
21433W        W34847   8.955   6.580  14.649 -0.1814  0.0647  0.1429
21434W        W34848   6.218  10.140   5.538  0.2454 -0.1659  0.1368
21435W        W34849   5.104   4.856  12.956  0.3754 -0.0377 -0.0346
21436W        W34850  13.591  17.169  13.686 -0.0870  0.0665 -0.0468
21437W        W34851  17.235   6.644   9.880  0.0991 -0.3858 -0.0343
21438W        W34852  17.997  14.796  16.093  0.0829 -0.1993  0.1114
21439W        W34853   7.495   6.142  10.692  0.0413  0.0108 -0.2007
21440W        W34854  16.089  12.651  14.104 -0.1527  0.1518 -0.0737
21441W        W34855  13.884  13.647  12.491  0.0053 -0.0076  0.1716
21442W        W34856   7.409  10.026   4.842 -0.0356 -0.1264 -0.0446
21443W        W34857   1.847   3.831  16.482  0.0304 -0.0684  0.3332
21444W        W34858   2.361   2.914   1.239  0.2645 -0.3449  0.0375
21445W        W34859   2.942  13.044   1.724  0.0163  0.2295 -0.0492
21446W        W34860   9.718   6.030  13.562 -0.1435 -0.0252  0.0768
21447W        W34861  11.950   9.289  16.158  0.0994 -0.1416  0.1054
21448W        W34862   1.358  14.001   4.664 -0.1017  0.3034  0.1798
21449W        W34863   1.818  16.871   2.408  0.1647  0.4470 -0.2893
21450W        W34864  16.894  13.205  12.624  0.0223 -0.0972  0.0150
21451W        W34865  12.302   0.604  16.103 -0.0578 -0.1165  0.1830
21452W        W34866   8.589  15.656  14.541 -0.0780  0.2425 -0.0868
21453W        W34867  15.199   5.264  13.258 -0.1930 -0.0042 -0.2827
21454W        W34868   7.942   4.719  16.329  0.0251  0.1099 -0.1390
21455W        W34869   2.713   8.076   1.985  0.0453  0.1898  0.0378
21456W        W34870  10.230  16.787  12.229  0.1695  0.0826 -0.0322
21457W        W34871  15.896   5.402   1.048 -0.1237  0.1120 -0.1730
21458W        W34872  12.475   3.290  10.375  0.2036 -0.2348  0.0427
21459W        W34873   0.513  13.108  15.723 -0.0998 -0.1863  0.1624
21460W        W34874  16.704  13.960   0.281 -0.1411 -0.1657  0.1143
21461W        W34875  15.992   9.605  11.604 -0.2336 -0.2329 -0.1838
21462W        W34876  12.096  11.278  14.528  0.0525 -0.2382  0.0612
21463W        W34877  15.706   0.063   2.343  0.3301 -0.0081 -0.1490
21464W        W34878  12.246  15.944   6.761 -0.0994  0.2667  0.1550
21465W        W34879   0.932   7.849  15.662 -0.4577 -0.0890 -0.1836
21466W        W34880   2.371   6.021   4.913  0.1691  0.1311  0.1465
21467W        W34881   8.752   6.689   2.852  0.0229 -0.0473 -0.2879
21468W        W34882   8.656   9.518   1.025  0.0699 -0.2965 -0.4446
21469W        W34883  18.131   8.314  16.051  0.0698  0.3107  0.2763
21470W        W34884  10.956  18.223   1.038 -0.0652  0.2036  0.0475
21471W        W34885   7.844   5.822   0.236  0.0069 -0.0839 -0.2340
21472W        W34886   9.762   7.768   3.646  0.3844 -0.2912  0.0061
21473W        W34887   0.445   3.611  15.102  0.0477  0.2394 -0.3374
21474W        W34888   7.322   0.867   2.525 -0.0327  0.2118 -0.0845
21475W        W34889  18.089  14.277  15.444 -0.1059  0.0917 -0.1904
21476W        W34890   2.194  11.153  11.255  0.2030  0.1406  0.2829
21477W        W34891  16.509   5.263  12.863  0.0911 -0.2231  0.0940
21478W        W34892   9.979   5.063  15.962  0.1309 -0.0091  0.4159
21479W        W34893  16.532   0.160   0.639  0.1517 -0.2571 -0.0482
21480W        W34894   7.971   3.521  13.199 -0.0818 -0.3265  0.1020
21481W        W34895   6.178   1.850  13.466 -0.3100  0.0009 -0.2832
21482W        W34896   3.661  17.932   1.744  0.0013  0.3550  0.2831
21483W        W34897   7.889  10.887  11.576 -0.0950 -0.0891 -0.3142
21484W        W34898  15.679  11.789   5.020  0.1067 -0.2380 -0.3098
21485W        W34899  10.334   0.073  14.568  0.1669  0.3534  0.0003
21486W        W34900  13.983   7.947  10.068 -0.0816  0.0803  0.0307
21487W        W34901   7.587  15.641  13.652  0.3662  0.1750 -0.2471
21488W        W34902   8.271   8.862   1.624  0.1224  0.0895 -0.0380
21489W        W34903   9.060   5.242   1.910  0.1031 -0.0068 -0.2143
21490W        W34904  13.864   1.687   0.686 -0.3296  0.1006  0.0569
21491W        W34905  16.013  18.224   0.566  0.2533 -0.0564  0.1424
21492W        W34906  17.663  18.192  12.813  0.0409 -0.1576 -0.0364
21493W        W34907   0.670   3.457  10.518 -0.3121 -0.2281 -0.1834
21494W        W34908   5.181   0.500   2.126 -0.3739 -0.1220 -0.2107
21495W        W34909   8.202   1.005  16.504 -0.1666 -0.1800  0.0910
21496W        W34910   9.129  12.282   3.139 -0.1279  0.3271 -0.0387
21497W        W34911  10.670   1.375   2.057 -0.2950 -0.1038  0.1598
21498W        W34912   5.115   6.042  11.857  0.0248  0.0651 -0.0994
21499W        W34913   5.404   1.969  14.040 -0.0423 -0.0113  0.2182
21500W        W34914   8.812  11.380  12.135 -0.0257 -0.2008 -0.0600
21501W        W34915  15.514   6.731  10.742  0.2430  0.0911 -0.0649
21502W        W34916   0.692  12.483   0.349  0.1176  0.1218  0.3390
21503W        W34917   9.232  14.812   0.080 -0.3868 -0.0355  0.0802
21504W        W34918   8.710   1.687  13.452 -0.0224 -0.2461 -0.3291
21505W        W34919  11.153   3.444  12.657  0.1316  0.0702 -0.0635
21506W        W34920  17.563   3.593   3.511 -0.0173 -0.0996 -0.0435
21507W        W34921  15.213   8.499  10.575 -0.0627 -0.2097 -0.0215
21508W        W34922   3.165   4.995  14.346  0.0892  0.0117 -0.0467
21509W        W34923   4.737  16.450   4.712  0.2112  0.1969  0.0497
21510W        W34924   7.875   1.186  13.298  0.2758 -0.0850  0.0664
21511W        W34925  17.332  12.921  11.263  0.0322 -0.0791 -0.0894
21512W        W34926  12.461   4.700   1.595  0.5389  0.0318  0.1367
21513W        W34927  14.295  16.274   2.553 -0.2730  0.3589  0.0694
21514W        W34928   9.366   9.049   2.423  0.0077  0.2297  0.0891
21515W        W34929  12.471  17.673  12.470  0.1579 -0.0287  0.0279
21516W        W34930  16.135  15.207   4.227 -0.4424 -0.1923  0.3080
21517W        W34931   5.695   6.344   0.309 -0.0989 -0.1474 -0.0947
21518W        W34932   2.995  14.438   5.792  0.1600 -0.1372 -0.0940
21519W        W34933  14.252   2.757  11.108 -0.0116 -0.0111  0.0281
21520W        W34934  12.925  13.637   2.100  0.0437  0.0830  0.3117
21521W        W34935   1.518  16.015   0.912 -0.1484 -0.0359 -0.0897
21522W        W34936  16.703   5.542  13.264  0.1815  0.0344 -0.0267
21523W        W34937   4.684  16.128   0.231  0.1457 -0.0994 -0.2239
21524W        W34938  13.675   5.253  11.095 -0.1792  0.1833 -0.0069
21525W        W34939  16.182  17.899   4.774 -0.0858 -0.1434  0.0643
21526W        W34940   9.888   9.475   5.505  0.0076  0.0012  0.3689
21527W        W34941  13.018  13.155  14.424  0.1289  0.1844  0.1770
21528W        W34942   0.716   3.252   9.712 -0.0457 -0.0875 -0.1218
21529W        W34943  12.315   7.981   5.058  0.1253 -0.2860  0.0622
21530W        W34944  12.981   3.262   5.942 -0.0721  0.2686  0.1044
21531W        W34945   6.535  10.999  15.015  0.1097 -0.1470  0.1078
21532W        W34946  11.175  15.158  12.299 -0.2390  0.1601  0.1115
21533W        W34947   5.627  12.185  13.044 -0.1289 -0.0953 -0.0130
21534W        W34948   3.718   1.626   2.673 -0.0458 -0.0718  0.2383
21535W        W34949   1.720  12.668  14.666 -0.1460  0.3167 -0.4105
21536W        W34950  14.830   1.808   3.925  0.1402  0.6569  0.5026
21537W        W34951  17.081  15.487   4.497 -0.5718 -0.1361 -0.1581
21538W        W34952  17.590   2.109  16.125 -0.1029  0.1924 -0.2336
21539W        W34953   1.476  17.393  12.590  0.1141  0.1230  0.0021
21540W        W34954  15.493   2.880   5.531  0.0771 -0.1243 -0.1548
21541W        W34955   5.892   0.598   4.682  0.0704 -0.2180 -0.0630
21542W        W34956   9.460   5.977   2.546  0.1194  0.1065  0.1366
21543W        W34957  12.198  13.042   4.141 -0.2701  0.0083 -0.0787
21544W        W34958   9.763  16.402   1.422 -0.1097  0.1011  0.1896
21545W        W34959  11.059  11.307   4.437  0.1233  0.3046  0.0980
21546W        W34960  14.660  16.826   5.102 -0.2728 -0.2598 -0.1945
21547W        W34961   8.706   3.551  11.693  0.1555  0.0700  0.3029
21548W        W34962   9.939  12.792  11.240  0.2093  0.0891  0.0296
21549W        W34963  10.155   1.188   5.504 -0.1606 -0.1924 -0.0790
21550W        W34964  11.963  13.101   5.688 -0.2261  0.2696 -0.0237
21551W        W34965  12.307  11.076   1.781 -0.3034  0.0702  0.1435
21552W        W34966  12.107  10.095   3.410  0.1410  0.0012  0.1393
21553W        W34967  13.239  10.584  14.663 -0.4213 -0.0066  0.0497
21554W        W34968  12.359   0.495   5.077 -0.0468 -0.1708 -0.2365
21555W        W34969   9.893   8.534   0.782  0.0291 -0.1454  0.2318
21556W        W34970  11.496   1.577  12.976 -0.2797 -0.1604  0.0862
21557W        W34971   9.679   5.555  13.334  0.0149 -0.0510 -0.2648
21558W        W34972   6.777  13.294  14.894  0.0262 -0.1704  0.3690
21559W        W34973  16.565  11.966  14.462 -0.1567  0.2909 -0.2238
21560W        W34974   2.545   6.876   9.762  0.0925  0.3797  0.2679
21561W        W34975   8.220  11.527   4.830 -0.0261 -0.3605 -0.1929
21562W        W34976   4.184   6.137   3.745 -0.1197 -0.1047 -0.0052
21563W        W34977  13.824   6.445   2.599  0.2127  0.1211  0.2623
21564W        W34978   9.712   0.612  12.050  0.1738 -0.1182  0.0767
21565W        W34979  12.808  11.415   2.844  0.1265 -0.0321  0.3902
21566W        W34980  10.521   6.373  13.626 -0.0848 -0.0255  0.1219
21567W        W34981   5.572  15.578   4.158 -0.0094 -0.0449 -0.0117
21568W        W34982  11.708  10.175  12.277  0.1813 -0.1407 -0.2458
21569W        W34983  11.720   8.899  15.016 -0.0144 -0.1477 -0.1515
21570W        W34984  10.267  15.446  15.472  0.2298 -0.1588  0.0307
21571W        W34985   7.853  12.893   5.417 -0.0677  0.1004 -0.1186
21572W        W34986   2.947  11.846   5.338 -0.0049 -0.2771 -0.2683
21573W        W34987  12.706   4.366  14.197  0.1565 -0.0215 -0.0335
21574W        W34988   1.440   8.476   5.379  0.2203 -0.1575  0.0892
21575W        W34989  10.356   4.949  14.433 -0.0215 -0.0889  0.0127
21576W        W34990   9.950  10.854   1.702 -0.2042  0.4660 -0.2288
21577W        W34991  16.310   0.846   1.695 -0.1376 -0.0464 -0.3227
21578W        W34992  18.006  15.992   5.290 -0.0183  0.0522  0.1023
21579W        W34993  10.446   2.180   0.783  0.2961  0.3132  0.1155
21580W        W34994  10.885  14.253  15.228  0.1337  0.4729  0.0992
21581W        W34995   4.886  13.358   2.740 -0.1090 -0.3368 -0.0717
21582W        W34996  11.157  12.063   5.029  0.1265 -0.4009  0.1033
21583W        W34997   2.598   2.083  10.885  0.0005  0.0168 -0.1395
21584W        W34998   7.321   5.474   4.409 -0.1284  0.3893 -0.1949
21585W        W34999  13.855   0.255  13.047  0.2176 -0.0925 -0.1551
21586W        W35000  13.163  12.254   0.020  0.3302  0.2078  0.1214
21587W        W35001  16.986   0.023   5.394  0.1698 -0.0704 -0.0484
21588W        W35002  11.049  10.666  11.764  0.0507 -0.0352  0.0796
21589W        W35003   3.222  11.557   1.486  0.1230  0.0488 -0.0773
21590W        W35004   4.249  10.998  12.137 -0.1316 -0.3388 -0.1789
21591W        W35005  16.008  11.407  13.332 -0.0396 -0.0262  0.1341
21592W        W35006  18.039  10.942   4.353 -0.0169 -0.1594  0.0653
21593W        W35007   0.733   6.910  13.134 -0.3670 -0.2587  0.2153
21594W        W35008  16.565   3.311   9.797  0.0895  0.2950 -0.0858
21595W        W35009   5.438   0.041  14.139  0.1619 -0.0371  0.0092
21596W        W35010  15.502   0.046  15.704 -0.0603 -0.1486 -0.1240
21597W        W35011  10.870  10.056  15.062  0.4626 -0.1767  0.0748
21598W        W35012  16.659  17.504  14.435  0.2454 -0.3258 -0.0306
21599W        W35013   8.673  11.519  10.641  0.2234  0.0425 -0.2879
21600W        W35014   0.394   7.082   4.037  0.0277 -0.0695  0.2866
21601W        W35015   9.027   9.797   1.255  0.0224  0.2863 -0.4650
21602W        W35016   4.345   8.943   0.377  0.1080  0.0862  0.2670
21603W        W35017   8.644  11.672  11.530  0.0935 -0.0679  0.2521
21604W        W35018   2.827  14.352   3.350 -0.0066  0.0261  0.0469
21605W        W35019   1.538   5.638   5.413 -0.0906 -0.1177 -0.2324
21606W        W35020  17.294   3.280  15.755 -0.0275 -0.3486  0.1220
21607W        W35021  12.165  16.098   1.158 -0.2627  0.0378  0.2750
21608W        W35022   6.664   2.287   0.704 -0.1975  0.0863 -0.1312
21609W        W35023  12.827  16.874   1.232  0.1281  0.2755 -0.1467
21610W        W35024  12.136  11.562   4.835  0.1413  0.0928  0.1952
21611W        W35025  11.216   5.871  13.720  0.2207  0.1871  0.0291
21612W        W35026   5.887   5.625  11.115  0.2753  0.2870 -0.0634
21613W        W35027   3.218   8.068   4.730  0.0148 -0.3473  0.4424
21614W        W35028   7.317  12.159  13.542 -0.1000  0.1269  0.0051
21615W        W35029   3.934   9.389  14.245 -0.3546  0.0697  0.4432
21616W        W35030   2.789   1.357   6.066 -0.1230 -0.0025 -0.0400
21617W        W35031  17.211   6.333  15.236  0.2555  0.0182  0.4430
21618W        W35032   5.237   3.238  13.509  0.0742 -0.0928 -0.1861
21619W        W35033  14.136  15.528   0.798 -0.0988 -0.0372 -0.0729
21620W        W35034   3.776  17.886   0.931  0.2354 -0.1157 -0.1811
21621W        W35035   2.189   7.286  10.679  0.4477  0.0041 -0.1462
21622W        W35036  14.197   5.185  14.540 -0.2732 -0.2343 -0.1235
21623W        W35037   2.477  15.506  12.035  0.1101 -0.1550  0.1146
21624W        W35038   7.493  12.442   1.597  0.3198 -0.2225  0.4130
21625W        W35039   3.930   5.783  11.977  0.1831 -0.0056 -0.1779
21626W        W35040   8.744   8.301   2.743 -0.1260  0.3980  0.0414
21627W        W35041   9.019  14.888   5.987  0.2362  0.1433 -0.1345
21628W        W35042   2.807  17.765   5.425 -0.2257  0.3917 -0.0561
21629W        W35043  15.121   2.921  16.174 -0.1054 -0.0125  0.0437
21630W        W35044  14.682   4.105   2.475 -0.1687 -0.3284 -0.1812
21631W        W35045   5.812  12.274  14.400  0.0015 -0.1681 -0.3863
21632W        W35046   1.592  16.344   3.602 -0.0700  0.2260  0.0494
21633W        W35047  11.682   7.894   3.481  0.1214  0.2739  0.0724
21634W        W35048   2.281   1.610   0.387  0.3665  0.1873 -0.0319
21635W        W35049   5.481   1.715   0.715  0.1014 -0.0030  0.3023
21636W        W35050  16.274   1.158  10.721 -0.2170  0.1522  0.0497
21637W        W35051  11.230  16.423  12.915 -0.0580  0.3029  0.1738
21638W        W35052  13.425  16.295  11.885  0.1687 -0.0810  0.1515
21639W        W35053  14.964   3.303  16.477 -0.3151 -0.3571 -0.1559
21640W        W35054   7.304   4.841   2.356  0.1061  0.1882  0.3435
21641W        W35055   6.093  14.517   4.676  0.1242 -0.2053  0.0031
21642W        W35056  14.864  15.015   2.477 -0.0409 -0.1031 -0.1654
21643W        W35057   3.685   7.564   3.682  0.0271  0.2374 -0.1743
21644W        W35058   3.632   5.710   1.172 -0.0992 -0.1439 -0.0953
21645W        W35059  17.138  12.094   1.653 -0.2623  0.2571 -0.0463
21646W        W35060   0.129   6.212   2.183 -0.0100 -0.0094  0.1404
21647W        W35061  11.234  10.942  15.208 -0.1744 -0.3179  0.1330
21648W        W35062  11.146   7.863  12.855  0.0011 -0.0765  0.2248
21649W        W35063   2.044   9.589   3.826  0.1388 -0.3437 -0.1669
21650W        W35064  16.048  12.998   3.819 -0.0317 -0.0770 -0.1715
21651W        W35065   0.727  14.098  11.838  0.1211  0.0639  0.2286
21652W        W35066   4.508  16.457  13.264 -0.0925 -0.0723 -0.2805
21653W        W35067   7.649   8.612   3.486 -0.2367 -0.1801 -0.1103
21654W        W35068   1.619  12.199   3.921 -0.1761 -0.2081  0.2465
21655W        W35069   2.804  17.268   5.192 -0.2159 -0.0869  0.1907
21656W        W35070  15.757   1.182  10.656 -0.1312 -0.1583  0.4046
21657W        W35071  10.234  14.383  15.719  0.1549  0.0458 -0.2625
21658W        W35072   5.706   4.605   0.203  0.1672 -0.0727  0.2465
21659W        W35073   7.763   7.294  10.142 -0.0293  0.2169  0.0073
21660W        W35074   7.023  13.618  16.516  0.0328 -0.3314 -0.0687
21661W        W35075   5.964   1.937  15.025  0.0770 -0.0052 -0.0142
21662W        W35076   4.770  17.002  14.496 -0.1530 -0.5389 -0.0600
21663W        W35077  14.683  11.294  12.888  0.1520 -0.2086 -0.0081
21664W        W35078   6.889   9.091  11.874 -0.0697 -0.0318  0.3579
21665W        W35079  11.569  17.199  11.087 -0.4459 -0.4431  0.2800
21666W        W35080  16.171   8.672   1.310  0.0468 -0.0771 -0.2526
21667W        W35081   3.876  15.597   3.111  0.0859 -0.0603  0.2660
21668W        W35082   1.150   4.392   0.603  0.2975  0.0639 -0.0289
21669W        W35083  10.605  12.203  12.070 -0.1768 -0.1049  0.7807
21670W        W35084  15.633  13.611   6.326 -0.2493 -0.1215 -0.0248
21671W        W35085   9.386   2.800   5.259 -0.1119  0.0928  0.2087
21672W        W35086   6.032   5.146  11.031  0.1514  0.3167  0.0070
21673W        W35087   0.550  10.808   0.837 -0.2051  0.0855 -0.3158
21674W        W35088  13.660   5.816  10.842  0.0827 -0.2068 -0.0365
21675W        W35089  14.353  18.164   5.031 -0.0200 -0.0686 -0.0240
21676W        W35090   2.869   2.323   5.678  0.3183  0.0217  0.3775
21677W        W35091  16.217  12.259  11.177 -0.4259  0.0039 -0.0653
21678W        W35092  12.626   8.265  10.120  0.1553 -0.3419 -0.0217
21679W        W35093   1.282   8.059   9.622  0.0060  0.1381  0.4502
21680W        W35094  17.079  16.051   3.319  0.0580  0.2091  0.0500
21681W        W35095  14.142  17.944  10.617 -0.3686  0.1285  0.4180
21682W        W35096   2.977   7.066  13.495 -0.2833  0.2016 -0.2423
21683W        W35097   9.817  13.845  16.145 -0.6176  0.2335  0.4355
21684W        W35098   6.416  17.420   0.053  0.2187 -0.0324  0.0967
21685W        W35099   9.411   4.466  13.169  0.0920  0.0658  0.0435
21686W        W35100   9.520  16.102  11.258 -0.1504 -0.0879 -0.0641
21687W        W35101  16.487   9.000  11.030  0.0792  0.1929 -0.0756
21688W        W35102  15.082  15.017   2.022  0.0882  0.0828  0.0312
21689W        W35103  17.071   8.398  16.119  0.0471  0.0888  0.1306
21690W        W35104   1.880  13.085  12.398 -0.1121 -0.0502  0.0692
21691W        W35105  17.115  17.787  12.119  0.4387  0.1300  0.2700
21692W        W35106  12.472   4.690  11.006  0.1679 -0.0295 -0.0116
21693W        W35107   0.397   9.738   4.187 -0.0462 -0.2718  0.3760
21694W        W35108  10.100   2.104  12.251 -0.0165  0.5457 -0.1254
21695W        W35109   8.415   7.332   1.091 -0.0999  0.2747 -0.1340
21696W        W35110  12.097   9.222  14.434  0.1069  0.1242 -0.0449
21697W        W35111   1.671  14.927  11.189  0.2764 -0.0270  0.1296
21698W        W35112  15.231  10.860  11.374  0.0481  0.1758  0.1859
21699W        W35113   6.109   9.368   2.340 -0.2061  0.2006  0.0358
21700W        W35114   2.737   5.220   4.510 -0.2886 -0.1034 -0.1950
21701W        W35115  10.446   1.574   3.827 -0.2859 -0.1849  0.2352
21702W        W35116   4.371  17.202  10.463 -0.0799  0.2548  0.0041
21703W        W35117   9.894  13.614   5.803 -0.4861  0.0166 -0.1623
21704W        W35118   2.866   6.875   2.205  0.1253 -0.2662 -0.0647
21705W        W35119  14.644  10.443  12.090 -0.0551  0.2032  0.1154
21706W        W35120  15.337  13.838  15.816 -0.0520  0.1654  0.1806
21707W        W35121   3.615  15.612   3.553  0.0972 -0.3407 -0.0561
21708W        W35122   4.502   8.289   4.623 -0.3702 -0.2297  0.0050
21709W        W35123  14.284  17.211  16.320  0.3814  0.1311  0.1634
21710W        W35124   9.705  10.938  11.230 -0.2107 -0.3126  0.2277
21711W        W35125   9.777  17.506  13.086  0.1146  0.0919  0.0905
21712W        W35126   2.877   2.113   3.698  0.0954  0.0459 -0.0981
21713W        W35127   5.375  13.217  11.988 -0.1874  0.1834 -0.0609
21714W        W35128   3.369   9.609  12.379 -0.1679  0.1627 -0.0955
21715W        W35129  11.407   6.032  15.934 -0.0042  0.2787 -0.1115
21716W        W35130   8.107   5.839   6.050  0.1360 -0.0194 -0.0136
21717W        W35131   6.829  12.919  13.401  0.5011 -0.1547  0.0180
21718W        W35132   6.232   3.355  13.374 -0.1570  0.1546 -0.0855
21719W        W35133  12.282   8.169  12.095 -0.1300  0.0317 -0.2322
21720W        W35134  16.071  11.073  15.444  0.3228 -0.1264 -0.2316
21721W        W35135   2.592  13.106  12.489  0.0700 -0.4281 -0.1898
21722W        W35136   1.576   6.282  14.661  0.0538  0.0367  0.1049
21723W        W35137   1.273  17.133   2.478  0.1490  0.1130  0.0562
21724W        W35138   4.056   3.805   5.672  0.0097  0.1067 -0.0575
21725W        W35139  11.322  13.736   0.871 -0.1313  0.2359 -0.0580
21726W        W35140   1.682  17.575   4.426 -0.3006 -0.2611  0.0601
21727W        W35141  17.040  10.773  10.957 -0.0740  0.0105  0.0552
21728W        W35142  12.776   9.850   4.604  0.0482  0.1024 -0.3376
21729W        W35143   2.341  18.014   2.209 -0.1172  0.3332 -0.1050
21730W        W35144   7.199  15.301   4.334  0.0643  0.0033  0.0760
21731W        W35145   5.873  10.212  11.557  0.1011 -0.0711 -0.1960
21732W        W35146  10.272  11.510  11.689  0.0240  0.1137 -0.3753
21733W        W35147   0.091   2.594  14.032 -0.1477  0.0946 -0.2220
21734W        W35148  14.567   4.869  12.694 -0.0157  0.0851  0.1174
21735W        W35149  14.545  13.008   5.125  0.2891 -0.1550 -0.3391
21736W        W35150  11.747   4.382  12.846 -0.1010  0.5076 -0.3956
21737W        W35151   2.413   2.353   5.434  0.1647 -0.0432  0.0521
21738W        W35152  11.754  14.492  15.714  0.0847  0.0898  0.0835
21739W        W35153   9.062  16.574  13.087  0.1948  0.2416 -0.0041
21740W        W35154  18.157   3.988   3.433 -0.4097 -0.0676  0.0707
21741W        W35155  11.190   9.674   0.083 -0.2419 -0.0529 -0.1546
21742W        W35156  17.379   6.375  13.141 -0.0719 -0.2194  0.0008
21743W        W35157   0.116   0.531  14.769 -0.1760 -0.0888 -0.3674
21744W        W35158   1.007   1.449   3.226 -0.0349  0.0728 -0.1687
21745W        W35159   8.679   0.912  10.629 -0.4709  0.2738 -0.0303
21746W        W35160  17.633   8.984  14.991 -0.0884  0.1807 -0.1168
21747W        W35161   5.997  14.105   2.477 -0.2381 -0.1351  0.2000
21748W        W35162   8.334   3.137  16.334 -0.0654  0.0478 -0.1506
21749W        W35163   6.915   5.659  10.597  0.0836  0.3401  0.0174
21750W        W35164   9.180  17.120  11.395 -0.1746 -0.2708 -0.3378
21751W        W35165   4.721   7.849  14.479  0.0254 -0.0795 -0.0848
21752W        W35166   5.989   4.932  16.456 -0.1572  0.0516  0.0048
21753W        W35167   6.442   9.404   6.564  0.1478  0.3096 -0.1133
21754W        W35168   0.990  15.925   3.948  0.2886 -0.3735 -0.2316
21755W        W35169   8.857   3.774  13.373  0.0226 -0.0204  0.2422
21756W        W35170   3.687  16.438   1.851 -0.0288  0.0552  0.1219
21757W        W35171  11.821   9.878   1.793 -0.0466  0.3181 -0.0346
21758W        W35172   0.431   8.303   2.056 -0.1636  0.0277  0.0837
21759W        W35173   0.919  17.390   5.072 -0.0483  0.1470 -0.0487
21760W        W35174  12.294   7.881  13.317  0.0242  0.0435  0.1422
21761W        W35175   7.694  17.444   1.820 -0.2656 -0.0263  0.0577
21762W        W35176   2.448   0.616  16.017 -0.0039 -0.0086  0.0569
21763W        W35177  12.116   0.970   1.706  0.0757 -0.2636 -0.0175
21764W        W35178  17.823   2.929  12.435 -0.1564  0.1725  0.1149
21765W        W35179   8.108   5.110   0.894  0.0852 -0.0149  0.0551
21766W        W35180  17.804   7.605  16.397  0.2484 -0.0238 -0.0630
21767W        W35181  16.362  17.082  14.363 -0.2998 -0.1341 -0.1375
21768W        W35182  14.797   1.698  10.258 -0.1616  0.1932 -0.3069
21769W        W35183   6.825   3.404   6.265 -0.0377 -0.2439  0.0393
21770W        W35184  10.347  14.121  14.484 -0.0004 -0.1209  0.0648
21771W        W35185   2.593   7.561  10.835 -0.1322  0.1196  0.1792
21772W        W35186   8.029   7.568   4.242  0.2108  0.0791  0.0347
21773W        W35187  18.144  17.133  14.141 -0.1814  0.1753 -0.3247
21774W        W35188   8.252  13.419   2.919 -0.0171 -0.1110 -0.2312
21775W        W35189  12.197  12.230   2.580  0.0248 -0.0968  0.2989
21776W        W35190   2.826  18.126  14.117 -0.3592  0.2881 -0.0832
21777W        W35191   0.975  15.934   4.670 -0.1187 -0.1376 -0.0321
21778W        W35192  12.371   0.909  12.374 -0.3846 -0.0674 -0.1219
21779W        W35193  10.811   3.507  15.314 -0.0907  0.3583  0.1504
21780W        W35194  16.208   8.590  10.366  0.0553 -0.2248  0.1912
21781W        W35195   1.585  11.304   2.537 -0.0879  0.5035  0.0570
21782W        W35196   0.168  14.069  15.828  0.1537 -0.4054  0.0745
21783W        W35197   1.705  15.927   0.436  0.0440  0.0794  0.0400
21784W        W35198   0.414  10.555  10.523 -0.0090 -0.3191  0.3419
21785W        W35199   4.137   6.759   1.398  0.0569 -0.0371 -0.0445
21786W        W35200   4.709  10.604  13.157 -0.0443  0.0799 -0.1093
21787W        W35201   1.611  14.371  11.465 -0.0201 -0.0020  0.0063
21788W        W35202   1.039   0.800   0.457  0.0552  0.2161  0.1416
21789W        W35203  15.708  17.809  14.454  0.1918  0.1124 -0.1144
21790W        W35204  17.098  10.146  16.001  0.0126  0.1326 -0.0013
21791W        W35205  15.995  10.562  11.747  0.0154  0.0867  0.0310
21792W        W35206   7.760  11.205   2.648  0.0383 -0.3407  0.3018
21793W        W35207  14.295  10.305  15.623  0.0736  0.0034  0.1558
21794W        W35208   4.879   8.497  12.144 -0.0174  0.0269  0.0795
21795W        W35209  12.981   0.267   4.429 -0.0261 -0.2001  0.1003
21796W        W35210   0.390   3.394   0.226 -0.3622  0.1820 -0.1037
21797W        W35211  15.355   6.529   5.287 -0.2319 -0.0983 -0.2584
21798W        W35212   6.251   2.592   5.605 -0.2760  0.0169  0.1952
21799W        W35213  18.000  15.804  15.869 -0.1260  0.0432  0.2037
21800W        W35214   5.166  12.295  12.530 -0.0679  0.1351  0.0389
21801W        W35215   0.122   4.131   1.580 -0.1344 -0.2027 -0.2870
21802W        W35216   6.293  10.524  13.878  0.0226 -0.0648 -0.0173
21803W        W35217  15.197  12.966  14.304 -0.1460 -0.2844  0.1128
21804W        W35218   8.254  13.167   0.668  0.0002 -0.2069 -0.2004
21805W        W35219   2.818  11.271  13.138  0.2529 -0.4262  0.2031
21806W        W35220  13.690  10.708   4.106  0.1753  0.2793 -0.0570
21807W        W35221   8.830   2.271   2.061 -0.1773  0.1976  0.0136
21808W        W35222   9.652  12.209   3.292  0.4304  0.1188  0.1095
21809W        W35223  15.855  14.496   0.654  0.2532  0.2359 -0.1432
21810W        W35224   6.676  13.512  13.223  0.1099 -0.1376  0.3778
21811W        W35225   0.112   3.556   4.390  0.1383  0.0311 -0.1274
21812W        W35226   6.304  15.677   1.757 -0.3611  0.2431 -0.0978
21813W        W35227  16.133  17.552  12.203  0.0035  0.1966  0.0721
21814W        W35228   3.510  13.564   4.293 -0.2590  0.0946  0.2477
21815W        W35229   6.311  13.588   4.288 -0.0154 -0.0273 -0.2507
21816W        W35230  14.010  13.190   3.822  0.2657 -0.1438  0.0288
21817W        W35231   4.317   8.059   3.201  0.1189 -0.1314  0.1210
21818W        W35232  11.366  11.031   4.082 -0.2062 -0.2470  0.2227
21819W        W35233   5.012   4.150  11.850  0.0856 -0.0408 -0.0653
21820W        W35234  10.974  11.551  13.668  0.1050  0.0021 -0.0354
21821W        W35235   2.945   1.036  14.245  0.2007 -0.1297  0.1059
21822W        W35236   6.221  14.247   1.933 -0.0924 -0.2940  0.1329
21823W        W35237   9.909   1.923  11.774  0.5818  0.0398  0.2474
21824W        W35238  10.139   1.564  15.603  0.1758 -0.1424  0.0183
21825W        W35239  17.267   2.345   9.870 -0.2059 -0.4025 -0.0824
21826W        W35240   3.205  13.723   3.922 -0.0949 -0.0122 -0.1932
21827W        W35241   9.422   9.458   5.565 -0.0067  0.0010  0.0523
21828W        W35242   8.121  13.812  14.193  0.1604 -0.0054  0.0491
21829W        W35243   7.770   3.815  12.694  0.0745 -0.0237  0.0411
21830W        W35244  17.294  13.048   2.843  0.0489 -0.0670 -0.2693
21831W        W35245   7.276  18.210   2.337  0.2106 -0.0070  0.1210
21832W        W35246   1.444   6.977  11.567  0.1144  0.0747  0.3269
21833W        W35247   4.622  13.509   1.692 -0.2117 -0.0330 -0.0888
21834W        W35248  18.098  16.619   1.937 -0.0775  0.1567 -0.1405
21835W        W35249   0.470   0.940  11.339  0.1331 -0.0737  0.0403
21836W        W35250  18.211   4.833   1.022  0.2180  0.0059 -0.1695
21837W        W35251  16.507   4.785  14.150 -0.2152 -0.0944  0.0555
21838W        W35252  15.632   1.554  12.413  0.3409  0.2550 -0.1247
21839W        W35253   6.042  10.199   3.929  0.0311 -0.1741 -0.1745
21840W        W35254  10.268   8.402   1.308 -0.1310  0.4049  0.4591
21841W        W35255   6.459   9.022   3.827 -0.0753 -0.3876  0.2054
21842W        W35256  11.659   6.314  15.544  0.2332 -0.1603  0.2507
21843W        W35257   8.770   1.925  10.841 -0.1030  0.1414 -0.2519
21844W        W35258   6.335   5.502  15.143 -0.3531  0.2570  0.2846
21845W        W35259  11.059  13.097  12.296 -0.1295  0.0062  0.1555
21846W        W35260   0.880   4.248  14.458  0.0110  0.1960  0.0336
21847W        W35261   6.590   2.800   4.860  0.2584 -0.0016  0.3849
21848W        W35262   5.014   1.674  12.647  0.0025 -0.0165 -0.4045
21849W        W35263   0.315   4.296  12.183 -0.0048  0.1373  0.0697
21850W        W35264  18.249  15.286   3.683 -0.0734 -0.2549  0.1587
21851W        W35265  12.431  17.467   5.288 -0.1039  0.0135  0.2516
21852W        W35266  12.347  15.392   3.514  0.0124 -0.0956 -0.1244
21853W        W35267   4.247  15.984  16.435 -0.1808  0.2212  0.3988
21854W        W35268   8.787   1.639   4.400 -0.0400 -0.0582 -0.0286
21855W        W35269   4.689   8.744   5.403  0.0022 -0.2375 -0.1184
21856W        W35270   0.541   6.998   3.160  0.3964  0.0112 -0.1063
21857W        W35271  14.450   6.321  14.951  0.0415  0.2358  0.3424
21858W        W35272  12.231  11.943   4.501  0.1449  0.2212 -0.3974
21859W        W35273  11.701  13.408  10.761 -0.1857  0.0841  0.2775
21860W        W35274  15.977   3.370   1.928  0.0037 -0.0621  0.0265
21861W        W35275   1.943   9.826  13.780  0.1859  0.0788  0.1100
21862W        W35276  17.019   3.974  12.929 -0.2330  0.1462 -0.2014
21863W        W35277   9.074  13.758  15.639 -0.1209  0.1354 -0.1660
21864W        W35278  18.153   5.807  14.261 -0.2227 -0.0340 -0.0869
21865W        W35279  17.387   7.211   1.240  0.1028 -0.1947 -0.0975
21866W        W35280   7.148  17.153   2.751  0.0785 -0.1123 -0.1653
21867W        W35281  13.162   9.155   4.869  0.1164 -0.1823  0.2778
21868W        W35282  12.643   2.880  12.469 -0.2050  0.0803  0.0330
21869W        W35283  11.486   3.934   4.520  0.0468 -0.2103  0.0836
21870W        W35284  16.828   7.480  14.695  0.3302  0.0078 -0.0983
21871W        W35285   1.207   7.035   0.195  0.1152  0.0251  0.2459
21872W        W35286   1.132   6.781  12.460  0.0983  0.0845 -0.1965
21873W        W35287  17.289   0.221   5.853 -0.1491 -0.0023  0.0947
21874W        W35288   1.528  15.975  15.623  0.1406  0.4976 -0.1593
21875W        W35289  10.215   0.545   1.537 -0.0804  0.0003  0.0281
21876W        W35290  14.059   4.441  16.395 -0.3180 -0.3596  0.0863
21877W        W35291   4.694   6.420  15.002 -0.1261 -0.0788  0.0554
21878W        W35292  14.211  13.000   1.197  0.1130 -0.5360 -0.4127
21879W        W35293   1.122  16.690   3.185 -0.0550  0.2712  0.1140
21880W        W35294   2.202  13.402   4.774 -0.0504  0.0345  0.0590
21881W        W35295  12.521   3.107  13.660 -0.1507 -0.0297  0.0833
21882W        W35296  18.207  12.754   0.819  0.0886 -0.1359  0.4514
21883W        W35297  12.429  12.323  12.447  0.1452  0.2708 -0.1846
21884W        W35298   1.750  14.537   4.121  0.0183 -0.0824  0.1591
21885W        W35299  16.370  14.813   4.477 -0.0256  0.2545 -0.0262
21886W        W35300  16.190  17.890  15.175 -0.1527 -0.0226  0.3423
21887W        W35301  12.221   7.465   1.221  0.2271 -0.0973  0.2991
21888W        W35302  11.822   0.769  13.562  0.1828 -0.1370  0.0556
21889W        W35303  10.569   2.780   3.905  0.1644 -0.1638 -0.0237
21890W        W35304   5.912   3.635   0.244 -0.0678  0.1716 -0.3832
21891W        W35305  14.793  15.194   2.966  0.1179 -0.1723  0.1755
21892W        W35306  12.555   2.748   5.322  0.0571 -0.2493  0.0753
21893W        W35307  14.489   4.324   0.787 -0.2082 -0.2047  0.1766
21894W        W35308   2.009   2.757   1.670  0.1943 -0.2699 -0.1074
21895W        W35309  11.232   5.825   5.305  0.3168 -0.1823  0.0356
21896W        W35310  10.047  10.039   4.980 -0.1402 -0.2240 -0.1759
21897W        W35311   4.187   2.290  15.252 -0.1266  0.1802  0.3416
21898W        W35312   6.510   5.023  16.211  0.3140 -0.0562 -0.1869
21899W        W35313   5.741  18.164   2.366 -0.1211  0.0356  0.3401
21900W        W35314  14.501   4.543  15.641  0.1051  0.1863 -0.1778
21901W        W35315   7.335   5.545   0.311 -0.0071  0.2127 -0.0214
21902W        W35316  16.876   3.926  16.040 -0.0113  0.2598 -0.0622
21903W        W35317  11.487   9.362  11.796 -0.1491 -0.0990  0.0740
21904W        W35318   8.926   7.827  12.318 -0.0504 -0.1640  0.1346
21905W        W35319  10.683   6.994   3.608 -0.1667  0.0605 -0.0964
21906W        W35320   1.003   0.299   0.603  0.2057  0.0774  0.3693
21907W        W35321   2.725   7.123  10.103 -0.0974  0.1198  0.2400
21908W        W35322   5.717  12.572  13.997  0.3590 -0.0159  0.1585
21909W        W35323  16.944   0.405  14.438 -0.0497  0.0467 -0.1660
21910W        W35324  11.700  16.675   2.541  0.0666  0.4346  0.0870
21911W        W35325   4.163  10.748   6.305  0.2478 -0.3081 -0.1616
21912W        W35326   0.133  17.316  13.624 -0.1235 -0.2727 -0.1832
21913W        W35327  16.455   0.391   0.198  0.3258 -0.0237  0.3407
21914W        W35328   5.041   4.162   2.088 -0.1135  0.0078 -0.1965
21915W        W35329   6.942   6.604   2.061  0.3901 -0.0444  0.0266
21916W        W35330   2.088  16.445  10.467 -0.1841  0.2116 -0.1010
21917W        W35331   5.799  12.620   1.008  0.0575  0.1258 -0.2641
21918W        W35332   1.072   3.203   2.274  0.1750  0.2571  0.1879
21919W        W35333   8.286   4.226   1.069  0.1295 -0.1161 -0.0311
21920W        W35334  15.016   3.977  11.053 -0.2562 -0.0203 -0.0490
21921W        W35335  15.155   2.326  13.662  0.1773 -0.0563  0.1429
21922W        W35336   5.837   4.554   5.281 -0.0181  0.0874  0.2188
21923W        W35337   7.552  15.825  15.768  0.1108  0.3173 -0.1294
21924W        W35338  11.906  11.024  15.670  0.1069  0.0199 -0.1897
21925W        W35339  17.373   1.028   3.476 -0.2596  0.1610  0.2248
21926W        W35340   8.872   8.700   5.660  0.0641  0.2464 -0.0536
21927W        W35341   8.666   5.133  10.311 -0.1045  0.0154 -0.0852
21928W        W35342  14.911   8.254   1.400 -0.1226  0.1720 -0.1594
21929W        W35343  12.940   3.158  12.791  0.0532 -0.2268  0.2277
21930W        W35344  15.541  12.578   1.634 -0.0129 -0.0759  0.0640
21931W        W35345  15.567  13.344  10.320  0.1656 -0.1783  0.2348
21932W        W35346   4.945  13.647  14.147  0.0835 -0.0886  0.2087
21933W        W35347   3.893   5.205  14.508  0.1013  0.4662  0.5431
21934W        W35348  13.605   1.925   0.017 -0.2503  0.1104 -0.2229
21935W        W35349  10.159   0.487   2.069  0.0978 -0.0325  0.0388
21936W        W35350   4.228   5.717   1.278  0.2728  0.1280 -0.1184
21937W        W35351  11.422   6.451  15.084 -0.0876  0.1562 -0.3314
21938W        W35352  13.508   4.760   6.094 -0.3792  0.4699 -0.3201
21939W        W35353   6.996   6.093   1.678  0.0309  0.0026 -0.0649
21940W        W35354   7.860   6.500  15.086  0.2748 -0.5497  0.2868
21941W        W35355   2.813  10.670   5.087 -0.0775  0.1746  0.0764
21942W        W35356   7.843   1.692   5.607  0.0125 -0.2619  0.0576
21943W        W35357  15.907  10.784   4.171  0.1779 -0.0936  0.2979
21944W        W35358   5.396   6.045  14.099 -0.1553  0.2699  0.1141
21945W        W35359   1.993   7.414   6.205 -0.0741 -0.1083 -0.0875
21946W        W35360   0.315  10.835  11.505 -0.1583  0.0144  0.1717
21947W        W35361  16.365   3.635  11.029  0.1291  0.1135 -0.1653
21948W        W35362  17.943  17.772  13.952  0.0968  0.1966 -0.0072
21949W        W35363   7.556   8.044   0.588 -0.1360 -0.0486 -0.0476
21950W        W35364  16.639   6.524   3.313 -0.0471  0.1617 -0.1316
21951W        W35365  17.056  18.065  16.284 -0.0413  0.0776 -0.0053
21952W        W35366   5.719   2.317   3.352  0.2992 -0.0429  0.1533
21953W        W35367   8.355  11.046   1.103  0.5056 -0.1642  0.2255
21954W        W35368  16.554   2.001   3.277 -0.1493 -0.1755 -0.0603
21955W        W35369   8.645  14.510   4.639 -0.0837  0.0558  0.2865
21956W        W35370   7.141  14.777   2.730 -0.0960 -0.0913 -0.0591
21957W        W35371   8.709  17.613   1.586 -0.0571 -0.0250  0.2802
21958W        W35372  11.141   5.207   3.193  0.1580  0.0466 -0.2426
21959W        W35373  11.646   4.669   1.088 -0.0213 -0.1268  0.0186
21960W        W35374   5.933   9.102   5.460 -0.0089 -0.2163 -0.1251
21961W        W35375  12.956  14.745   4.835  0.0811  0.0233  0.1262
21962W        W35376   4.482  14.216   1.139  0.1382  0.2575 -0.2391
21963W        W35377   6.619   9.103   0.525 -0.1179 -0.2732 -0.3764
21964W        W35378  15.755   9.436   4.213  0.1037 -0.1474 -0.1598
21965W        W35379   3.485   5.913   2.957 -0.1945 -0.1638 -0.1287
21966W        W35380  14.060  16.614   4.357 -0.2029  0.4260  0.1166
21967W        W35381   8.922  17.800   5.204  0.3096  0.2904  0.1098
21968W        W35382   3.126   8.786   1.563  0.2561 -0.0782 -0.0383
21969W        W35383  15.901   6.591  11.480 -0.0875  0.1025  0.1982
21970W        W35384   7.161  13.425  15.756  0.3825 -0.0628 -0.2089
21971W        W35385   6.331   2.159  11.620  0.0863 -0.0672  0.2804
21972W        W35386   3.116   0.338  11.708  0.0046 -0.0495  0.1610
21973W        W35387   5.387   9.476  13.658  0.0264 -0.0515  0.1365
21974W        W35388  11.800   1.111   4.117 -0.0458 -0.0898  0.1337
21975W        W35389  17.683   1.382  15.208 -0.2251  0.2659  0.2412
21976W        W35390   4.258  17.472  15.560 -0.1821  0.2204 -0.0832
21977W        W35391   5.804   7.745  12.408 -0.0666  0.1111  0.1134
21978W        W35392  13.216   5.109  12.810  0.0213 -0.1607  0.1382
21979W        W35393   2.613   2.127  14.353 -0.0031 -0.1401  0.0401
21980W        W35394  14.764  12.061  15.773  0.0155 -0.1067 -0.2721
21981W        W35395   5.939  10.204   2.562  0.1686  0.3245  0.3718
21982W        W35396  10.999   7.690  11.975  0.2703  0.0268  0.0469
21983W        W35397   0.463   1.304   3.611  0.1142  0.0226 -0.1862
21984W        W35398   9.355  10.224   4.977 -0.0776 -0.1571  0.2284
21985W        W35399   8.101   9.959  12.751  0.1730  0.1199 -0.2767
21986W        W35400   2.738   6.639  13.224 -0.1673  0.1643  0.1622
21987W        W35401  12.216   1.570  13.492 -0.3527 -0.1545  0.2356
21988W        W35402   6.709   7.227  13.650 -0.2438  0.0520 -0.1498
21989W        W35403   4.855  16.458   3.220 -0.2795 -0.0161 -0.1420
21990W        W35404  11.288  10.218  10.060 -0.1861 -0.1390  0.2824
21991W        W35405  10.780   0.307   0.690  0.1800 -0.0453  0.1816
21992W        W35406  18.062  11.856  14.385 -0.0119  0.2073 -0.1326
21993W        W35407   6.211   4.969   3.816 -0.0601 -0.2839 -0.1259
21994W        W35408  17.555  17.557   1.254 -0.2635 -0.1078 -0.1794
21995W        W35409  13.643  13.852   3.435  0.0113  0.0435  0.0818
21996W        W35410  14.515  15.233   5.830  0.0501  0.0551 -0.0286
21997W        W35411   8.263   9.993  14.439  0.1361  0.1266  0.1171
21998W        W35412   8.912  10.901   4.803 -0.2813 -0.0948 -0.1608
21999W        W35413  16.000   2.223   4.474 -0.3628  0.1058  0.2205
22000W        W35414  15.893  15.346  10.606  0.1125  0.1823  0.0269
22001W        W35415  15.145   1.471   4.899 -0.1013 -0.1340 -0.1450
22002W        W35416   9.275  10.732  16.147  0.4095  0.0791 -0.1300
22003W        W35417  16.718  13.383  12.213 -0.1252  0.0663 -0.0374
22004W        W35418  14.613   9.763  10.635 -0.2188  0.2227 -0.1500
22005W        W35419  17.176   6.742   1.529 -0.1471 -0.3268  0.0892
22006W        W35420  14.724   8.667  15.467  0.1702  0.0763  0.3004
22007W        W35421   7.311  10.172   1.230 -0.0821  0.0362 -0.1970
22008W        W35422  10.750  11.546  12.015 -0.0633 -0.3202 -0.0801
22009W        W35423   9.004   0.667  16.008 -0.3504 -0.0759 -0.1782
22010W        W35424   3.929  12.876   2.570 -0.1080  0.0542 -0.1707
22011W        W35425   8.178  12.005  14.862 -0.1106 -0.0066  0.1334
22012W        W35426   4.045  15.982   5.989  0.2431  0.1302  0.1490
22013W        W35427  13.075   8.309   0.814 -0.1424 -0.0641 -0.1353
22014W        W35428   0.344   6.239   9.845  0.2285 -0.2832  0.0213
22015W        W35429  16.883  11.886   2.363  0.1273  0.0520  0.0150
22016W        W35430  13.850   5.044  12.046  0.1905  0.4025 -0.0421
22017W        W35431   4.957   5.670  15.558  0.2134  0.0975 -0.3145
22018W        W35432  15.385  13.861  12.589  0.3238  0.1051  0.0200
22019W        W35433  12.859   4.419  15.990 -0.0997 -0.0436 -0.2579
22020W        W35434   0.407   7.423   2.832 -0.0393 -0.0667 -0.0398
22021W        W35435   7.023   2.882   1.105  0.0263  0.1331 -0.0849
22022W        W35436   7.294   0.686  11.483  0.0157 -0.0466  0.0167
22023W        W35437   3.051  11.973  11.447 -0.3406  0.0377  0.1171
22024W        W35438   7.580  12.202   2.628 -0.3007  0.1022 -0.2691
22025W        W35439   4.954  17.997  13.529 -0.0181  0.5164 -0.1179
22026W        W35440  14.580  11.164   3.278 -0.2444 -0.1547  0.1824
22027W        W35441  16.374  14.400  15.346 -0.4455  0.0871 -0.0761
22028W        W35442  10.573   6.990   1.591  0.1247 -0.1657 -0.0485
22029W        W35443   2.243   6.294  11.670 -0.2548 -0.3541  0.1445
22030W        W35444   1.859   0.319  10.553  0.3544  0.0717  0.1723
22031W        W35445   4.707   4.623   5.368 -0.1779  0.4609  0.0734
22032W        W35446   5.473   1.603   5.878 -0.0345  0.1859  0.2671
22033W        W35447  15.303   7.028   5.198 -0.0591 -0.0084 -0.1006
22034W        W35448   8.243  10.928   5.577 -0.3935  0.1531  0.0842
22035W        W35449   7.797   9.495  10.069  0.1154 -0.0884 -0.0836
22036W        W35450  16.323  13.674   4.706 -0.1988 -0.0900  0.3495
22037W        W35451   8.208  15.170   3.388  0.0153 -0.2295 -0.0807
22038W        W35452  13.756  14.488  12.878 -0.2004 -0.0849 -0.0292
22039W        W35453   3.324   6.761  12.451  0.4374 -0.2580  0.0284
22040W        W35454   2.307  15.228   2.909  0.2351 -0.0174 -0.0432
22041W        W35455  15.014   6.347   1.440  0.3278 -0.0547 -0.2027
22042W        W35456  10.445   9.366  13.482  0.1776  0.0236  0.0240
22043W        W35457   1.452   6.195   1.363  0.2045  0.0833 -0.0102
22044W        W35458   5.936   8.151  14.744  0.0819  0.2007 -0.0389
22045W        W35459   3.524   5.486   4.896 -0.1293 -0.1034  0.1979
22046W        W35460   8.080   2.312   1.109 -0.1710 -0.0546  0.0911
22047W        W35461  12.191   1.169  13.858  0.0797  0.0540 -0.0227
22048W        W35462  10.576   2.011  12.111 -0.0259 -0.1178 -0.0852
22049W        W35463   0.409   1.560  12.968 -0.2645 -0.1167  0.1208
22050W        W35464   6.621   9.949  16.124 -0.1625 -0.1342 -0.0222
22051W        W35465   9.084  16.379  12.092  0.0357  0.1332  0.0405
22052W        W35466   9.369  16.512   3.013 -0.1351  0.0858 -0.1872
22053W        W35467  10.439   9.407  11.955 -0.0809  0.1600  0.0573
22054W        W35468   8.056  14.757  12.948  0.0670 -0.0305 -0.1595
22055W        W35469   6.716  17.254  15.223  0.1630  0.2018 -0.0019
22056W        W35470  16.386   1.033  12.038 -0.1937 -0.0194  0.1045
22057W        W35471  17.929   1.976   1.784 -0.2044 -0.0627 -0.1223
22058W        W35472   1.990  10.526   2.452 -0.2221  0.0751  0.1016
22059W        W35473   2.001  10.725  14.111 -0.1175  0.1026 -0.2718
22060W        W35474   9.821  10.175  10.603 -0.1240 -0.1918  0.4197
22061W        W35475  13.171  18.043   4.067 -0.1273  0.0292  0.5232
22062W        W35476   0.155  11.898  11.249  0.0896 -0.0791 -0.1518
22063W        W35477  15.271   6.079  15.533  0.3645  0.3336  0.3152
22064W        W35478   5.279   4.680  14.700 -0.1597  0.2742  0.2163
22065W        W35479   0.206   1.568   5.820 -0.2649 -0.1014 -0.1815
22066W        W35480   7.215   4.830   4.859 -0.3264  0.3482  0.1358
22067W        W35481  11.438   3.352   0.077  0.0792  0.0841  0.1219
22068W        W35482  15.157   5.339   1.839  0.1832 -0.1991 -0.2413
22069W        W35483  10.538   5.717   5.605  0.0912 -0.1686 -0.3693
22070W        W35484  10.521   0.078  15.521  0.1944  0.2439 -0.0900
22071W        W35485   1.926  17.842  10.915  0.2170 -0.1337 -0.1117
22072W        W35486   6.366   0.380  15.049 -0.0619  0.0985 -0.1571
22073W        W35487   0.424   2.771   4.296 -0.0177  0.3404 -0.1403
22074W        W35488  10.191  16.096   0.485  0.2371 -0.0550 -0.3961
22075W        W35489   0.605  14.552   1.127  0.1749  0.0785  0.1463
22076W        W35490  12.885   8.777   3.171  0.1082 -0.0542  0.0245
22077W        W35491  12.492   3.279   3.786 -0.0397  0.2181 -0.1292
22078W        W35492   6.735   2.131   5.082  0.1854  0.1582  0.1540
22079W        W35493  11.703   8.007  15.269 -0.1942 -0.1612 -0.0126
22080W        W35494  16.033  15.697   5.581  0.0039 -0.0766 -0.0627
22081W        W35495  13.814   2.974   3.077  0.1783  0.0336 -0.3694
22082W        W35496   7.107  14.970  13.894 -0.2687  0.1850 -0.2758
22083W        W35497  11.222   2.914  16.441 -0.3483  0.0987  0.2567
22084W        W35498   8.657   7.034   4.209  0.2285  0.0145 -0.2840
22085W        W35499  16.313   3.317  11.489 -0.2262  0.1853 -0.0978
22086W        W35500   0.969   7.297  10.384  0.5309  0.2021  0.0356
22087W        W35501  13.857   2.562  12.481  0.4238  0.0308  0.0280
22088W        W35502   5.162  11.977   3.561 -0.0276  0.2255 -0.1616
22089W        W35503  18.005  15.733  12.961  0.3188  0.0281 -0.1273
22090W        W35504   3.586  12.395   1.834  0.0884 -0.0451  0.0392
22091W        W35505  11.356   6.301  12.848  0.0278 -0.0393 -0.3369
22092W        W35506   0.177  16.161   5.608 -0.0680  0.3786  0.1105
22093W        W35507  17.412  11.156   2.193  0.2937 -0.0561  0.1209
22094W        W35508  15.118   6.557  10.397 -0.1567 -0.0765  0.1287
22095W        W35509   3.407   6.946   5.719  0.0420  0.1358 -0.1502
22096W        W35510   0.037  10.390  16.476 -0.0463 -0.1635  0.1004
22097W        W35511   6.689   6.057   1.260 -0.0876 -0.1309 -0.0252
22098W        W35512  10.495  12.676  10.443  0.1040  0.0296  0.0812
22099W        W35513  13.026  11.169  11.701 -0.0020  0.0043  0.2475
22100W        W35514  13.217  12.198   5.856 -0.0546 -0.0054  0.0408
22101W        W35515  11.447  10.379  14.224  0.0083  0.1091  0.3396
22102W        W35516   7.249   1.917   2.767  0.2506  0.0443  0.1893
22103W        W35517  11.707   7.158   4.459  0.1868  0.0477 -0.1454
22104W        W35518  13.033  17.866   5.890  0.2692  0.1966 -0.2113
22105W        W35519   4.755   0.603   2.911  0.2414 -0.3001  0.1679
22106W        W35520  10.945  13.324   1.775 -0.0185  0.0061 -0.2613
22107W        W35521   7.927  16.030  13.704 -0.2002  0.1080  0.0175
22108W        W35522  17.431  16.630   6.830 -0.1027  0.0605  0.2626
22109W        W35523   4.298   4.778   3.004  0.1041 -0.0383 -0.3493
22110W        W35524   7.367   6.874   4.165  0.0819 -0.2394  0.0840
22111W        W35525  11.133  15.760  13.376  0.0104 -0.3324  0.1497
22112W        W35526   1.684   8.316   0.144 -0.2106 -0.1995 -0.1618
22113W        W35527  13.434  10.503  13.977  0.0250 -0.0114  0.4691
22114W        W35528   7.362   0.022   6.267  0.0325  0.4679  0.2678
22115W        W35529   4.391  12.495   1.411  0.1962 -0.1685 -0.1502
22116W        W35530  13.363   6.414  16.278  0.0757  0.1171 -0.2289
22117W        W35531  12.464  10.724  11.346 -0.1072  0.2241  0.3318
22118W        W35532   5.355   7.934   3.101  0.2121 -0.3842 -0.1697
22119W        W35533   3.057  10.296  15.463 -0.0776  0.1776 -0.1883
22120W        W35534  11.116   8.230   4.163 -0.0228 -0.1017 -0.2492
22121W        W35535   5.061  15.543   3.122  0.2115 -0.0516  0.1374
22122W        W35536   8.005   1.680  13.367  0.2226 -0.2509  0.0587
22123W        W35537  10.182  11.025   0.549 -0.2576 -0.3334 -0.1275
22124W        W35538   1.284  14.263  15.160 -0.0432  0.2751 -0.2064
22125W        W35539  11.919   7.204  14.515  0.2589  0.0637 -0.2360
22126W        W35540   2.037  17.300  12.382 -0.0755 -0.3659  0.0021
22127W        W35541   2.116   8.812  10.900  0.0805  0.2305  0.2356
22128W        W35542   4.300   4.377   0.482 -0.2501  0.0528  0.0294
22129W        W35543  18.049   9.071   1.059  0.2118 -0.1331  0.0743
22130W        W35544   8.746   5.385   2.483  0.1172  0.0237  0.0326
22131W        W35545   9.506   7.281   0.296 -0.0303 -0.0926 -0.0497
22132W        W35546   7.389   5.634  15.897 -0.1649  0.3058 -0.1243
22133W        W35547   4.812   4.871  14.760  0.0722 -0.1347 -0.2927
22134W        W35548   0.445  12.594  12.375 -0.0814 -0.2277 -0.4061
22135W        W35549   9.895  13.002   0.421 -0.1297 -0.4042 -0.0896
22136W        W35550  17.461  18.157  11.840 -0.1070  0.0227 -0.1292
22137W        W35551  14.430   8.594   4.183 -0.3410  0.0431 -0.0559
22138W        W35552   2.754  14.530   1.760 -0.3338 -0.3639  0.3072
22139W        W35553   3.677   9.802   0.218 -0.3915  0.0209  0.0322
22140W        W35554  15.301  18.125  11.018  0.0460  0.1670  0.2972
22141W        W35555  11.825   5.270  13.969 -0.2174 -0.1356  0.1651
22142W        W35556   3.243  17.708  14.706 -0.1128 -0.0274 -0.0271
22143W        W35557  12.465  18.066  11.590  0.1060  0.1012 -0.1242
22144W        W35558   0.313   7.382  15.480 -0.0618 -0.0146 -0.1987
22145W        W35559  17.689   8.878  12.052 -0.1241 -0.3572  0.1368
22146W        W35560  17.443   0.528  15.806  0.2751 -0.0608 -0.3849
22147W        W35561  10.000   6.008  14.021 -0.0198  0.2210  0.0900
22148W        W35562   4.725  15.451  11.814 -0.0843 -0.0195 -0.0026
22149W        W35563   3.676   3.849   3.437  0.0622 -0.2716  0.0310
22150W        W35564   5.084  17.301   5.139  0.0672  0.1797  0.0877
22151W        W35565  10.086   4.201   5.282  0.0327 -0.0157 -0.0974
22152W        W35566   3.132  17.622  16.529  0.1706 -0.1118  0.0738
22153W        W35567  17.924  16.436   4.112  0.0732 -0.3263 -0.3224
22154W        W35568  16.258   8.791  15.494  0.2801  0.0942  0.0226
22155W        W35569   8.922   8.358   3.907 -0.3290 -0.0498  0.0747
22156W        W35570   4.757   2.291   1.689  0.1206 -0.1126  0.0458
22157W        W35571  18.022  16.710   0.632 -0.0967 -0.1682 -0.4327
22158W        W35572   7.901   4.296   4.440  0.0981 -0.1474 -0.1780
22159W        W35573   7.042   1.903   3.573  0.0127  0.1118 -0.0425
22160W        W35574  11.132  13.603  12.146 -0.0276 -0.3302  0.1384
22161W        W35575  11.842   8.324   1.034 -0.2281 -0.1864 -0.2305
22162W        W35576   5.640   6.037  15.598 -0.0396 -0.2443  0.1767
22163W        W35577  15.581  12.065   2.881 -0.0318  0.1346 -0.0122
22164W        W35578  11.354   2.082   4.963  0.0950 -0.0780 -0.3331
22165W        W35579   0.203   4.600  11.183  0.4981 -0.0737 -0.0178
22166W        W35580  16.283  11.715  15.210  0.0795 -0.0710  0.0284
22167W        W35581  14.715  10.330   0.423  0.0933 -0.3708  0.0852
22168W        W35582   4.582   4.559   3.400  0.0496  0.3920  0.1064
22169W        W35583   6.461   2.018  10.504  0.1804 -0.1418  0.2188
22170W        W35584   8.987  17.258   3.151  0.0813 -0.5630 -0.1773
22171W        W35585   7.474   3.394  16.210  0.0225  0.2347 -0.1016
22172W        W35586   7.141  13.168   3.920 -0.1848 -0.0266  0.2542
22173W        W35587   2.462  11.883   1.708 -0.1824  0.0869  0.1133
22174W        W35588  10.475  16.580   3.089 -0.1043 -0.0356  0.2619
22175W        W35589  12.136   8.064   4.529 -0.1250 -0.1645 -0.2564
22176W        W35590   6.031   1.676   0.624 -0.1477 -0.2131  0.0809
22177W        W35591  11.853   0.825   5.616 -0.0046 -0.0825 -0.2769
22178W        W35592   9.185  10.822   5.470  0.0223  0.0840 -0.3010
22179W        W35593   6.601   7.929   1.166  0.1360 -0.0817 -0.2856
22180W        W35594   0.346   9.947   0.530 -0.2898 -0.3568 -0.0439
22181W        W35595  15.262  10.256  12.919  0.1006  0.3572 -0.3433
22182W        W35596  15.474   3.681  16.306  0.0433 -0.0162 -0.1021
22183W        W35597  10.483   4.827   1.048  0.1345  0.0925 -0.1705
22184W        W35598  17.372   3.130  12.445 -0.0278  0.0757 -0.0212
22185W        W35599  13.850   7.117   4.337 -0.0206  0.1517 -0.1991
22186W        W35600  16.094  17.350   3.084 -0.1349 -0.1391 -0.0566
22187W        W35601  15.805   2.265   2.522  0.3375 -0.1050 -0.1627
22188W        W35602   0.100   8.740   1.305  0.0919 -0.3609 -0.1998
22189W        W35603   6.411  17.065  13.382 -0.0375  0.0998  0.0591
22190W        W35604  15.887   8.501   2.291 -0.0740 -0.1486 -0.2349
22191W        W35605  11.322  18.008   2.677  0.2506  0.2091 -0.0298
22192W        W35606   6.591  11.632   2.345 -0.3183 -0.0477  0.0579
22193W        W35607   6.738  16.195   5.693  0.0343 -0.2688  0.4419
22194W        W35608   0.132   8.068   5.242 -0.2557 -0.1814  0.0210
22195W        W35609  16.154  16.149   5.913 -0.1179  0.0747  0.1999
22196W        W35610   2.527   9.064  10.594 -0.0690  0.1308 -0.0797
22197W        W35611   6.811  16.611   1.943  0.0545 -0.0928  0.1568
22198W        W35612  14.613   3.290  14.246 -0.0619  0.1789  0.0034
22199W        W35613   6.800   9.553  12.089 -0.1287 -0.1250 -0.1003
22200W        W35614   5.560  17.150   2.147  0.2021 -0.1573 -0.3609
22201W        W35615  13.310   0.925   2.648 -0.0643  0.2712 -0.1358
22202W        W35616  12.791   9.370   0.911 -0.1225 -0.2335 -0.1866
22203W        W35617   4.636  15.168   3.239  0.3537 -0.1206  0.1999
22204W        W35618  11.509  16.950   1.164  0.0214  0.2392  0.0229
22205W        W35619  11.275  14.965   2.300  0.0209  0.0702  0.0182
22206W        W35620  11.347  13.520  13.116  0.1814 -0.0657  0.0432
22207W        W35621   7.488  15.146   4.765  0.0771 -0.1630 -0.2482
22208W        W35622   3.631   0.655  12.225 -0.2056 -0.0139  0.3513
22209W        W35623   9.121  11.186   2.262  0.3610  0.0317  0.0318
22210W        W35624   3.627   3.293  14.548  0.0196 -0.2658 -0.1800
22211W        W35625  13.318   8.630  16.387  0.1025 -0.1559  0.1029
22212W        W35626   9.094   4.332   5.766  0.1218  0.1153 -0.2621
22213W        W35627  15.042   4.720  15.738 -0.1165 -0.2321  0.3462
22214W        W35628  17.043   4.757  11.758  0.2146 -0.0850  0.1822
22215W        W35629   4.738   5.821  11.486  0.0495  0.2355  0.2395
22216W        W35630   8.090   8.828  11.025  0.1872 -0.4209 -0.2208
22217W        W35631  15.172  11.922   4.287  0.2950 -0.1259  0.0699
22218W        W35632   3.390  14.218  11.237  0.5857 -0.2214  0.1289
22219W        W35633   1.390  16.212  11.987  0.4048  0.1119  0.1748
22220W        W35634   9.154   7.674   1.054 -0.0412 -0.0779  0.2166
22221W        W35635   9.986  16.424   5.281 -0.2567  0.0721 -0.0110
22222W        W35636  16.582   4.463   1.923 -0.2380 -0.0084 -0.0358
22223W        W35637  10.077   4.188  12.178 -0.1026  0.3665  0.0622
22224W        W35638   0.492   4.696   0.315 -0.1147 -0.1927  0.2033
22225W        W35639  11.873   2.243  12.193  0.3755 -0.0007 -0.1171
22226W        W35640   5.787   6.965   0.943 -0.0147 -0.2744 -0.0341
22227W        W35641  14.866  18.199  11.889  0.1330  0.0092 -0.0941
22228W        W35642   7.497  18.065  16.092  0.0536  0.1620 -0.0305
22229W        W35643  10.575  13.184   4.442  0.2205 -0.2523 -0.1957
22230W        W35644   4.951   9.527   4.406  0.0904  0.1257 -0.0839
22231W        W35645  16.139   5.585   4.272 -0.2258 -0.1865 -0.0474
22232W        W35646   8.542  14.983  13.730  0.1001  0.1852 -0.1431
22233W        W35647  16.305   2.989  13.391 -0.4022  0.0691 -0.0604
22234W        W35648  16.785  12.945   1.153  0.1415 -0.2040  0.1968
22235W        W35649  14.275  14.450  14.619  0.0596  0.1287 -0.1172
22236W        W35650   4.617  13.475   6.417 -0.1322  0.1406  0.0705
22237W        W35651  16.919  15.514  11.359  0.1297 -0.2690 -0.0270
22238W        W35652  12.845  16.349  15.125 -0.0055 -0.2356 -0.1203
22239W        W35653   9.078  10.316   5.658  0.1820  0.0919  0.1889
22240W        W35654  10.465  17.416   3.979 -0.2241 -0.0061 -0.0140
22241W        W35655  15.766   0.097  10.788  0.0049 -0.0814  0.0882
22242W        W35656   4.558  11.286   2.316  0.1794 -0.3355 -0.0457
22243W        W35657  14.040   5.361  15.100  0.1139 -0.1424 -0.0502
22244W        W35658   7.112  16.502   5.846 -0.0084  0.0273 -0.2531
22245W        W35659   6.004   5.760  12.579 -0.1633  0.1002  0.1796
22246W        W35660   2.571   3.278   3.133 -0.0268  0.0840  0.0241
22247W        W35661   3.586  15.689  11.923  0.0234 -0.0057 -0.1216
22248W        W35662  13.453  14.082  10.386 -0.3274 -0.0595  0.1066
22249W        W35663   1.257   0.123  11.625 -0.0873  0.1585 -0.0265
22250W        W35664   0.730   0.516   3.432  0.1699  0.0554 -0.1439
22251W        W35665   2.670  16.688  15.281 -0.2454  0.2079  0.0281
22252W        W35666  17.149  13.742   5.323 -0.0635  0.0563  0.2766
22253W        W35667  10.336   8.681   4.568  0.2763  0.1937  0.1007
22254W        W35668   8.523  15.415  10.381  0.2090  0.2321  0.0012
22255W        W35669  12.095   1.397   3.699  0.2405  0.6675 -0.0785
22256W        W35670   2.415  12.665  11.500 -0.1278  0.0934 -0.0741
22257W        W35671   6.062   9.537   3.649  0.1386  0.1829 -0.1532
22258W        W35672  10.348   3.169   5.184  0.0464 -0.1465  0.1848
22259W        W35673  11.088   4.036   1.670 -0.0532 -0.0415 -0.3752
22260W        W35674   9.892  13.030  12.211  0.1818  0.2475  0.1044
22261W        W35675   2.289   2.689  13.625  0.2896 -0.2001 -0.0705
22262W        W35676   6.862   6.154  16.245  0.1829 -0.3090  0.0092
22263W        W35677   9.075  15.675   3.401  0.2797 -0.0725 -0.1770
22264W        W35678  10.955   4.073  15.396 -0.0192 -0.0590 -0.1257
22265W        W35679   5.083   3.006   3.573 -0.0681  0.3151  0.1410
22266W        W35680  14.959   0.459  11.977  0.0071  0.1276 -0.0067
22267W        W35681   4.538   0.698  12.149 -0.0925 -0.0311 -0.2151
22268W        W35682  15.543   8.965  12.051  0.3166  0.2171 -0.0697
22269W        W35683  15.396  15.386   1.551 -0.3120 -0.1873  0.2107
22270W        W35684   6.278  16.615  13.333  0.0885  0.1958 -0.2727
22271W        W35685  13.835   2.892  15.078  0.2798 -0.3752 -0.2871
22272W        W35686  13.369   0.105   0.057 -0.0309 -0.0616 -0.0243
22273W        W35687  11.784   7.838   4.012 -0.0184 -0.4211 -0.1365
22274W        W35688   3.798  15.061   0.773 -0.0396 -0.0325  0.0138
22275W        W35689  15.688   2.508   5.258  0.0123 -0.0102  0.0818
22276W        W35690  14.295  18.152   5.549  0.0749  0.4067  0.0677
22277W        W35691  15.472  11.148   5.009 -0.0759 -0.1584 -0.1301
22278W        W35692   2.517   6.210  13.051 -0.0959 -0.3862 -0.0118
22279W        W35693   6.138   1.072   1.071 -0.0088 -0.0132 -0.1122
22280W        W35694   6.670   2.365  11.275 -0.0857  0.0850 -0.2089
22281W        W35695  11.637   6.471   2.717 -0.1063  0.2965  0.0289
22282W        W35696   8.931   0.352  12.970  0.2927 -0.0628 -0.0096
22283W        W35697  16.779   0.822  13.809 -0.2735  0.2657  0.1040
22284W        W35698   7.130  15.810   0.571 -0.0556 -0.3436 -0.3595
22285W        W35699  12.082  13.273  11.026  0.2339  0.3755 -0.1112
22286W        W35700  17.052   4.098   1.495 -0.0422  0.1678  0.0221
22287W        W35701  15.046   8.676   0.054  0.3406 -0.0309  0.0816
22288W        W35702  13.163   7.241   0.188  0.1129 -0.1982 -0.0321
22289W        W35703  15.403  11.813  14.183  0.1861 -0.0857 -0.1090
22290W        W35704   4.553  18.170  11.546  0.1542 -0.3834 -0.1289
22291W        W35705  13.860   0.069   2.246  0.0390 -0.1703  0.1720
22292W        W35706  13.020  10.411  13.225 -0.0335 -0.0421 -0.1951
22293W        W35707  14.166   2.067  13.773  0.0698 -0.0762  0.2586
22294W        W35708   7.618  14.171  14.779  0.1808  0.2301 -0.1663
22295W        W35709   7.078   5.484   3.009  0.0281  0.0904 -0.1165
22296W        W35710   5.798   9.150   1.042  0.0007  0.2143 -0.2016
22297W        W35711  17.921   1.382  14.759 -0.1240 -0.0786 -0.1497
22298W        W35712  15.363   1.203  14.607  0.0316 -0.0202 -0.0411
22299W        W35713   5.207  15.169  11.460 -0.5688  0.0955  0.0690
22300W        W35714   7.865   4.079   2.268  0.0406 -0.1399  0.0770
22301W        W35715  17.485  16.241  11.656  0.1933  0.1426  0.1618
22302W        W35716  11.056  14.250   3.617 -0.0135 -0.1374 -0.0508
22303W        W35717  16.187  14.620  16.530 -0.0654  0.0932  0.0843
22304W        W35718   1.768  16.750  16.107  0.0779  0.0619  0.0218
22305W        W35719  15.461   1.216   5.207  0.0315  0.0390 -0.1786
22306W        W35720   4.099   1.704  13.183 -0.1784 -0.1769 -0.0128
22307W        W35721   4.033   4.239  15.453  0.0099  0.0457 -0.0771
22308W        W35722  17.101  15.265  11.871 -0.1752  0.0739  0.0702
22309W        W35723  10.320   9.256  10.535  0.0207 -0.0501  0.4382
22310W        W35724   9.773   1.195   0.015  0.0261  0.4744  0.1815
22311W        W35725  17.733  15.943  14.282  0.1266  0.1497  0.0556
22312W        W35726  16.176   5.387  10.901  0.0594 -0.2661 -0.2541
22313W        W35727   5.917   1.511  13.246  0.0284  0.0636 -0.1392
22314W        W35728  12.505  11.680  16.044 -0.0813 -0.1248  0.1906
22315W        W35729  16.371   6.922  16.130  0.0237  0.0412 -0.0518
22316W        W35730  15.558  15.871  14.868  0.1971  0.2299 -0.4949
22317W        W35731   2.348   2.525   0.944  0.1425  0.2054  0.0805
22318W        W35732  16.855  12.414   5.441 -0.2077 -0.1128 -0.0303
22319W        W35733  10.812   3.031  15.164 -0.1358 -0.1781  0.0228
22320W        W35734  14.438   4.985   5.209 -0.0084  0.1392 -0.4426
22321W        W35735   5.355  11.716  12.410 -0.4281 -0.1256 -0.0463
22322W        W35736  12.276   1.686   4.058  0.0425  0.0689  0.1809
22323W        W35737   4.562  16.972   4.289  0.1534 -0.0313 -0.3167
22324W        W35738   7.410  13.708  14.046 -0.0996 -0.2823  0.0911
22325W        W35739  17.746   7.211  10.775  0.0359 -0.2516  0.1335
22326W        W35740  11.024   1.087  12.171  0.0239 -0.0552  0.0725
22327W        W35741   1.257  11.973  16.560 -0.3925 -0.2145 -0.2563
22328W        W35742  11.090  13.495  12.660  0.2297  0.0394 -0.0433
22329W        W35743  10.531   0.854  15.488  0.0391  0.1010 -0.5133
22330W        W35744  17.318  16.093  12.127  0.1891 -0.2418 -0.4192
22331W        W35745   8.511   2.964  15.318 -0.1167  0.3276 -0.1482
22332W        W35746  12.147   2.512   5.262  0.1181  0.0393 -0.2622
22333W        W35747   5.595   1.354   6.399 -0.0593  0.0763 -0.0112
22334W        W35748  11.603  17.419   3.908  0.2081 -0.0033  0.0119
22335W        W35749  13.851  12.202   2.938 -0.4202 -0.2355  0.0490
22336W        W35750   3.283  11.042   1.938  0.0272  0.0626  0.0996
22337W        W35751  11.930   9.090   2.194 -0.1078  0.0207  0.0895
22338W        W35752   5.339   2.129  15.910  0.2480  0.0441 -0.0339
22339W        W35753  13.823   7.791  10.517  0.1703  0.0967 -0.1381
22340W        W35754   1.688  15.759  10.689 -0.0122 -0.0104 -0.1548
22341W        W35755  17.664  16.396   1.673 -0.2291 -0.0090 -0.1634
22342W        W35756  18.147   6.986  13.276  0.2689 -0.0571  0.2003
22343W        W35757   5.515  11.152  10.337 -0.0019  0.0479 -0.0170
22344W        W35758   5.461   2.026  12.749  0.0533  0.1412  0.0426
22345W        W35759   1.823   8.075  10.268 -0.0904 -0.1275 -0.0683
22346W        W35760  11.218   7.346   2.835  0.0308  0.1305  0.0153
22347W        W35761  18.259   4.260  13.628  0.2749  0.1088  0.2928
22348W        W35762   6.388   5.272  13.383 -0.2978 -0.0680 -0.1159
22349W        W35763   0.818   8.518   1.032 -0.0320 -0.2195  0.0533
22350W        W35764   9.570   3.160   0.520 -0.0609 -0.1702 -0.2303
22351W        W35765   1.938   7.513   0.706  0.0910  0.0975 -0.2481
22352W        W35766   2.943   5.283   1.722 -0.1670 -0.2757 -0.2103
22353W        W35767   4.826   0.197   5.791  0.2000 -0.3041  0.0999
22354W        W35768   0.078  17.123   5.530  0.0397  0.0566  0.1803
22355W        W35769  14.306  16.315  10.960  0.1119 -0.0908 -0.0425
22356W        W35770  12.738  11.200  14.472 -0.0115  0.0633  0.0304
22357W        W35771  16.556   0.678  14.290  0.1047 -0.0029 -0.0712
22358W        W35772   2.516  10.037   3.225 -0.2176 -0.1881 -0.2386
22359W        W35773   9.553   6.280  15.294  0.0154 -0.3494 -0.0871
22360W        W35774  15.696  10.726   2.435  0.1522  0.2430  0.2062
22361W        W35775   8.720  17.438  10.929  0.0203  0.2523 -0.0443
22362W        W35776   8.750   2.648  15.841 -0.1441  0.1367  0.1083
22363W        W35777   2.258   5.076   0.088 -0.1474 -0.1929  0.1535
22364W        W35778   8.993   8.887   0.417  0.1019 -0.1541 -0.1707
22365W        W35779  12.884  14.388   0.072  0.3959 -0.1277 -0.0469
22366W        W35780  15.255   2.031   6.132  0.0180 -0.3362  0.1141
22367W        W35781  11.356  12.427  14.428 -0.3045 -0.0277 -0.3421
22368W        W35782  15.942  15.383  14.426  0.0357  0.1484 -0.0439
22369W        W35783   8.742   2.059  11.353  0.3925  0.1219  0.1969
22370W        W35784  13.603   8.742  14.698 -0.1498 -0.1053  0.1873
22371W        W35785  11.933   9.460  14.804  0.4419  0.4461  0.1213
22372W        W35786  15.038   4.770  14.830  0.3754  0.0227 -0.1216
22373W        W35787   1.853   2.754   3.617 -0.1302 -0.3730  0.1216
22374W        W35788   3.643  15.277  15.894  0.0328  0.0837  0.2287
22375W        W35789  10.598   3.778   4.652  0.0319 -0.1495  0.1531
22376W        W35790  14.426  14.038  12.792  0.1993 -0.1685 -0.1486
22377W        W35791  17.635   4.266   2.693  0.1839 -0.3218 -0.1685
22378W        W35792   8.571   0.686  15.294  0.0817 -0.2286  0.2102
22379W        W35793   7.855   5.880   5.083  0.0517 -0.1220 -0.2179
22380W        W35794   2.159  16.568  11.782  0.1643 -0.1926 -0.1997
22381W        W35795   9.435  17.217  12.329  0.0259 -0.0959 -0.1044
22382W        W35796  15.190   5.053   2.299  0.3101  0.3592 -0.1022
22383W        W35797  10.706   7.548   5.430 -0.1456 -0.2155  0.3146
22384W        W35798  10.990   7.352  10.525 -0.2161 -0.0294 -0.3631
22385W        W35799   1.114  18.028  16.453 -0.1713 -0.0240  0.0516
22386W        W35800   1.987   3.252  12.914  0.3057 -0.0210 -0.0638
22387W        W35801   0.558  14.135   0.530 -0.1015 -0.2846  0.0383
22388W        W35802  10.847  14.929  11.989  0.0448  0.0581  0.1614
22389W        W35803  12.407  17.248  16.058  0.2681  0.0432  0.2934
22390W        W35804  13.113   4.053  11.377 -0.2108  0.2216 -0.1469
22391W        W35805   6.469  14.212  15.478  0.2043 -0.1547 -0.1190
22392W        W35806   1.143  16.273   0.462 -0.0282  0.0925 -0.1781
22393W        W35807  11.755   9.171   5.217 -0.0178 -0.0798  0.1029
22394W        W35808  12.213  17.934  12.076 -0.1326  0.1013  0.1630
22395W        W35809  13.099  11.931   2.209  0.2539 -0.0287 -0.1179
22396W        W35810  13.168  10.326   1.779 -0.2361  0.2300 -0.0594
22397W        W35811   7.392  12.181   0.775  0.2415  0.0460 -0.2104
22398W        W35812   7.098  12.651   2.056  0.0946 -0.0763  0.0190
22399W        W35813   5.373   7.424   2.853 -0.3471 -0.3387  0.0322
22400W        W35814  16.301   4.641   4.113 -0.0482  0.2964 -0.1767
22401W        W35815  14.851   5.107  16.391  0.2920 -0.1272 -0.1426
22402W        W35816   8.396   2.920   6.259 -0.1520  0.0056 -0.0618
22403W        W35817   4.399  11.748   1.984  0.0999 -0.1044 -0.0401
22404W        W35818   9.935  13.197   2.057  0.0898  0.0294  0.1413
22405W        W35819   8.402  14.744   2.123 -0.1394  0.2077  0.0515
22406W        W35820   9.334  12.210  11.620  0.0000 -0.1063 -0.3739
22407W        W35821   7.025  12.428   1.056  0.0662  0.0251 -0.0348
22408W        W35822   9.060  16.136   4.382  0.3786 -0.0645  0.1885
22409W        W35823  14.694   9.621   5.738 -0.1607  0.0176  0.2408
22410W        W35824  17.586   6.927   0.412 -0.0031  0.0385  0.0289
22411W        W35825  14.948   5.691  14.819 -0.2831  0.0585  0.1568
22412W        W35826   4.499  10.793   6.699  0.1496  0.2707 -0.3475
22413W        W35827   9.981   4.393  13.699 -0.0513 -0.2254  0.0892
22414W        W35828  16.597  11.584   1.031  0.0106 -0.1342 -0.0103
22415W        W35829  13.777   9.533  10.169  0.1728 -0.1106  0.1778
22416W        W35830   2.823  12.323   0.969 -0.0363 -0.1683  0.3569
22417W        W35831   4.767   0.063   1.343 -0.2151 -0.0545  0.2496
22418W        W35832   8.432   3.755   1.133 -0.3194 -0.1031  0.0052
22419W        W35833   6.902  13.973  11.954  0.1544 -0.0041 -0.2591
22420W        W35834   0.893   4.851   2.697  0.1993 -0.1064  0.1620
22421W        W35835  10.768  15.682  15.039 -0.4486 -0.0213 -0.2370
22422W        W35836  12.516  18.109   2.285  0.0015 -0.0755 -0.1064
22423W        W35837   3.627  17.046   6.796 -0.0030  0.1412 -0.0662
22424W        W35838  14.516  15.764  12.977 -0.0931 -0.3780 -0.2696
22425W        W35839   4.787   2.031  16.105 -0.0995  0.0981 -0.3505
22426W        W35840  10.173  11.909   5.566  0.0315 -0.1556 -0.1932
22427W        W35841  18.226   4.640   0.167 -0.0007 -0.0894 -0.1237
22428W        W35842  10.121  13.478  14.816 -0.2521  0.0450 -0.1130
22429W        W35843  17.496   3.533   0.828  0.1677 -0.1312  0.3113
22430W        W35844  14.746   5.613   2.027  0.1913  0.1477 -0.2018
22431W        W35845  14.170  17.441   1.032  0.1720  0.0205 -0.1810
22432W        W35846   9.144   3.490  14.148 -0.2479 -0.2938 -0.2365
22433W        W35847   7.774  17.483   4.828  0.1065  0.0923  0.0376
22434W        W35848   8.749   5.682   3.042 -0.1365  0.1248 -0.3283
22435W        W35849   7.257  17.224  15.068 -0.3318 -0.0002  0.0927
22436W        W35850   0.624  17.810   5.101 -0.0676 -0.0506 -0.1079
22437W        W35851   9.993   4.555   4.885  0.0783 -0.2766  0.0550
22438W        W35852   4.958  17.404  13.637  0.1268  0.0897  0.1675
22439W        W35853  14.639  12.410  10.931 -0.0376 -0.1884 -0.0381
22440W        W35854   2.180  13.185   1.651  0.1787  0.0830 -0.2879
22441W        W35855   3.472  15.394   0.945 -0.0164 -0.0395  0.0735
22442W        W35856   3.613   2.608   4.177  0.1819  0.0540 -0.2851
22443W        W35857   2.544   4.116   1.662  0.0966  0.0773 -0.0431
22444W        W35858  13.012   3.641  14.817  0.2448 -0.1666  0.0143
22445W        W35859  10.741  12.614  14.829 -0.0669  0.2635 -0.0032
22446W        W35860   7.094   2.223   3.188  0.1239 -0.5722  0.0599
22447W        W35861  18.189  13.181   2.350 -0.0438 -0.2508 -0.1152
22448W        W35862  16.812   3.189   1.823  0.0479  0.0817 -0.1947
22449W        W35863   8.044  10.711   4.991  0.2430 -0.1240  0.0344
22450W        W35864  10.976  13.919  14.798  0.0573 -0.0542  0.1109
22451W        W35865   4.582   9.400  13.153  0.1070  0.1528 -0.0933
22452W        W35866   3.249  10.621   3.214  0.0565 -0.3077  0.0600
22453W        W35867   1.122  15.476   5.803 -0.1258 -0.1455 -0.1782
22454W        W35868  13.991  16.387  13.965  0.0432 -0.2289  0.2417
22455W        W35869   4.387  11.885   4.600 -0.1115 -0.0953 -0.1463
22456W        W35870   4.765  10.787  15.646 -0.3622 -0.0446 -0.0972
22457W        W35871   4.432   4.255   6.398 -0.0788  0.1461  0.2947
22458W        W35872   4.215   2.118   5.465  0.2393 -0.2101  0.0049
22459W        W35873  11.324  17.598   2.944  0.1289  0.1043  0.1171
22460W        W35874   5.826   4.373  16.318 -0.2021 -0.0034  0.1053
22461W        W35875  16.263   7.126  11.120 -0.1306  0.3120  0.1741
22462W        W35876   1.487  12.207   5.020 -0.2056 -0.0071  0.0744
22463W        W35877  11.060   9.470  16.161  0.1052  0.0434 -0.0835
22464W        W35878  10.253   7.850  10.434 -0.2009 -0.0595 -0.1565
22465W        W35879   1.549  14.610  12.606 -0.1442  0.0134 -0.0199
22466W        W35880  14.523  10.208   2.013  0.3179  0.0119 -0.1300
22467W        W35881  13.787   8.155  12.273 -0.0249  0.1173  0.0534
22468W        W35882  12.835  15.450   2.320 -0.1347  0.1288 -0.0204
22469W        W35883   5.009   7.046  11.593  0.2633 -0.0196  0.1558
22470W        W35884   5.368   4.968  10.278  0.0249 -0.3183  0.2899
22471W        W35885   0.914  12.175  14.407  0.3500  0.0326 -0.1046
22472W        W35886  13.954   6.228   4.713 -0.1445 -0.1308  0.0419
22473W        W35887   7.902   7.444  13.073  0.1074  0.2566  0.2070
22474W        W35888   5.189   1.288   4.150  0.0960 -0.0335 -0.1111
22475W        W35889  17.029   1.184  16.296 -0.0692 -0.1310  0.0891
22476W        W35890   0.927  13.087   5.684 -0.1964 -0.0407 -0.1501
22477W        W35891  12.609   9.465  12.978  0.0228  0.2274 -0.2600
22478W        W35892   2.103   8.321   2.197 -0.1154  0.1370 -0.0993
22479W        W35893  15.019  10.806   5.080 -0.0208  0.2711  0.0882
22480W        W35894   1.325  15.192  13.117 -0.1734  0.1565  0.1820
22481W        W35895  13.625  14.636   1.325 -0.0466 -0.2962  0.1153
22482W        W35896   6.699   4.072   2.918 -0.0918  0.2190 -0.0654
22483W        W35897   5.640   9.440  12.133  0.1333  0.1788 -0.2105
22484W        W35898  12.133   9.894   0.779  0.1792 -0.2139  0.2977
22485W        W35899   1.961   2.630  10.612 -0.1557  0.1657 -0.1074
22486W        W35900   6.273   9.390   9.923  0.0542  0.0439 -0.3582
22487W        W35901   8.559   9.752  11.076 -0.0601 -0.0478 -0.2267
22488W        W35902   4.878  11.478   3.250  0.0623 -0.3130 -0.1433
22489W        W35903   2.472  18.046   3.488  0.1350 -0.0680 -0.0742
22490W        W35904  16.952  15.204  13.315 -0.0946 -0.0472 -0.0231
22491W        W35905   7.781   2.740   2.884 -0.1064  0.5355 -0.1815
22492W        W35906  11.045  15.217  14.902 -0.0227  0.2032  0.1936
22493W        W35907  10.356   9.215  12.676  0.3371 -0.3862 -0.1037
22494W        W35908  13.474   5.938  12.859 -0.0040 -0.2487  0.1749
22495W        W35909   6.779   5.835  15.830 -0.1107 -0.3416 -0.0570
22496W        W35910  11.879  15.481   3.272 -0.0985 -0.1376  0.0146
22497W        W35911  16.010   3.598  14.602 -0.1306 -0.2225  0.1180
22498W        W35912  14.692   1.510  10.844  0.2158  0.3940  0.4430
22499W        W35913   9.025  17.990  11.321  0.0695 -0.1048 -0.3186
22500W        W35914  13.790   0.687  13.335 -0.2856 -0.1031 -0.2862
22501W        W35915   1.254   2.293  15.963 -0.2243 -0.3384  0.1345
22502W        W35916  14.868  17.598   4.930  0.1217 -0.2604  0.0290
22503W        W35917   0.974  17.590   5.987  0.1438 -0.2833  0.1356
22504W        W35918  13.924  15.699  13.000  0.1391 -0.0713 -0.0861
22505W        W35919  11.012  17.622  14.436  0.1025 -0.0719  0.0481
22506W        W35920  12.445   4.804  14.402 -0.0117  0.2850 -0.0463
22507W        W35921  10.512  10.117   2.200  0.2018  0.1453 -0.0593
22508W        W35922  15.081  13.715  14.491  0.0327 -0.2651  0.0459
22509W        W35923   6.671   2.605  15.141 -0.2546  0.1409  0.1095
22510W        W35924  11.716  16.939  14.527 -0.1267 -0.0218  0.1524
22511W        W35925   9.661   3.645  16.187  0.1979 -0.0309  0.0325
22512W        W35926   2.922   6.070   3.293 -0.0502 -0.0571  0.0910
22513W        W35927  12.983   1.907   3.492 -0.5455  0.1868  0.0050
22514W        W35928  11.004  12.118  16.138  0.0195 -0.2918 -0.0159
22515W        W35929   1.904   4.803  13.459  0.0066  0.0898  0.0023
22516W        W35930  11.720   4.631  13.241  0.0081 -0.1889 -0.5173
22517W        W35931   8.433   0.754   3.927 -0.0790  0.1701 -0.0135
22518W        W35932   9.869  14.284  12.995 -0.0473 -0.1177  0.0773
22519W        W35933   3.796  17.003  11.525 -0.0785  0.2610  0.2042
22520W        W35934   4.522  11.553   6.181 -0.2269  0.1391 -0.1875
22521W        W35935   4.157   0.045   1.433 -0.1254  0.0123  0.0986
22522W        W35936  11.493   3.555   4.157 -0.0093 -0.1053  0.1283
22523W        W35937  12.858  16.527  13.808 -0.0618  0.3647  0.2388
22524W        W35938   2.359   9.032  13.927 -0.0616  0.0791  0.0198
22525W        W35939   3.415   3.496  15.258 -0.6085 -0.0582 -0.0644
22526W        W35940   0.158   6.256   0.798 -0.0489  0.0198 -0.3027
22527W        W35941   7.898  11.076  12.062 -0.0175 -0.0674  0.1289
22528W        W35942   5.414   8.920   3.432 -0.1152 -0.0509 -0.2437
22529W        W35943  16.839   5.051  12.142  0.2209  0.1714 -0.0389
22530W        W35944   7.414   2.042   0.045 -0.1246 -0.1108 -0.2106
22531W        W35945  10.660   5.052  13.458 -0.1247  0.0229 -0.1479
22532W        W35946   8.664   0.112   2.612 -0.0584 -0.0020  0.1545
22533W        W35947  15.785   7.025  15.112  0.0477 -0.1710 -0.1976
22534W        W35948   1.188  11.764  10.535  0.1102  0.1930  0.0969
22535W        W35949   4.449   5.835  14.222 -0.1366  0.0921  0.2966
22536W        W35950   8.714  16.937   4.912 -0.1713  0.0592 -0.1910
22537W        W35951  15.435  15.790  12.369 -0.0593  0.1383  0.2780
22538W        W35952  13.516  13.360   4.330  0.4838 -0.0680  0.0689
22539W        W35953  13.058   8.642  15.901 -0.1274  0.1015  0.1786
22540W        W35954  10.495   4.915   4.662 -0.0358  0.4322  0.0436
22541W        W35955   7.315   1.557  16.443 -0.1873  0.0420 -0.3118
22542W        W35956   7.060   1.488   4.576  0.0017 -0.1616  0.0735
22543W        W35957  16.354   6.269   0.068  0.1724 -0.3433  0.0044
22544W        W35958  13.491  17.361   3.543  0.0537  0.0734  0.1396
22545W        W35959  14.042   0.643   4.926  0.3232 -0.2207  0.0724
22546W        W35960  15.956   3.092   6.060 -0.0994  0.2089 -0.1368
22547W        W35961   0.616   9.092  14.470  0.2207 -0.3339 -0.0712
22548W        W35962   5.290   7.810  11.632  0.0693 -0.0060 -0.2018
22549W        W35963   8.229   1.993   2.690  0.1045 -0.0988 -0.0448
22550W        W35964  10.666  16.637  14.019  0.1814 -0.2374  0.0489
22551W        W35965   7.124  10.280  15.416 -0.0861  0.1106  0.1401
22552W        W35966   6.064  14.238   5.838 -0.2156 -0.3195 -0.1542
22553W        W35967   8.864  15.923   5.833  0.2251 -0.0012 -0.2557
22554W        W35968  15.981  15.485   0.150 -0.3208 -0.1617  0.3464
22555W        W35969   2.509   8.987   2.513 -0.2236 -0.2997  0.1716
22556W        W35970   9.275   5.076   0.161 -0.3816 -0.3613  0.0563
22557W        W35971   8.118   4.770   4.123  0.1031  0.1239  0.1687
22558W        W35972   7.441   8.721   4.281 -0.0197 -0.0630  0.1617
22559W        W35973   0.869   4.038  11.884  0.0921 -0.0838 -0.2041
22560W        W35974   9.425   5.861   0.885  0.1439 -0.0584  0.1590
22561W        W35975   3.657  14.265  15.805 -0.0304 -0.0307 -0.1086
22562W        W35976  14.794  14.738  16.155 -0.0454  0.2283  0.1409
22563W        W35977   5.047  10.594   5.277 -0.2733  0.0828 -0.0393
22564W        W35978   3.532  12.050   3.514  0.2328  0.0703 -0.2898
22565W        W35979  13.848   5.186   2.061 -0.0964 -0.0746 -0.1001
22566W        W35980  17.696   8.132  10.420  0.1868 -0.0329  0.0019
22567W        W35981   3.399   6.634   9.509 -0.1475  0.0104 -0.1973
22568W        W35982  14.882   3.962  13.857 -0.1305  0.3590  0.2574
22569W        W35983  12.644  12.093   2.462  0.3074 -0.1105 -0.3260
22570W        W35984  10.992  15.718  12.417 -0.1509  0.1700 -0.0781
22571W        W35985   4.475  14.698   3.352  0.3345  0.0856 -0.0398
22572W        W35986  17.859   5.001   3.232 -0.2761  0.1283  0.0970
22573W        W35987  13.183   8.927  11.877 -0.0955  0.4124 -0.5358
22574W        W35988   8.205  17.816   4.846  0.0331  0.0575  0.1458
22575W        W35989   6.790  15.824   3.289  0.1280 -0.3097 -0.1012
22576W        W35990   3.646  15.083   1.523 -0.2990  0.0438 -0.2748
22577W        W35991   4.738   1.862   1.300  0.0452  0.0396 -0.2463
22578W        W35992   9.555   7.591   0.815 -0.3212 -0.1215 -0.0047
22579W        W35993   4.892   3.294   3.156 -0.0016  0.0868 -0.3601
22580W        W35994   6.336  13.811   2.139 -0.1639 -0.1230  0.1090
22581W        W35995  15.333  10.306   0.379  0.1280 -0.0663  0.2426
22582W        W35996  17.329   9.096   0.538 -0.0121 -0.2255  0.2237
22583W        W35997  16.383  15.677   0.792 -0.1700 -0.2886  0.0341
22584W        W35998  17.478   6.609  14.723  0.0068 -0.1463 -0.0003
22585W        W35999   0.606  10.843  12.806 -0.1682  0.2035 -0.1789
22586W        W36000   2.410  16.298   2.075  0.2856 -0.2763 -0.1727
22587W        W36001   6.339   7.857   4.350  0.2049 -0.2380 -0.0396
22588W        W36002   0.734  16.351  13.608  0.1551  0.2171 -0.2342
22589W        W36003  18.255   8.761   0.079 -0.0874 -0.1155 -0.0063
22590W        W36004   1.571   4.887  15.303  0.1547  0.1215 -0.0094
22591W        W36005  16.161  12.880  16.298 -0.0746 -0.0424  0.3331
22592W        W36006  18.209  17.207   1.904 -0.1393  0.1333  0.1377
22593W        W36007   3.339   5.567   2.605 -0.1247  0.1561  0.3783
22594W        W36008   8.369   4.637  11.421  0.1315 -0.1445  0.3652
22595W        W36009   8.387  13.024   4.658  0.1216  0.0350  0.2511
22596W        W36010   2.529   8.491   1.817  0.3748 -0.2867 -0.0573
22597W        W36011   6.676   3.174  13.472  0.2950 -0.0467 -0.3048
22598W        W36012   9.370   8.709  10.489  0.1613  0.1295  0.0110
22599W        W36013   3.143  13.157   0.460 -0.0360  0.2086  0.0253
22600W        W36014   3.739  17.490  14.949  0.0182 -0.1873  0.3157
22601W        W36015   0.912  12.889  14.016 -0.2133  0.0993  0.0993
22602W        W36016  13.170   6.679  15.858  0.2015 -0.1259 -0.0719
22603W        W36017  17.792  17.190   4.867  0.2898 -0.0849 -0.1040
22604W        W36018   9.727  11.739   2.189 -0.0554  0.1150 -0.2298
22605W        W36019   3.553   6.786   5.256  0.1711  0.1471  0.2508
22606W        W36020  14.036   3.670  11.292 -0.0449 -0.2289 -0.0851
22607W        W36021   9.672   8.930  13.856  0.0479 -0.0674  0.0431
22608W        W36022  13.143   4.406  15.588  0.3955 -0.0454 -0.2548
22609W        W36023   9.185   4.276   1.321 -0.0105 -0.0667  0.1033
22610W        W36024   2.704   2.718   4.802  0.1604  0.2677 -0.2742
22611W        W36025  14.544  15.672  13.612 -0.0270 -0.2105  0.1199
22612W        W36026  17.527   5.896  15.479  0.2301 -0.2408  0.1196
22613W        W36027   6.872   3.843   5.086 -0.1241 -0.1273  0.1601
22614W        W36028  12.015   0.612   6.046  0.1328 -0.3167  0.0764
22615W        W36029   4.230  10.489   2.522 -0.0086  0.1543  0.1656
22616W        W36030  15.545   6.357  16.199 -0.2178 -0.0047 -0.1210
22617W        W36031  17.493   7.910   1.330 -0.1003 -0.0680  0.0190
22618W        W36032  13.823  16.143  14.772  0.0117 -0.2908 -0.0711
22619W        W36033   5.382  13.203  12.493 -0.0281 -0.0142  0.1971
22620W        W36034  12.963   2.976   1.370  0.2556  0.0961  0.2733
22621W        W36035   2.420  12.371  13.043  0.1581 -0.3033  0.1493
22622W        W36036  13.048  12.653  14.028 -0.3062 -0.0192  0.1027
22623W        W36037  17.510   9.237  14.135  0.1347 -0.3517 -0.0015
22624W        W36038   6.841   1.439   6.197  0.2351  0.0153 -0.0302
22625W        W36039   6.891   1.740  14.067 -0.1555  0.1302 -0.1819
22626W        W36040   5.175   5.166   0.725 -0.1575  0.0508  0.0688
22627W        W36041   5.802  17.760  14.157 -0.0962 -0.1076 -0.0806
22628W        W36042  15.973   7.886  10.941  0.0667 -0.1410  0.0083
22629W        W36043   9.090   8.906  15.995 -0.0713  0.3639 -0.1248
22630W        W36044   1.734  10.033   1.579  0.0939 -0.0699  0.5175
22631W        W36045   8.442  12.931   5.522  0.1749  0.2680 -0.1381
22632W        W36046  17.627   8.600  11.583 -0.0982  0.1204 -0.1254
22633W        W36047   0.622   8.585  16.078 -0.0427 -0.1252 -0.0272
22634W        W36048   7.178   6.382   3.014 -0.1457  0.0706  0.2509
22635W        W36049   0.955   1.090   3.673 -0.1219  0.2708  0.2262
22636W        W36050  14.529  15.360  12.196 -0.1484 -0.1027  0.1389
22637W        W36051  12.407  13.046   0.387 -0.0735 -0.1537 -0.2314
22638W        W36052   1.269   5.263  11.041  0.1361 -0.0779 -0.0669
22639W        W36053   8.133  12.834  16.334 -0.2865  0.0801  0.0829
22640W        W36054   3.938   2.774   2.754 -0.1825 -0.1682  0.2039
22641W        W36055  14.635   2.567   9.866 -0.1505 -0.0366 -0.0093
22642W        W36056  13.534  16.725  15.588 -0.1145  0.3378  0.0912
22643W        W36057   3.989   2.468   5.091  0.0540 -0.0744  0.4094
22644W        W36058   2.080   9.258   3.360  0.0024  0.0574  0.2056
22645W        W36059  14.725   7.432  10.183  0.1132 -0.1589  0.0516
22646W        W36060   8.817  16.803   0.102 -0.0312 -0.0267 -0.1008
22647W        W36061   0.338   1.811   2.773  0.2614 -0.0372  0.1007
22648W        W36062   9.335   8.720   4.698 -0.3026 -0.1854  0.1302
22649W        W36063   5.993   0.025  12.140 -0.0778 -0.0981  0.4569
22650W        W36064   8.478  16.015   0.907 -0.0507 -0.3780 -0.0963
22651W        W36065   7.321   4.521  10.389 -0.4449  0.0605  0.1218
22652W        W36066   5.563  10.436  11.914  0.0060  0.3777 -0.1856
22653W        W36067  11.364  10.051   6.051  0.0164 -0.1168  0.0356
22654W        W36068  13.759  11.915   5.460  0.1079  0.0601 -0.1477
22655W        W36069   6.919   1.349   3.600 -0.1826  0.1407 -0.0496
22656W        W36070   6.837  10.394   3.781 -0.1809 -0.1585  0.0598
22657W        W36071   0.456   3.205  12.367  0.0467  0.1458 -0.0402
22658W        W36072   6.716   6.681   0.828  0.0536 -0.2674 -0.0918
22659W        W36073   5.315  15.513  14.012 -0.0245  0.1447  0.0741
22660W        W36074   1.200  16.240  14.759  0.0251  0.0129 -0.0011
22661W        W36075   4.898   4.439  14.387 -0.2083  0.0243  0.1589
22662W        W36076  17.856   3.727  13.719  0.2020 -0.0100  0.2243
22663W        W36077   9.553   7.537   2.746 -0.0993 -0.0919  0.0382
22664W        W36078   4.820  10.497  14.112  0.2218  0.0483  0.2222
22665W        W36079   1.570  11.048  16.394 -0.5216 -0.0045  0.1575
22666W        W36080  14.519   7.281   0.121 -0.0201  0.3306  0.1848
22667W        W36081  16.836   6.974   2.989  0.5711  0.0093 -0.0392
22668W        W36082  11.758  14.016  15.174  0.3806 -0.1209  0.1084
22669W        W36083  13.717   3.446  11.981 -0.1735  0.0036  0.0423
22670W        W36084  17.323   4.603   4.252 -0.2563 -0.1763 -0.5324
22671W        W36085   4.830  12.978   1.662 -0.1966  0.0987 -0.2064
22672W        W36086  12.088   7.261   5.030 -0.0625  0.0388  0.0223
22673W        W36087  10.983  17.459   4.717 -0.0212 -0.1218  0.2463
22674W        W36088   4.337   4.671   4.721 -0.1580 -0.1268 -0.4111
22675W        W36089  15.455  14.063  16.260 -0.0701 -0.1624  0.2755
22676W        W36090   3.052  18.246   4.254  0.1667  0.1827 -0.0622
22677W        W36091  11.812   0.650   3.917  0.0096  0.0013 -0.1067
22678W        W36092   0.554  16.512   1.948  0.0339  0.2162  0.2530
22679W        W36093   6.777   9.952  12.511 -0.3137  0.0263  0.0680
22680W        W36094   8.405  14.993   2.618 -0.1825 -0.0996 -0.1825
22681W        W36095  13.348   5.606  10.052  0.3088 -0.0720 -0.0857
22682W        W36096  13.081   6.701  10.865 -0.2282  0.0642  0.0571
22683W        W36097  10.261  11.508  14.863  0.1733 -0.1945  0.1062
22684W        W36098  11.648   6.087  16.463  0.0673  0.1295 -0.0107
22685W        W36099  13.329   3.514  14.085  0.4424  0.2410 -0.0180
22686W        W36100  10.443   2.882   4.415 -0.0477 -0.1601  0.1453
22687W        W36101   5.601   7.331  15.277 -0.1911  0.2722  0.1101
22688W        W36102   9.472   6.336   3.033  0.0494  0.3084  0.0237
22689W        W36103  15.513   9.359   4.648  0.1194 -0.3156  0.4598
22690W        W36104   9.699   0.250  12.489 -0.0004  0.0567 -0.0823
22691W        W36105   2.781   9.766   6.007 -0.2324 -0.1958 -0.1753
22692W        W36106   5.925   7.727  14.477 -0.0628 -0.1400  0.0063
22693W        W36107   1.652  14.503  16.131  0.0091  0.2291  0.2805
22694W        W36108   7.943  16.080   5.589  0.1506  0.1070 -0.0485
22695W        W36109  14.981   4.252  15.544 -0.2803  0.0469  0.0299
22696W        W36110   5.000  12.052  13.736  0.1070  0.1732  0.0642
22697W        W36111  10.186   2.446  13.479  0.1474  0.1471  0.0837
22698W        W36112  10.663   5.161  11.625  0.1942  0.0650  0.2458
22699W        W36113   6.158  11.518   0.684 -0.3541 -0.0258  0.0116
22700W        W36114   6.915   9.890   0.916 -0.1082 -0.1657 -0.0326
22701W        W36115   6.541  10.342   2.359 -0.0778 -0.1351 -0.1524
22702W        W36116  17.375   9.303   3.872  0.2968 -0.0603 -0.0832
22703W        W36117  10.884   2.050  15.531  0.0563 -0.1161 -0.1229
22704W        W36118  15.158   9.770  12.195 -0.0132 -0.1334  0.0076
22705W        W36119   6.128   7.150  11.860  0.1400  0.3974 -0.0119
22706W        W36120   3.301   5.553   0.035 -0.1368  0.1393  0.0129
22707W        W36121  14.904   9.093  14.308  0.3135 -0.0093 -0.1204
22708W        W36122  17.180  12.100  15.118  0.0200  0.0527  0.1885
22709W        W36123   4.540  13.381  14.877  0.1846 -0.1089 -0.2202
22710W        W36124   0.839  13.002   1.080  0.3871 -0.2688  0.2734
22711W        W36125  18.081  14.729  12.768  0.1341  0.1590  0.2429
22712W        W36126   0.706  17.098   0.447  0.0197  0.1219  0.0809
22713W        W36127  10.499  17.838  15.387  0.2793 -0.0654  0.0607
22714W        W36128   5.525   5.991   2.629 -0.1837 -0.2411  0.0908
22715W        W36129  16.234  11.882  13.244  0.2398 -0.4390 -0.0790
22716W        W36130  10.572   6.197   2.074  0.0491 -0.1644 -0.3907
22717W        W36131   1.034  13.136  13.375 -0.0909 -0.2724  0.0219
22718W        W36132   6.319  11.318  15.310  0.3048 -0.0796 -0.1665
22719W        W36133  18.260   3.509  10.450  0.3031  0.2743 -0.1881
22720W        W36134   4.625   5.445  14.471  0.1777  0.0432 -0.3136
22721W        W36135   9.837   2.623   2.035 -0.4936 -0.0832 -0.0354
22722W        W36136  10.451  11.292  10.774  0.0638  0.1941  0.1585
22723W        W36137   7.808   0.141  11.103  0.4337  0.1396  0.0699
22724W        W36138   1.462  17.002  11.314 -0.0493  0.1896  0.0187
22725W        W36139   0.257  16.621   5.330 -0.1777  0.4565 -0.1080
22726W        W36140   2.095  14.563   0.490  0.0575 -0.0532  0.1817
22727W        W36141   6.154   8.218   3.186  0.0571 -0.1792 -0.1899
22728W        W36142   3.503  10.231   5.750  0.1832 -0.1236 -0.0531
22729W        W36143   4.383   9.691  12.609 -0.0172 -0.1203  0.4210
22730W        W36144   0.293   7.934   1.421  0.1728 -0.1116 -0.2439
22731W        W36145  18.157  13.361   5.955 -0.0574 -0.0905 -0.0400
22732W        W36146   0.779  13.878   1.447  0.0495 -0.2613 -0.2121
22733W        W36147  16.931   2.627  14.767  0.0013 -0.1296  0.0453
22734W        W36148   6.013   0.501   6.048 -0.0562 -0.0836  0.1837
22735W        W36149  15.673   1.985  11.851  0.2495  0.1413  0.1861
22736W        W36150   6.305   3.348  14.283 -0.3840  0.0881 -0.1052
22737W        W36151   3.998  11.479  14.162  0.0793  0.0452 -0.1148
22738W        W36152  16.594  12.371  14.164 -0.4361 -0.1864 -0.1795
22739W        W36153   5.554  17.152   0.586 -0.2244 -0.0234  0.1633
22740W        W36154   7.270   6.754  15.030  0.0625  0.0115  0.0974
22741W        W36155   1.323   0.758  12.010 -0.2977 -0.0766  0.3763
22742W        W36156  10.197  14.903   4.798  0.0717  0.0840  0.0759
22743W        W36157  14.539  12.542  15.086 -0.0773  0.1468 -0.2554
22744W        W36158   7.642   7.932   3.694  0.0491  0.2341 -0.3003
22745W        W36159  17.560   5.773  14.047 -0.1428 -0.1277  0.0060
22746W        W36160  16.610  14.221  14.908  0.2329  0.0717 -0.0095
22747W        W36161   4.493  17.683  10.125 -0.1562  0.0868  0.1866
22748W        W36162   6.652   0.420  11.653  0.1212  0.3060 -0.1801
22749W        W36163   2.168  11.898  10.897  0.2802 -0.2854 -0.2407
22750W        W36164   9.667   9.269  10.313  0.1352  0.2372  0.2709
22751W        W36165  12.099   2.161  11.338 -0.1418 -0.1119 -0.3703
22752W        W36166   1.345   3.027   3.635  0.0169 -0.3881 -0.2100
22753W        W36167   2.464   9.910   1.912 -0.2005  0.0092  0.1440
22754W        W36168  14.200  17.762  16.236  0.3374  0.0036  0.1166
22755W        W36169  13.625   7.309  11.395 -0.1366 -0.2226 -0.0507
22756W        W36170   5.886   4.266  13.516  0.1590 -0.4086 -0.1331
22757W        W36171  11.039   6.121  13.178  0.1647 -0.3967  0.1252
22758W        W36172   5.289   0.039   2.369 -0.0342  0.0685 -0.2533
22759W        W36173   9.539   8.795   2.805  0.0200  0.0683 -0.0768
22760W        W36174   2.418  13.072  14.509 -0.2881  0.4139 -0.0369
22761W        W36175   5.206   6.691   1.951 -0.1193 -0.0447 -0.0197
22762W        W36176   3.986  16.721  16.545  0.1110 -0.2328  0.0206
22763W        W36177  13.309   8.183  12.438  0.0976  0.0504  0.0196
22764W        W36178   0.077   7.040  15.730 -0.1109 -0.3711 -0.3848
22765W        W36179  13.466  15.853  14.492 -0.1480  0.0042  0.3174
22766W        W36180   2.657  14.853  11.541 -0.1869 -0.1694 -0.3038
22767W        W36181  15.321   0.869  10.757 -0.0770 -0.0145 -0.0150
22768W        W36182   2.983   8.459  15.433  0.2110  0.2220  0.1452
22769W        W36183  14.556  16.969   5.965 -0.1733  0.1689  0.2398
22770W        W36184  14.844  13.384   3.871 -0.0908 -0.2386 -0.2432
22771W        W36185  15.972   3.594  16.379 -0.2197 -0.2502  0.2892
22772W        W36186   2.026   1.432  14.926 -0.0267 -0.1432  0.1641
22773W        W36187   0.627  11.631  11.296  0.1886  0.3711  0.0077
22774W        W36188   5.361   4.180  10.141  0.0666  0.1947  0.0875
22775W        W36189  11.137  14.776  14.586  0.0374  0.0734  0.3194
22776W        W36190   1.769  13.108  13.972 -0.2213 -0.0135 -0.2566
22777W        W36191  15.159   4.476  10.874  0.3997  0.3127 -0.2829
22778W        W36192   5.149  11.296   4.335  0.0784  0.2819  0.1011
22779W        W36193  14.806  11.750  10.333  0.0267  0.0244 -0.0588
22780W        W36194   7.735  12.448  13.672  0.1008  0.2057  0.3563
22781W        W36195   8.471   9.181  14.770  0.1063  0.4699  0.1016
22782W        W36196   5.695  15.821  16.430  0.1255 -0.3048 -0.1136
22783W        W36197   0.556   8.764  12.046 -0.3305 -0.1611 -0.0524
22784W        W36198   1.952   0.297   1.634 -0.2682  0.1576  0.0484
22785W        W36199   0.823   8.571   4.626  0.0792 -0.0608 -0.0301
22786W        W36200   8.080   6.615   5.023 -0.0635  0.2249 -0.0225
22787W        W36201   3.309  12.955   0.035  0.0301 -0.0688 -0.1288
22788W        W36202  12.458   6.626  10.075 -0.0279  0.1591  0.1924
22789W        W36203   0.704  16.464   3.430 -0.5121 -0.4060  0.0322
22790W        W36204   3.558   4.041   2.383  0.1198 -0.1188  0.0142
22791W        W36205   3.027   5.619  13.609  0.0275 -0.0855  0.0864
22792W        W36206   9.732  10.935   5.321 -0.1824 -0.0054  0.0634
22793W        W36207   2.447  10.546  15.993  0.0780  0.1000  0.2201
22794W        W36208   4.535   9.080   1.212  0.1660 -0.1865  0.5705
22795W        W36209  15.703   6.296   0.816 -0.0402 -0.2602  0.1484
22796W        W36210   4.991   0.993   1.585  0.1336 -0.1046 -0.0995
22797W        W36211  11.901   0.845  12.316  0.3559 -0.0793 -0.0825
22798W        W36212   2.320  16.630   0.564 -0.1947  0.0570  0.2329
22799W        W36213   2.038  10.240  15.969 -0.1487 -0.2656  0.1477
22800W        W36214   8.370  14.909   4.773 -0.0617  0.0829 -0.0283
22801W        W36215  13.167   8.953  13.019 -0.1796 -0.0400 -0.1640
22802W        W36216  12.525  17.294  12.161  0.1684 -0.0905 -0.0796
22803W        W36217  10.593  16.294  15.084  0.1580 -0.2274  0.1249
22804W        W36218   9.601   4.609   5.882 -0.2430  0.2015 -0.0201
22805W        W36219  17.004   2.594  13.016 -0.0729  0.0201  0.1237
22806W        W36220  18.023   0.709   2.336  0.1096  0.0883  0.2437
22807W        W36221   2.317  12.398   3.653  0.3334  0.1202 -0.0060
22808W        W36222  13.974   4.816  13.791 -0.3292  0.2654 -0.2624
22809W        W36223   8.263   9.907  16.173  0.3601 -0.3184  0.1303
22810W        W36224  11.045   2.756  10.587 -0.3818 -0.0550  0.1485
22811W        W36225   9.685  16.023  15.103  0.3420 -0.1250  0.2813
22812W        W36226   0.273  13.879   0.128 -0.0801  0.0204  0.2366
22813W        W36227  16.352  13.123   1.266  0.1766  0.2574  0.1072
22814W        W36228  11.816  11.689  11.641 -0.3425 -0.4520  0.1804
22815W        W36229  15.543  15.730  14.360 -0.0137  0.2164 -0.0273
22816W        W36230  16.014   3.386  13.755 -0.0007 -0.1698 -0.0877
22817W        W36231  10.742   9.213  12.422  0.1610 -0.2359  0.5109
22818W        W36232  12.054  17.138   5.454 -0.3449  0.0395 -0.3262
22819W        W36233   0.515  17.469   3.745  0.2915  0.0383  0.0657
22820W        W36234   1.753  16.224  11.161 -0.3145  0.3393  0.4474
22821W        W36235   1.800  13.320   5.309  0.1316 -0.0634  0.4193
22822W        W36236  11.270  13.270  11.265  0.1733 -0.1376 -0.1932
22823W        W36237  15.099   0.315   0.659 -0.1517  0.1742  0.1507
22824W        W36238  17.431  14.141   4.427 -0.0935 -0.0613 -0.1011
22825W        W36239  12.197  18.271  11.189  0.2462 -0.0589  0.0598
22826W        W36240  16.291  17.289  15.830 -0.0094  0.0904 -0.1993
22827W        W36241   5.159  17.887  14.355 -0.8024 -0.0420 -0.0590
22828W        W36242   3.830   7.045  11.551 -0.0319  0.0558 -0.0222
22829W        W36243  17.951   8.000  12.369  0.1784 -0.2212  0.0708
22830W        W36244  14.986   3.177  10.641  0.0377 -0.2747  0.1906
22831W        W36245   8.792  12.092   4.976  0.0664  0.0418  0.2879
22832W        W36246  14.730   0.027   0.724  0.0448 -0.1481  0.2047
22833W        W36247   2.643  15.699   0.744  0.1556  0.2127  0.0362
22834W        W36248   3.696  12.598   4.400  0.1412  0.1792 -0.0006
22835W        W36249  14.850  10.265   1.499 -0.3016 -0.1086  0.4518
22836W        W36250  11.906  16.900   2.992  0.1010  0.3968  0.0814
22837W        W36251  12.685   7.117  15.130  0.4239  0.2716 -0.0164
22838W        W36252   3.678  10.472   2.987 -0.1097  0.0834 -0.2951
22839W        W36253   4.500  11.145   3.163 -0.2429 -0.0208 -0.3450
22840W        W36254  10.403  14.295   1.987  0.2206 -0.3383  0.0904
22841W        W36255   9.162  13.081  15.016  0.2066  0.1164 -0.2432
22842W        W36256   5.032   6.631  15.603 -0.2209 -0.2296  0.0742
22843W        W36257   0.636   4.700   5.720 -0.0134 -0.1305  0.3898
22844W        W36258   0.504   0.530   1.694 -0.2745 -0.2614  0.0075
22845W        W36259  14.532   6.344   3.669  0.2389 -0.0210  0.0761
22846W        W36260   8.288   7.902  10.971 -0.2674 -0.2294  0.2338
22847W        W36261   1.906   8.229  10.785 -0.0393  0.0986  0.0882
22848W        W36262   7.659   9.491   1.507  0.0930  0.1226  0.0558
22849W        W36263   6.589  13.015  13.927 -0.1300 -0.2487 -0.2951
22850W        W36264   8.855   3.168  12.419 -0.1204  0.1449 -0.1446
22851W        W36265  14.760  16.274   3.836  0.2041 -0.0103 -0.3247
22852W        W36266  15.002   1.048   4.518 -0.1679  0.0422  0.3834
22853W        W36267   3.324  16.075   1.831 -0.2015  0.2169  0.0513
22854W        W36268  17.454   8.138  15.574  0.1533  0.2243 -0.1909
22855W        W36269  16.197  15.544   2.764  0.0071 -0.0341  0.1240
22856W        W36270   0.764   4.923   4.381  0.1681  0.2838  0.3595
22857W        W36271  11.018   3.252   2.140 -0.0350 -0.1356 -0.1745
22858W        W36272  14.796  10.237   0.914 -0.1634 -0.0497 -0.1453
22859W        W36273   9.708   3.102  16.304  0.1503 -0.1417 -0.0809
22860W        W36274  16.932  10.074  11.588 -0.1651  0.1911 -0.2904
22861W        W36275   9.564  14.618  15.607 -0.0857 -0.2548  0.0055
22862W        W36276   3.082   4.182   1.475 -0.3905  0.2793  0.0424
22863W        W36277   4.224   1.768   1.280 -0.3247  0.1419 -0.1758
22864W        W36278  14.923   5.047   4.306  0.2642  0.2076  0.0398
22865W        W36279  17.700   8.517  12.935  0.2260  0.2260 -0.2188
22866W        W36280  17.945  17.274  12.063 -0.3121 -0.2582 -0.0273
22867W        W36281   0.384  17.484   5.415  0.0664 -0.1784 -0.1541
22868W        W36282  10.531   8.128   6.157  0.0569 -0.1968  0.2483
22869W        W36283   5.467  16.589  10.586 -0.0263  0.2753  0.3538
22870W        W36284   0.129  15.751   4.557  0.0850  0.1842  0.0263
22871W        W36285  11.444  12.732   0.300  0.0160 -0.2310  0.0024
22872W        W36286   6.126  12.511   1.578  0.0081  0.0862  0.0390
22873W        W36287  10.301  10.568   2.899 -0.1798 -0.3233 -0.0910
22874W        W36288  14.134   7.260  14.121  0.0295  0.0806 -0.3164
22875W        W36289   0.179  11.331   1.272 -0.0499  0.0326  0.2657
22876W        W36290   7.400  17.838   5.777  0.0064  0.1373 -0.2949
22877W        W36291   4.994   3.987   0.542 -0.1291  0.4058  0.1158
22878W        W36292   9.772   8.473  10.744  0.1197 -0.2196  0.0273
22879W        W36293   0.522   6.710  15.733  0.2084  0.0127 -0.0716
22880W        W36294   1.519  14.176  16.493 -0.0875  0.2392  0.2944
22881W        W36295  11.621  14.677   4.141  0.0290  0.3669 -0.2252
22882W        W36296   6.187  10.803  16.048 -0.2340 -0.1162 -0.0080
22883W        W36297   7.777  15.967  13.233  0.0302 -0.1714  0.0062
22884W        W36298  18.110  15.705   1.013  0.0509 -0.0776 -0.0259
22885W        W36299   7.066  17.412  15.513  0.2359 -0.0756 -0.1462
22886W        W36300  17.535  10.264  10.313  0.2862 -0.1259 -0.1953
22887W        W36301   2.458  13.433  11.913 -0.2579 -0.2326  0.0482
22888W        W36302   7.247   4.172   2.946  0.4327 -0.1371 -0.0390
22889W        W36303   9.084   1.271  12.820  0.2598  0.0886  0.3020
22890W        W36304   7.003   9.882  13.071  0.1520 -0.2567  0.1903
22891W        W36305   3.660   0.393   0.567  0.0852 -0.1619  0.0649
22892W        W36306   7.736   2.979   5.800  0.1770 -0.1039  0.0731
22893W        W36307  12.592   7.372  13.866 -0.2103 -0.4203  0.2145
22894W        W36308  17.813   1.213  11.962  0.0734 -0.0704 -0.0997
22895W        W36309   7.067  15.741  13.878  0.0037  0.1240  0.3022
22896W        W36310   3.100  15.242  16.468  0.1310  0.0446  0.0615
22897W        W36311  11.237  15.304  15.776  0.0369  0.0373  0.3459
22898W        W36312   5.047   6.825  13.857 -0.2534  0.1852  0.3066
22899W        W36313  14.116  12.464   3.829  0.0243  0.0004 -0.0691
22900W        W36314   0.368   8.728  12.513  0.1209  0.0774 -0.2286
22901W        W36315  14.619   5.408   5.151 -0.2233  0.2561  0.1368
22902W        W36316   7.216  14.299   2.614 -0.0775 -0.0395 -0.3543
22903W        W36317   5.769   7.920  11.743 -0.1324 -0.2191 -0.2510
22904W        W36318  10.203   8.227  12.912 -0.0078  0.0708 -0.2282
22905W        W36319   5.052   9.719  10.987  0.1478 -0.0165  0.3695
22906W        W36320  11.626   2.641  16.316  0.1426 -0.2343 -0.1627
22907W        W36321   1.414  10.997  11.789  0.1251  0.3641 -0.0328
22908W        W36322   9.388   8.180   3.934  0.1390 -0.0836 -0.0167
22909W        W36323   4.700  12.248   4.388  0.2021 -0.2914 -0.1053
22910W        W36324  15.661   3.893   2.006 -0.1341  0.0037  0.0624
22911W        W36325   0.106  16.818   1.051 -0.2088  0.1915  0.0034
22912W        W36326   6.064   5.954   3.507 -0.2649 -0.4972  0.0063
22913W        W36327   0.703   2.346  12.776  0.1591  0.0192  0.0455
22914W        W36328   9.781   2.493   4.888 -0.3730  0.1646 -0.1194
22915W        W36329   0.998  10.859   0.576 -0.1380 -0.0794 -0.0236
22916W        W36330  11.232  17.020   5.467  0.1948 -0.3754  0.0783
22917W        W36331   4.103   2.819   5.797 -0.0923  0.1677 -0.0941
22918W        W36332   2.084  14.160   3.965  0.3414 -0.0932  0.1885
22919W        W36333  16.924   3.652  13.961 -0.0047 -0.0095 -0.0938
22920W        W36334   0.736  15.162   3.201 -0.1917 -0.3027 -0.1323
22921W        W36335  10.682  16.182   4.890  0.0095  0.1600  0.0743
22922W        W36336  13.822  13.213  12.741  0.0441 -0.0296  0.0348
22923W        W36337   7.673  16.840  14.208  0.0928 -0.1641  0.2802
22924W        W36338   9.023  11.743  12.544  0.2699  0.1969 -0.0879
22925W        W36339   8.394  17.487  14.306  0.1828  0.0765  0.0788
22926W        W36340  10.970  18.198   6.021 -0.0405 -0.0466  0.3006
22927W        W36341   7.181   4.824  11.560  0.0055  0.1786  0.2020
22928W        W36342   5.205  10.512  13.179 -0.0872  0.0368  0.2801
22929W        W36343  17.958   2.613   1.158  0.0280 -0.0709  0.1632
22930W        W36344   4.078   8.599   1.810  0.1047  0.0285  0.4473
22931W        W36345  10.030   6.388   3.949  0.4746  0.1263  0.1326
22932W        W36346   1.184  15.244   5.290  0.2688 -0.1329 -0.1399
22933W        W36347  10.910  15.043   6.004 -0.0242 -0.0254 -0.0002
22934W        W36348   3.973   2.994  10.031 -0.1925  0.0174  0.0594
22935W        W36349  12.815   0.736   4.866  0.1617  0.1099 -0.0335
22936W        W36350  18.168   7.678  11.501 -0.0441  0.0523 -0.1242
22937W        W36351   3.139  16.703  13.039  0.2348  0.2726  0.1128
22938W        W36352  11.604   9.859   3.543 -0.3358  0.0483  0.1415
22939W        W36353  12.736  15.693   0.614  0.1559 -0.4465  0.2551
22940W        W36354   7.080   1.217  15.533 -0.4788  0.1989  0.0428
22941W        W36355   4.203   0.162  15.759  0.4149  0.0450 -0.2770
22942W        W36356   3.438   2.327   2.975  0.1701  0.2215  0.0231
22943W        W36357   7.469   2.373  13.971  0.1178 -0.0819  0.2371
22944W        W36358  12.183  12.899   0.838  0.2156 -0.0013  0.5122
22945W        W36359  11.350  10.352  15.190 -0.1235  0.0334 -0.2260
22946W        W36360   0.496  14.436  13.752  0.1263  0.3400  0.1864
22947W        W36361  16.621   9.745  15.098 -0.1307  0.1751 -0.2516
22948W        W36362  15.270  14.277   1.305  0.0523 -0.3808  0.3321
22949W        W36363  11.855   3.618   1.179 -0.1673  0.0237  0.1450
22950W        W36364  10.874   8.077   3.760 -0.1636  0.0242  0.0396
22951W        W36365   0.667   0.007  14.450 -0.1005 -0.0495 -0.1541
22952W        W36366   4.407  17.332   1.974 -0.1502  0.0810 -0.0891
22953W        W36367   0.530   4.946  15.158  0.3405  0.2539  0.3370
22954W        W36368   6.638   1.124   2.371  0.2899  0.2920 -0.0186
22955W        W36369   9.115   7.273   2.013  0.0600 -0.2009 -0.0234
22956W        W36370  15.821   6.171  15.391  0.1809  0.0225  0.1709
22957W        W36371   3.607  10.725   1.688 -0.0718  0.0858 -0.2675
22958W        W36372  12.088  17.970   1.989  0.2353 -0.0489 -0.1730
22959W        W36373   9.083   6.831  16.283  0.1539 -0.3614 -0.0346
22960W        W36374  18.261   5.315  13.370 -0.0453  0.1775  0.0169
22961W        W36375   9.873   8.882  14.318 -0.0522  0.0465  0.0462
22962W        W36376  17.801  16.052  14.806  0.0234  0.0129  0.0801
22963W        W36377  16.077   2.479   1.043  0.1270  0.0516  0.2586
22964W        W36378   4.938   5.530   4.689  0.0830 -0.2261  0.0410
22965W        W36379   3.047  11.875   2.753  0.2600  0.0493 -0.1671
22966W        W36380   2.843   5.517   4.055  0.2183 -0.0762  0.0202
22967W        W36381  11.451  16.500  15.214  0.0541 -0.0493  0.0329
22968W        W36382  12.599  16.197  14.151  0.0067  0.0266  0.0753
22969W        W36383   0.037  12.789   2.082 -0.0061 -0.1076  0.0912
22970W        W36384   1.034   9.545  12.585  0.1489  0.0637 -0.1897
22971W        W36385  10.661  18.283   4.591  0.0857 -0.0816 -0.1379
22972W        W36386   2.351  13.678   1.457  0.0303 -0.0803  0.2914
22973W        W36387   0.851   1.019  16.143  0.2067 -0.0422 -0.0332
22974W        W36388   6.746   1.613   6.942  0.1235 -0.1297  0.2145
22975W        W36389   3.987  13.015   5.041 -0.0260  0.1129 -0.1541
22976W        W36390   6.226  14.886   1.378 -0.0511 -0.1138 -0.1894
22977W        W36391   9.041   0.636   5.926  0.1879 -0.0708 -0.2896
22978W        W36392  10.782   5.157   4.260 -0.2110  0.1480 -0.1414
22979W        W36393   7.274  17.456   1.595 -0.2612 -0.3286 -0.0694
22980W        W36394  15.862  13.054   4.635  0.2071  0.1089  0.2335
22981W        W36395   6.050  13.848   0.062  0.0838 -0.0549  0.0420
22982W        W36396  12.551  13.383   1.340  0.0854  0.0998  0.1200
22983W        W36397  17.520   5.931   1.698 -0.0048  0.0914  0.0374
22984W        W36398  15.540   1.827  11.376  0.0451 -0.1797 -0.1033
22985W        W36399   8.501   2.774   4.930 -0.1086 -0.2411  0.0498
22986W        W36400   5.134   2.283   2.081 -0.0535 -0.1480  0.1531
22987W        W36401   0.767  14.359   6.285 -0.0361  0.1434 -0.0104
22988W        W36402   7.615  16.966  16.471  0.1801 -0.1318  0.0154
22989W        W36403  14.018   9.975   1.140  0.0391  0.1028 -0.1736
22990W        W36404  13.956  15.899   4.811  0.2086  0.0476  0.2980
22991W        W36405   9.544  12.403  13.394  0.1093 -0.4198 -0.3503
22992W        W36406  14.923   7.475  12.796  0.1459  0.0382  0.1374
22993W        W36407  17.973   1.997  10.823  0.0009  0.2401 -0.0743
22994W        W36408  14.373   3.606   5.274  0.3497  0.1527 -0.0186
22995W        W36409   7.397  17.858   0.822  0.0875 -0.3110  0.4657
22996W        W36410  12.487  14.524   4.908  0.0501 -0.1978 -0.0893
22997W        W36411  13.841   7.792   3.264 -0.0446 -0.0697 -0.0475
22998W        W36412  16.456   7.917   3.778  0.0363  0.0629  0.1636
22999W        W36413  10.169  13.918  10.767  0.2404 -0.1735  0.0799
23000W        W36414   2.398  10.882   6.266  0.3314  0.0561  0.0928
23001W        W36415  10.549  16.634   1.185 -0.1021  0.0242 -0.1223
23002W        W36416   5.826   0.738  14.512  0.2362  0.1263 -0.1085
23003W        W36417  11.035   2.184   2.299  0.3408 -0.0761  0.2079
23004W        W36418   5.180   5.754   0.049  0.1256 -0.2459 -0.0344
23005W        W36419   2.098  13.901  14.116 -0.2515 -0.1127 -0.2073
23006W        W36420  13.070   2.713  12.983 -0.3461 -0.0347  0.0639
23007W        W36421  15.338   6.770   1.405 -0.1657  0.2784 -0.0519
23008W        W36422  12.625  12.508   5.153  0.1000  0.1939  0.0114
23009W        W36423   3.668  13.829   6.173 -0.1610 -0.0651 -0.1436
23010W        W36424  14.029  12.042   4.988  0.3169  0.0661 -0.1111
23011W        W36425   4.134  14.351   3.305  0.0329 -0.0428  0.0275
23012W        W36426  11.462   7.552  10.247 -0.2998 -0.1040  0.2149
23013W        W36427   5.286   8.825  11.781  0.1842 -0.3391 -0.0791
23014W        W36428   5.896  12.691   9.822  0.0267  0.2739  0.0953
23015W        W36429   3.168   6.993   4.020  0.1732  0.0305  0.1795
23016W        W36430   3.251   1.757   6.023  0.0078 -0.2543  0.4334
23017W        W36431  11.967  14.028   3.064  0.2398 -0.3617 -0.2103
23018W        W36432  17.779   0.942  12.514 -0.0791 -0.2143 -0.1465
23019W        W36433   2.252  14.260  15.327 -0.1698 -0.1592 -0.0145
23020W        W36434   2.240  17.148  15.335 -0.0090  0.0368  0.1862
23021W        W36435  17.861  12.365  16.389  0.3357 -0.0073 -0.0444
23022W        W36436   4.978  16.670  12.599  0.0154 -0.2167  0.3833
23023W        W36437  10.207   6.143   1.493 -0.0671 -0.2901  0.0842
23024W        W36438  14.293  13.694   4.407  0.0947  0.0669 -0.2221
23025W        W36439   7.391   5.126  14.209  0.1696  0.2177  0.0908
23026W        W36440   2.065   7.021   2.445  0.2026 -0.4318  0.0039
23027W        W36441  12.712   1.568   0.964 -0.1973  0.0169 -0.0492
23028W        W36442  17.884  15.513   5.392  0.1445  0.0441  0.0969
23029W        W36443   2.810   5.197  14.602 -0.1509 -0.0433  0.1070
23030W        W36444  15.044  15.731  16.238  0.3347  0.0247  0.3134
23031W        W36445   2.622  10.018  15.288  0.0952 -0.1666 -0.1705
23032W        W36446   4.652  14.160   4.234 -0.1521  0.2261 -0.3298
23033W        W36447  17.624  16.670  13.347 -0.1073  0.0399 -0.3112
23034W        W36448  12.016  13.905   6.211 -0.0527 -0.2686  0.1140
23035W        W36449  12.259  12.462  13.004 -0.1375  0.2586 -0.1962
23036W        W36450  13.935   6.492   4.312  0.1944  0.3202  0.0384
23037W        W36451  16.112   9.175   5.115 -0.0188 -0.1911  0.1448
23038W        W36452   2.416   1.445  12.733  0.0654  0.1243  0.2115
23039W        W36453   7.082  13.176   3.383 -0.0276  0.0661  0.0272
23040W        W36454  13.552  18.219  12.242 -0.0892  0.0362 -0.2113
23041W        W36455   8.748  14.677   0.213 -0.2146 -0.1233 -0.1880
23042W        W36456  12.667   8.179   2.337  0.3873  0.2059  0.0137
23043W        W36457   0.216   1.146   4.349  0.1097 -0.3512 -0.1257
23044W        W36458  15.332   8.657  12.424  0.0387  0.2732  0.2247
23045W        W36459   1.685   6.568  16.276 -0.0442 -0.0283  0.1224
23046W        W36460  12.228  14.878   3.368 -0.1162 -0.0347 -0.0992
23047W        W36461  15.424   4.386   4.655 -0.1437 -0.0088 -0.0693
23048W        W36462   7.294  16.863  12.477 -0.0696 -0.1836  0.0883
23049W        W36463   2.677  12.150  15.555  0.1641  0.0445 -0.1751
23050W        W36464   4.713  12.313   0.372  0.3289  0.4240  0.4106
23051W        W36465  17.427  18.033   5.607 -0.1033 -0.0365  0.0820
23052W        W36466  11.446   3.028   3.287 -0.0559 -0.1898  0.2587
23053W        W36467   7.442   2.004  15.270  0.0244  0.1593  0.1351
23054W        W36468  15.687   5.741  14.608  0.2141 -0.0532  0.2245
23055W        W36469   1.357   0.897  16.182  0.0996  0.1100  0.2182
23056W        W36470   8.392   7.432  15.461  0.0174 -0.0646 -0.1910
23057W        W36471  11.265   0.919   0.230 -0.0668  0.1432  0.0121
23058W        W36472   4.133   0.669   6.313 -0.2773 -0.1460  0.1277
23059W        W36473   5.205  11.509   0.205 -0.0452  0.0041 -0.0589
23060W        W36474   6.843   3.784  10.063 -0.1399  0.3280 -0.0710
23061W        W36475   8.351  12.857   4.168  0.0313  0.0050  0.1519
23062W        W36476  13.569   5.476  16.272 -0.0606  0.3352 -0.0481
23063W        W36477   7.541   0.139  14.524 -0.0500 -0.2957  0.3397
23064W        W36478  10.383   8.659  15.435 -0.2991 -0.2144 -0.0004
23065W        W36479  15.565   0.324   5.518 -0.0419  0.0051 -0.1913
23066W        W36480   7.716   4.751  14.051  0.2580  0.2752 -0.0575
23067W        W36481  15.857   5.658   1.448 -0.1168  0.1564 -0.0128
23068W        W36482  14.352   4.755  12.194  0.0457  0.2396  0.2657
23069W        W36483  11.534   1.803  16.221  0.0367 -0.2078  0.2823
23070W        W36484   5.165  14.153   5.397 -0.2032  0.0297 -0.0586
23071W        W36485  17.101   4.318  15.402 -0.1023 -0.1140 -0.1530
23072W        W36486   9.170  13.112   2.292 -0.0096  0.2751  0.0142
23073W        W36487   9.206   5.374   4.879  0.0066  0.1075  0.2137
23074W        W36488   1.870   3.254   3.658 -0.2970 -0.2125  0.0915
23075W        W36489  15.134  17.697   3.279  0.1911 -0.0532 -0.1092
23076W        W36490   2.001  11.694  12.630  0.1217 -0.1049 -0.0371
23077W        W36491  11.136  12.591   0.688 -0.0982 -0.0383 -0.1025
23078W        W36492  16.809  16.118  12.270 -0.0601  0.1114  0.1877
23079W        W36493   8.590  13.596  14.299 -0.0730 -0.1286 -0.1359
23080W        W36494  13.469  16.192  16.371 -0.1977  0.1926  0.0310
23081W        W36495  14.346  15.781   5.872  0.0543 -0.0836  0.4356
23082W        W36496  17.570   0.723   0.607 -0.0076 -0.1416  0.2182
23083W        W36497  15.818   6.604  14.325  0.1811  0.1063  0.0618
23084W        W36498   5.837   4.020  15.847  0.0920 -0.3534 -0.0967
23085W        W36499   0.753  10.875   4.646  0.0832 -0.0384  0.0336
23086W        W36500   2.546  14.289  13.893 -0.1028 -0.0602  0.1346
23087W        W36501  16.812  17.397  16.297 -0.1124  0.2444  0.1751
23088W        W36502   6.266  12.448   1.051  0.1742 -0.0348 -0.1623
23089W        W36503   3.139   5.623  14.541  0.0285  0.1071 -0.1979
23090W        W36504   8.646   5.222  15.126 -0.1108 -0.0008 -0.0241
23091W        W36505   9.616  16.085   3.075  0.1942  0.3934 -0.1619
23092W        W36506  14.525   7.705  13.769 -0.3174 -0.1017 -0.0638
23093W        W36507  14.739  10.120   4.481 -0.3921 -0.3026 -0.0751
23094W        W36508   7.578  15.310  11.513 -0.1069  0.0573 -0.1052
23095W        W36509   9.573  15.173  14.797  0.1356 -0.3088 -0.3677
23096W        W36510   3.963   5.577  14.093  0.1405  0.1420  0.0215
23097W        W36511   0.122   9.305  15.833  0.0025  0.2015 -0.1474
23098W        W36512   5.859   0.692   4.187 -0.0519 -0.0108 -0.0648
23099W        W36513  13.403   0.304  11.825 -0.0240 -0.0305  0.1128
23100W        W36514  10.149   3.076  14.560  0.0480 -0.0829 -0.4938
23101W        W36515   1.089  16.299   6.063  0.0311  0.2435  0.2476
23102W        W36516  16.807  16.311  14.038  0.2194 -0.3884 -0.2776
23103W        W36517  14.115   7.514   0.272  0.0197  0.4441  0.0670
23104W        W36518   8.077  11.453   5.676  0.1680 -0.0148 -0.0730
23105W        W36519   0.458   0.095  14.865  0.2039 -0.0039  0.0904
23106W        W36520  13.288  14.221   3.345  0.0569  0.0299  0.0079
23107W        W36521   9.649  17.380   1.064 -0.0870 -0.2363  0.1372
23108W        W36522  14.294  12.329  13.443 -0.0196  0.2305  0.1141
23109W        W36523  17.888   0.521  14.801 -0.3624 -0.0316 -0.3020
23110W        W36524  17.497  17.001  12.976  0.1551  0.3224 -0.1758
23111W        W36525  12.017   7.505   0.742  0.3158  0.3482 -0.1469
23112W        W36526  11.367  12.844  16.339 -0.0655  0.0389  0.1472
23113W        W36527   6.877   8.662  10.874 -0.3151  0.0735 -0.3381
23114W        W36528   5.322  17.914  12.614  0.2425  0.1119  0.1845
23115W        W36529  13.849   6.748   4.708  0.3418  0.0013  0.1484
23116W        W36530   9.337   3.172  12.394 -0.1758 -0.3886 -0.0200
23117W        W36531  12.186   1.041   6.888 -0.0593  0.1513 -0.0084
23118W        W36532   7.624   8.486  16.258 -0.0836 -0.1406  0.0376
23119W        W36533  15.538  11.973   4.573  0.0995  0.0577  0.0176
23120W        W36534   5.379   4.087   2.855 -0.0013 -0.0760  0.1028
23121W        W36535   6.058   8.764   1.492 -0.0222  0.0201 -0.2325
23122W        W36536  14.325  10.872  10.471 -0.1167 -0.2012  0.5113
23123W        W36537  12.573  14.082  13.543  0.0389  0.3302  0.1320
23124W        W36538   1.954   1.486  14.396 -0.4853  0.1442 -0.4098
23125W        W36539   8.751   0.290   5.374 -0.0725  0.1774 -0.0525
23126W        W36540   5.507   4.484   2.008 -0.0798  0.1122  0.0004
23127W        W36541  16.672  11.576  16.516 -0.0843 -0.0623 -0.0589
23128W        W36542  15.992  13.253   3.213  0.0336 -0.1049  0.1012
23129W        W36543  17.635  10.295   0.595  0.0839 -0.0564 -0.1538
23130W        W36544   7.574  18.060  11.392  0.1437 -0.0753 -0.1354
23131W        W36545  10.490   2.138  14.860  0.2326 -0.2634 -0.1769
23132W        W36546  14.638   1.904  15.678 -0.0139 -0.2192  0.0642
23133W        W36547  11.917   8.503  10.642  0.0952  0.2664 -0.0305
23134W        W36548  12.258   2.048  16.198 -0.0999  0.1856  0.1341
23135W        W36549   9.575   5.046   2.596  0.1054  0.0125  0.1610
23136W        W36550   9.601  12.699  15.828 -0.2081  0.0800 -0.2382
23137W        W36551  13.367   6.945  12.438  0.2504 -0.0023 -0.1141
23138W        W36552   1.592  14.093  14.218 -0.0040  0.0076 -0.1664
23139W        W36553   8.726   0.305   6.940  0.0970  0.0639  0.0794
23140W        W36554  14.516   3.482  11.549  0.0166 -0.1227  0.2157
23141W        W36555  15.098   6.369  15.901 -0.2315  0.1354  0.1965
23142W        W36556   2.095   1.273  13.111  0.3189  0.0317  0.4035
23143W        W36557   1.347   7.613  11.207  0.0441 -0.0387  0.1389
23144W        W36558   4.594   4.516  10.477 -0.0364 -0.3792 -0.1315
23145W        W36559  16.495   3.976   1.179 -0.2585  0.0513 -0.0607
23146W        W36560   9.283  16.781   3.719  0.2064 -0.0841  0.2117
23147W        W36561   4.138  10.521  12.293  0.1032  0.4953  0.2874
23148W        W36562  16.029  11.259   3.300 -0.2459 -0.0674 -0.1282
23149W        W36563   9.198   4.716   1.799  0.0145  0.4140 -0.2077
23150W        W36564  10.360   4.716  13.690  0.1257  0.0490 -0.0199
23151W        W36565  15.017  14.598   2.736 -0.3485 -0.1232 -0.1940
23152W        W36566   4.355   1.862  14.098 -0.1054 -0.1518  0.0451
23153W        W36567  10.894  17.736   1.162 -0.1803 -0.0854 -0.2518
23154W        W36568   5.689   9.243  12.661  0.0969  0.4837  0.0663
23155W        W36569  10.575  11.970  13.546 -0.0307  0.2040  0.4416
23156W        W36570  17.861   0.310  15.724  0.2406 -0.1059 -0.3924
23157W        W36571   1.727   0.987   2.367 -0.0860  0.0280  0.4327
23158W        W36572   7.399   6.244   1.947 -0.3361  0.1494 -0.1306
23159W        W36573   5.081  13.902   2.267 -0.0874  0.4020 -0.2316
23160W        W36574  12.635   5.868   5.989 -0.3423  0.0385 -0.3095
23161W        W36575   9.894  13.022   0.961 -0.1114  0.1307  0.0209
23162W        W36576  17.237   1.371   1.638  0.0324  0.0015 -0.0927
23163W        W36577   3.934   8.909   1.246  0.0695 -0.1621 -0.0274
23164W        W36578   4.869  15.293   2.216 -0.2215 -0.1637  0.0521
23165W        W36579   3.761   9.957  14.697 -0.1926  0.0350  0.1339
23166W        W36580  10.943   6.408   1.737 -0.1999 -0.0730  0.0142
23167W        W36581   3.483  10.205   0.365 -0.2044 -0.0639  0.4278
23168W        W36582   6.715   5.169   1.472  0.0385  0.0121 -0.2357
23169W        W36583   5.111  14.688   6.308 -0.1951  0.0817  0.1665
23170W        W36584  17.808  15.129   1.737  0.1256  0.0836 -0.1786
23171W        W36585  14.465   6.214  12.459  0.0911 -0.4709 -0.1302
23172W        W36586  16.124  10.600   6.008  0.2046  0.1915  0.0321
23173W        W36587  16.441  15.256   1.838  0.0745  0.1926  0.2425
23174W        W36588   1.738   6.755  10.091  0.2169  0.1674 -0.0206
23175W        W36589   7.192   5.868  14.449 -0.0778 -0.0482 -0.0123
23176W        W36590   2.723  17.276   4.167  0.1512  0.0976  0.1478
23177W        W36591  18.004   8.647   3.886  0.2742 -0.0707 -0.0018
23178W        W36592   7.425   3.615  11.184  0.0969 -0.0998  0.0428
23179W        W36593  17.051   1.512  12.267 -0.1959  0.2933  0.1780
23180W        W36594   5.777  12.013   6.671  0.0560  0.1601 -0.1262
23181W        W36595   0.227   3.071  11.547  0.1295  0.0523 -0.0129
23182W        W36596   3.364   8.586   3.709  0.1901 -0.2786 -0.3145
23183W        W36597   9.412   9.207  13.515  0.1292 -0.0868  0.2106
23184W        W36598  11.435   2.001  10.610  0.1413 -0.0340 -0.0781
23185W        W36599   7.474   3.044   1.317  0.3634  0.0136  0.1568
23186W        W36600   1.057   6.152  13.630 -0.0869 -0.0289  0.1373
23187W        W36601  11.506   7.966   9.886  0.1242  0.2527 -0.2364
23188W        W36602   8.472   8.000   5.356 -0.0162 -0.1376 -0.1498
23189W        W36603  11.475  14.601   0.769  0.0491  0.2632 -0.1258
23190W        W36604   8.408  11.197  11.493 -0.4015 -0.1295 -0.2099
23191W        W36605   7.793   4.813   5.786  0.0699 -0.0847  0.0309
23192W        W36606   1.995   0.544   5.597  0.0672  0.1330 -0.1539
23193W        W36607   3.707   0.129   1.771 -0.2740  0.2650  0.2955
23194W        W36608   1.789   8.398   1.160 -0.1138  0.1735 -0.0911
23195W        W36609  10.083   8.605  13.871  0.2227 -0.1893  0.2320
23196W        W36610   3.335   5.884  15.360  0.2008  0.0366 -0.0344
23197W        W36611  12.791  13.801   2.588  0.2184 -0.3623  0.0065
23198W        W36612   2.718  13.890  13.244 -0.3948 -0.2367 -0.1338
23199W        W36613   2.992  12.700   2.917  0.0266 -0.3140  0.0533
23200W        W36614  13.877  11.561   4.152 -0.0759 -0.1074  0.2128
23201W        W36615   9.466   7.368  15.133  0.2657  0.0764  0.1618
23202W        W36616  14.269  17.299   3.218  0.0773  0.0205 -0.0779
23203W        W36617  15.514   1.606  14.362  0.2282 -0.0421  0.0636
23204W        W36618   0.009  13.251   0.826  0.0587 -0.2704 -0.4275
23205W        W36619  14.944   2.244  11.027  0.3816 -0.1826 -0.4766
23206W        W36620   4.650   8.082  16.398  0.1207 -0.1059  0.0253
23207W        W36621   4.867  14.490   0.868  0.0272 -0.2609 -0.0941
23208W        W36622   1.813  10.651  12.404 -0.0757  0.0180 -0.0660
23209W        W36623  17.317   1.349   2.150  0.2110 -0.0743  0.0692
23210W        W36624  11.190  16.824   6.898 -0.2902 -0.1965  0.3451
23211W        W36625   8.796  11.876   0.650  0.0588 -0.3563  0.0380
23212W        W36626   1.084  14.347  12.642  0.2676  0.1470 -0.0822
23213W        W36627   1.309   4.715  11.599 -0.1158  0.2705  0.0778
23214W        W36628  13.159  15.474  13.644 -0.0638 -0.2268 -0.0483
23215W        W36629  13.216   2.729  14.614  0.0337 -0.0452 -0.0172
23216W        W36630   6.845   7.752   6.570  0.1455  0.2289 -0.1108
23217W        W36631   7.503   6.846   1.075 -0.2272 -0.2125 -0.1773
23218W        W36632  12.649   3.760   1.122  0.4296 -0.0081 -0.0669
23219W        W36633   5.201   1.496   0.325 -0.2312 -0.0196 -0.1808
23220W        W36634   9.740  14.295   0.722 -0.0898  0.2195  0.3380
23221W        W36635  13.294   6.616  13.418 -0.1131  0.0495 -0.2742
23222W        W36636   8.537   1.847   4.862 -0.1213 -0.1220  0.3362
23223W        W36637  12.680  17.402  11.014 -0.0106  0.3522 -0.2156
23224W        W36638   1.632   8.481   5.938 -0.0355  0.0472  0.1847
23225W        W36639   0.379   4.447   4.921  0.0833  0.0002 -0.0875
23226W        W36640  12.386  11.858   4.034  0.3982  0.3834 -0.1396
23227W        W36641   5.628   2.550   4.331  0.0923  0.2391 -0.0459
23228W        W36642  16.732  18.179  13.051  0.0450 -0.2765 -0.1908
23229W        W36643   3.067  10.957   3.605  0.2753 -0.1902  0.0830
23230W        W36644   7.638   7.599  15.183 -0.1626  0.5042 -0.1129
23231W        W36645   3.761   7.265   0.658 -0.0750  0.2067 -0.1194
23232W        W36646   7.602   7.340   4.463  0.1512 -0.0636 -0.0060
23233W        W36647   4.094  12.304   0.500 -0.1672 -0.1177 -0.1165
23234W        W36648  11.787  15.016  16.520 -0.1104  0.0030 -0.3285
23235W        W36649   0.953   0.372  10.616 -0.0103  0.1171 -0.2053
23236W        W36650  12.520  14.982   1.665 -0.1784  0.3324  0.1331
23237W        W36651   6.788  14.894  11.267  0.1746  0.0075 -0.0676
23238W        W36652   3.120  11.440  12.379 -0.1873  0.0135 -0.0292
23239W        W36653  14.402  18.188  16.518  0.2457  0.0789 -0.0338
23240W        W36654  12.106   6.567   2.230 -0.0230  0.0631 -0.4839
23241W        W36655  17.248  13.996  15.976 -0.1487  0.2233 -0.0382
23242W        W36656   9.753   5.141   0.111 -0.1490 -0.2599 -0.2556
23243W        W36657   9.054   1.309   0.727 -0.0345 -0.1523 -0.2800
23244W        W36658   9.206   9.221   4.704  0.1495  0.1061  0.2791
23245W        W36659   2.785  17.750  14.549  0.0909 -0.0507 -0.0561
23246W        W36660  14.419   6.844   2.056 -0.0430  0.3765  0.0801
23247W        W36661  16.852   2.332   3.091  0.0547 -0.2753 -0.1443
23248W        W36662   9.064   4.880   4.023  0.0356 -0.2298 -0.1198
23249W        W36663   7.332  15.194   2.908  0.1062 -0.0142  0.1760
23250W        W36664   5.233   7.050   4.264 -0.0191 -0.0458  0.3579
23251W        W36665   6.449  14.439   4.986 -0.3404  0.2792 -0.1221
23252W        W36666  16.068  10.851  14.641  0.4756 -0.1448  0.0449
23253W        W36667   5.551  11.133  15.122 -0.2106  0.0827  0.1842
23254W        W36668  15.013   2.771  10.999 -0.1498 -0.1667  0.0556
23255W        W36669   5.756   2.807   1.609 -0.3908 -0.0696  0.1732
23256W        W36670  17.842  17.308  13.780 -0.0956  0.1603 -0.0765
23257W        W36671  17.498   9.048  11.608 -0.3400 -0.2084 -0.0910
23258W        W36672   6.745  17.504  11.377 -0.0425 -0.0991 -0.4087
23259W        W36673  10.339  11.630   3.004 -0.0128 -0.1575 -0.0103
23260W        W36674   3.617  11.422  15.339 -0.2739 -0.0606  0.1229
23261W        W36675   0.745  11.082  13.597 -0.0108  0.0057 -0.1878
23262W        W36676  16.546  16.332  15.138  0.1148  0.1985  0.5895
23263W        W36677  11.003   6.828  13.959 -0.0200 -0.0108  0.0031
23264W        W36678  14.090   6.296  16.027 -0.2801 -0.3958 -0.0217
23265W        W36679  14.848  14.235   0.322  0.0118  0.2574  0.0261
23266W        W36680   5.872   1.024  12.450  0.1816  0.0348  0.2658
23267W        W36681  14.234   6.073  15.594  0.2091  0.0823 -0.1228
23268W        W36682   2.846  17.293  11.289 -0.1327 -0.0707  0.3092
23269W        W36683  13.470   9.505  10.957  0.0371 -0.1998 -0.1705
23270W        W36684  17.996   1.227   4.040 -0.0941 -0.1258 -0.1117
23271W        W36685   2.958   2.527   4.424 -0.0538  0.3316  0.4978
23272W        W36686   6.783   1.761   0.136  0.2417 -0.0244 -0.3510
23273W        W36687  16.410  16.727   1.056 -0.0123  0.0401 -0.0030
23274W        W36688  16.670   3.675  11.480 -0.4484 -0.3477 -0.1562
23275W        W36689   1.349  12.883  13.691 -0.0723  0.0468  0.0374
23276W        W36690   1.001   4.708   9.832  0.1904 -0.0235  0.1667
23277W        W36691   6.990   4.295  10.728 -0.0614 -0.3296  0.0786
23278W        W36692  15.773  16.112   0.067 -0.0230  0.1378 -0.4685
23279W        W36693  14.078  13.682  16.216  0.2010  0.1935 -0.0270
23280W        W36694  11.302  11.271   3.231  0.0874 -0.3455 -0.1449
23281W        W36695   8.290   0.118   1.553  0.0064 -0.3608  0.4099
23282W        W36696  10.284   8.336  12.463 -0.0188 -0.2281  0.1662
23283W        W36697  17.212  13.277   4.894  0.0423 -0.0573 -0.0949
23284W        W36698  10.859  12.220   2.441 -0.1538 -0.2596 -0.2284
23285W        W36699   3.304  13.513   1.515  0.0156  0.0685 -0.2609
23286W        W36700  16.129  11.946   4.828 -0.1094 -0.5052  0.0042
23287W        W36701  16.069  15.533  11.761  0.0302  0.1007 -0.2829
23288W        W36702  14.228   8.222  15.695  0.2913 -0.0532  0.1504
23289W        W36703  15.053   6.508  15.424  0.2809 -0.0215  0.1438
23290W        W36704   1.472  13.403  13.709  0.3621 -0.0301  0.0206
23291W        W36705   1.810   0.569  13.909 -0.2958 -0.2170 -0.1636
23292W        W36706   9.802  17.362   5.986 -0.1058  0.2148 -0.0980
23293W        W36707  13.301   4.831   2.682 -0.0322 -0.3034  0.2205
23294W        W36708   3.265   5.340   0.859 -0.0076 -0.1261 -0.4328
23295W        W36709  13.385  14.158  13.732  0.0782 -0.0217 -0.0972
23296W        W36710  11.081  14.265  10.868  0.0202  0.1985 -0.2705
23297W        W36711   0.143   3.232  16.282 -0.0972  0.0527 -0.2581
23298W        W36712   8.156   2.410   2.956 -0.0743  0.1726 -0.1612
23299W        W36713   5.946  10.141  12.560  0.0103  0.0658 -0.2922
23300W        W36714   2.651   9.530  15.939  0.3377  0.0949 -0.1661
23301W        W36715  15.848   5.270  15.251  0.0987  0.0452 -0.1461
23302W        W36716   1.138   9.121  14.641 -0.1303  0.0739 -0.1592
23303W        W36717  13.624   8.202  13.903  0.1507  0.1433 -0.0072
23304W        W36718  10.176   9.172  11.606 -0.0304 -0.0290 -0.2393
23305W        W36719   1.023   8.553   1.620 -0.1948  0.0897  0.0287
23306W        W36720  10.324   6.662  15.935 -0.0609 -0.4061 -0.3915
23307W        W36721  17.989  12.088  15.893 -0.3085  0.1015 -0.0913
23308W        W36722   4.329   5.534   1.865 -0.0578 -0.0653 -0.1266
23309W        W36723  10.823  14.037  11.582 -0.1794 -0.1109 -0.0850
23310W        W36724  11.481   7.729  11.728  0.0055 -0.1687  0.0876
23311W        W36725  16.013  11.417   4.900  0.0066  0.1268 -0.1335
23312W        W36726   4.228   4.640   5.254 -0.2933 -0.3641 -0.2031
23313W        W36727  11.270  14.892  12.728 -0.0067  0.3889 -0.0740
23314W        W36728  13.060   8.044  13.235  0.0576  0.0246 -0.0380
23315W        W36729  10.089  13.147  13.556  0.1787 -0.0660  0.0806
23316W        W36730   2.731  13.193  15.251  0.1377 -0.0827 -0.2323
23317W        W36731   0.645   4.911   3.159 -0.1689  0.1532  0.0781
23318W        W36732  12.377   1.797   0.057 -0.0898 -0.0422 -0.0410
23319W        W36733   3.120  13.427   3.510 -0.0741  0.2610  0.0312
23320W        W36734   6.994  16.352  15.289 -0.0481  0.0651  0.0662
23321W        W36735  13.505   2.602  14.164 -0.2442  0.1160 -0.1912
23322W        W36736  15.950   4.121   4.004 -0.0080  0.1037 -0.3578
23323W        W36737   4.550   4.154  15.234 -0.2425 -0.0925 -0.0051
23324W        W36738  14.976  14.554   4.204  0.1301 -0.4935 -0.0736
23325W        W36739   4.722   7.399   9.931 -0.2325  0.3636 -0.0475
23326W        W36740   9.919  15.040   5.494 -0.0640 -0.2522 -0.2564
23327W        W36741   5.137   0.230  13.460  0.0073 -0.1646  0.3366
23328W        W36742   7.376  12.728   3.677 -0.0159  0.2493  0.1185
23329W        W36743   7.059  14.317   1.568  0.0652 -0.0268  0.0895
23330W        W36744   0.152  16.410   2.962  0.1867 -0.0941 -0.1180
23331W        W36745   1.504  15.744  13.877  0.0060 -0.2205 -0.2006
23332W        W36746   3.243   6.728  13.160 -0.0787 -0.1950  0.0868
23333W        W36747   7.628  16.769   0.400  0.1454 -0.1078  0.0221
23334W        W36748   6.225  16.863   5.040  0.2213  0.4007  0.0601
23335W        W36749  11.460  17.591  15.233  0.0420 -0.2628  0.2362
23336W        W36750   3.805   5.117  15.562 -0.2926 -0.1999  0.1084
23337W        W36751   3.512  16.727   5.512  0.4410  0.1625 -0.1900
23338W        W36752  17.766   9.493  15.177  0.0492 -0.1155  0.2991
23339W        W36753   9.669  15.853  12.058 -0.4141 -0.3358  0.3452
23340W        W36754   1.127  14.691   5.996  0.0845 -0.2667 -0.2852
23341W        W36755   7.110  15.821   3.784  0.0030 -0.0492  0.1532
23342W        W36756   7.690   5.872  12.083 -0.1082 -0.1744  0.0642
23343W        W36757  13.661  11.113  12.016 -0.0298  0.2158  0.1564
23344W        W36758   2.406   9.411   2.697 -0.0576 -0.1483  0.2009
23345W        W36759  10.625   2.884   3.380 -0.1151 -0.1605  0.0068
23346W        W36760   5.051   2.568  15.550  0.0832 -0.3891  0.0912
23347W        W36761  12.679   9.390  13.789  0.3761 -0.2487  0.0272
23348W        W36762   9.141  11.146  10.049 -0.0744 -0.1901 -0.2878
23349W        W36763  14.144  15.778   2.467  0.2758 -0.1721 -0.1407
23350W        W36764  11.085  10.777  13.112 -0.1225 -0.0544  0.2854
23351W        W36765   8.402   5.195  12.713  0.0090  0.1424  0.0309
23352W        W36766   2.068   7.844  15.880 -0.1172 -0.1551  0.2291
23353W        W36767  18.017  17.226  15.225  0.1689  0.0602 -0.0053
23354W        W36768   5.540   3.485  16.246 -0.2308 -0.0670 -0.0065
23355W        W36769   6.034  17.271   2.150 -0.3848  0.2427 -0.0375
23356W        W36770  12.645   3.267   5.202 -0.0883 -0.1736  0.0716
23357W        W36771   9.285   0.543  14.925 -0.0422 -0.2392 -0.2765
23358W        W36772  14.276  10.562  13.164 -0.0611  0.4257  0.2586
23359W        W36773   0.230   6.824   5.630  0.0168 -0.3768 -0.0218
23360W        W36774   9.770   2.163  10.405  0.1314 -0.0819  0.2045
23361W        W36775   4.476   1.337   1.329  0.1676  0.0012  0.1332
23362W        W36776   8.704   4.415   5.507  0.0750 -0.3185  0.0187
23363W        W36777   5.445   5.390   5.129 -0.2356  0.1364 -0.2303
23364W        W36778   5.927  17.494  10.332 -0.0846 -0.1947 -0.0306
23365W        W36779  12.087  10.589  12.796 -0.3322 -0.1969  0.1844
23366W        W36780  13.060   0.983  15.907 -0.2880  0.0521 -0.0035
23367W        W36781   7.658   4.888  11.703  0.0711  0.0804  0.0925
23368W        W36782  16.519   2.681   2.355 -0.4343  0.0563  0.1003
23369W        W36783   8.025   4.157   3.558  0.2615  0.1773 -0.2246
23370W        W36784   0.197   2.743   2.977 -0.0390  0.0134  0.0611
23371W        W36785  16.002  17.623   3.535 -0.1492 -0.1412  0.3307
23372W        W36786  10.812  15.150   0.227 -0.1365  0.1980  0.2146
23373W        W36787  11.819  11.110  12.159  0.3849  0.2133 -0.0740
23374W        W36788   0.001   5.032   1.930 -0.4051  0.5648 -0.0082
23375W        W36789  11.168  16.944   6.015 -0.3894  0.0845  0.0955
23376W        W36790   8.568  11.412   5.511 -0.2031 -0.0081 -0.2765
23377W        W36791  15.816  18.088   1.018  0.0187 -0.1007 -0.0702
23378W        W36792   0.359  12.794   2.421  0.1620  0.1561  0.0052
23379W        W36793   5.629  17.570   5.983 -0.0274  0.0134 -0.0591
23380W        W36794  15.353  16.564   6.245  0.0067 -0.0113 -0.2710
23381W        W36795  11.725   8.894  10.010  0.1762  0.0979  0.0793
23382W        W36796  18.123  13.900   5.631 -0.0447 -0.1672 -0.1634
23383W        W36797  15.411  17.782   1.952  0.1382 -0.1391  0.4551
23384W        W36798  15.662   7.518   1.447 -0.2064  0.0091 -0.0388
23385W        W36799   3.515  15.971   0.943 -0.0078 -0.4357 -0.2453
23386W        W36800  13.427   7.593   3.448 -0.0618  0.0266  0.2060
23387W        W36801   3.836   9.665  11.073 -0.0766  0.1532  0.1133
23388W        W36802  11.781  13.352   3.738 -0.0114 -0.0288 -0.4747
23389W        W36803  15.236  17.439  13.693  0.0374 -0.2191 -0.0546
23390W        W36804  11.432   7.445  10.874 -0.2565 -0.2062  0.1354
23391W        W36805  15.533   0.115   3.698  0.2738  0.3488 -0.1331
23392W        W36806  16.433  12.068   1.220 -0.1087 -0.0186  0.1432
23393W        W36807   6.740   6.312  11.698 -0.1276 -0.1047 -0.4368
23394W        W36808   9.268   1.430   4.304 -0.0843  0.1626  0.0872
23395W        W36809  15.735   9.788   1.676  0.0373  0.2005 -0.2612
23396W        W36810   2.130   6.255   3.016 -0.0108 -0.0943 -0.2572
23397W        W36811   2.302  13.290  15.564 -0.0810 -0.3190  0.4097
23398W        W36812  12.536   5.229   2.450 -0.1207  0.0973 -0.2337
23399W        W36813   5.027   3.663  14.428 -0.0341  0.0082  0.1080
23400W        W36814   5.306   9.392   4.801  0.1078 -0.1493  0.0760
23401W        W36815  11.864  17.509   2.133 -0.1356  0.0224 -0.0616
23402W        W36816   6.622  17.555  16.090  0.2003  0.2437 -0.2026
23403W        W36817   0.121  16.366  11.017  0.0231  0.1469  0.0772
23404W        W36818  16.592   9.492   0.661 -0.2975 -0.1069 -0.0879
23405W        W36819   2.540   3.681   3.490 -0.1140  0.3939  0.1363
23406W        W36820   5.148  17.377  16.483  0.2612 -0.3010  0.1711
23407W        W36821  17.501  18.140   6.224 -0.0918  0.0560 -0.4451
23408W        W36822   1.370  13.346   4.979  0.0357  0.1175  0.0473
23409W        W36823   3.941  16.674   0.516  0.3011  0.2811  0.1000
23410W        W36824  17.460   3.802   1.674  0.3964 -0.1367  0.0205
23411W        W36825   8.069   0.354  12.489  0.0342  0.0325 -0.1297
23412W        W36826   2.780   9.465  11.001 -0.0154 -0.1516 -0.0760
23413W        W36827   0.223  13.840  15.428 -0.0910  0.4276  0.2128
23414W        W36828   6.570   2.366  11.984 -0.1134 -0.0601  0.1565
23415W        W36829   0.159  17.425  12.334  0.2551  0.0408 -0.2493
23416W        W36830  13.862   9.786  15.018 -0.0693 -0.0941 -0.5336
23417W        W36831  13.673  10.774  11.137 -0.0131  0.2188  0.1705
23418W        W36832   2.414   4.104  13.915 -0.0305 -0.3311 -0.2693
23419W        W36833  14.539   0.810   6.060  0.0643 -0.1938  0.0262
23420W        W36834  11.928  11.911  13.871 -0.2163  0.0549  0.1535
23421W        W36835  15.059  12.658  12.208 -0.1403 -0.1596  0.0519
23422W        W36836  13.898  13.742   2.533 -0.2007  0.2594 -0.0483
23423W        W36837   7.030   2.559  16.551  0.2851  0.1043  0.5512
23424W        W36838  10.942   4.072   5.770 -0.0669 -0.0457  0.0921
23425W        W36839  16.184   4.853  16.296 -0.1597 -0.1608  0.0960
23426W        W36840  16.911  12.494   4.471  0.3588 -0.0621 -0.0572
23427W        W36841   5.723  17.710  13.654 -0.0252  0.1819 -0.0251
23428W        W36842   3.332   4.546   6.327 -0.0352 -0.0465  0.3360
23429W        W36843   7.666  11.203   5.608  0.1882  0.3004  0.0632
23430W        W36844   1.214  16.799   0.541  0.2999  0.1311  0.3818
23431W        W36845  10.464  12.614  16.345 -0.2202  0.1772 -0.0908
23432W        W36846   4.393   0.131  12.730  0.0526  0.2803 -0.1579
23433W        W36847  16.838   5.478  10.725 -0.1755  0.0761  0.4039
23434W        W36848   8.268  13.393   1.917 -0.2361 -0.0401  0.1009
23435W        W36849  15.178  13.875   2.028 -0.1141 -0.1956 -0.1614
23436W        W36850   4.921  15.179  10.981 -0.1029  0.2659 -0.0470
23437W        W36851  11.722  14.042  13.599 -0.1757 -0.1483 -0.0048
23438W        W36852  10.787   9.353  14.646  0.1719  0.2525 -0.0765
23439W        W36853  10.392   2.885  12.739 -0.1842  0.2443 -0.2413
23440W        W36854  10.805  14.139  15.683  0.3028 -0.0723 -0.0386
23441W        W36855   2.807   2.765  15.612 -0.6844  0.0926  0.0331
23442W        W36856  14.340   1.299  11.161 -0.1362 -0.2390  0.0370
23443W        W36857  15.633  13.892  14.811  0.3814 -0.0422 -0.3632
23444W        W36858  15.031  11.961  14.452 -0.1517  0.0845  0.0399
23445W        W36859   5.519  16.066   0.879  0.0363  0.3734 -0.1136
23446W        W36860   3.426  10.591  10.860  0.2036 -0.2853  0.1372
23447W        W36861   8.042  16.527  16.361 -0.0724 -0.3314  0.1728
23448W        W36862   4.406   8.539   5.721  0.2845 -0.1157  0.1147
23449W        W36863   6.732  15.267  13.923  0.1014 -0.2091  0.1329
23450W        W36864   9.092   8.800   5.235  0.0699 -0.0450  0.2170
23451W        W36865  11.958  11.690  15.312  0.1778 -0.3216  0.1480
23452W        W36866   5.434  10.381   1.795 -0.0017 -0.0472  0.2525
23453W        W36867  15.223  14.953  16.420 -0.2478 -0.1068  0.0056
23454W        W36868  10.122   6.305   3.045 -0.0654  0.3298 -0.0038
23455W        W36869   0.462  10.677   5.398  0.0765  0.1716  0.0364
23456W        W36870  14.957  13.730   2.448 -0.1648  0.2521 -0.0048
23457W        W36871  13.548  14.165   1.645 -0.4760  0.0726 -0.0044
23458W        W36872  15.105  10.773  16.178 -0.0853 -0.2548  0.2722
23459W        W36873  10.359   8.313   0.827 -0.0267 -0.1841  0.0521
23460W        W36874  16.295   9.730   5.911 -0.2400 -0.1793  0.2993
23461W        W36875  10.105   1.362  14.252  0.0183  0.2015 -0.0712
23462W        W36876  15.968   8.647   4.068 -0.1262  0.0947 -0.1433
23463W        W36877   6.372   4.121  12.246 -0.1104 -0.0396 -0.1450
23464W        W36878  10.624   6.822  11.170 -0.0635  0.1385 -0.0779
23465W        W36879   1.500   9.050  15.459 -0.0310 -0.0075  0.0570
23466W        W36880  13.785   2.965   2.247 -0.0701  0.3256  0.6015
23467W        W36881  15.691   6.750  11.952  0.0593  0.0254  0.2580
23468W        W36882  13.134  16.990   5.537 -0.3537  0.0097 -0.4139
23469W        W36883  10.388  16.050  10.594 -0.3624  0.0674  0.2532
23470W        W36884   2.803  16.875  13.435  0.0967  0.2536 -0.0217
23471W        W36885  16.327   2.280  11.389  0.2829  0.1462 -0.3508
23472W        W36886  11.133   5.725  15.537  0.0077  0.2385 -0.1658
23473W        W36887   2.920   3.315  11.627  0.1055 -0.2064 -0.0742
23474W        W36888   5.963   1.639   3.918 -0.0022  0.1965  0.5564
23475W        W36889  16.963   8.869  11.147 -0.0767 -0.0821 -0.1679
23476W        W36890  14.872   1.477  16.550  0.2812  0.1434 -0.1853
23477W        W36891   9.094  13.545  14.267 -0.2590  0.0231 -0.1881
23478W        W36892   2.667  15.853  11.591  0.0555  0.1541 -0.0133
23479W        W36893   9.646   7.657  13.624 -0.1681  0.0291  0.3770
23480W        W36894  16.298   7.984  11.311  0.3899  0.1142 -0.2573
23481W        W36895   8.290   4.885   1.940 -0.2092 -0.0281  0.0036
23482W        W36896   2.911  12.570   1.435  0.1303 -0.2003 -0.0227
23483W        W36897   6.521  17.216   4.083  0.1238  0.2376 -0.1386
23484W        W36898   5.696   2.267   2.870 -0.1774 -0.2624  0.2251
23485W        W36899  10.803  15.495  15.518 -0.0721 -0.0402 -0.1340
23486W        W36900  13.583  11.592   4.569 -0.2935  0.0457 -0.0312
23487W        W36901   4.142   0.055   2.122  0.4140 -0.0135 -0.0712
23488W        W36902  11.162  11.586  12.783  0.1679 -0.0769  0.1974
23489W        W36903   5.055   3.326  10.379  0.0906  0.1663  0.1990
23490W        W36904  14.093   6.734  12.888  0.3110 -0.0813 -0.2618
23491W        W36905  15.558  18.169  16.243 -0.1851  0.2186  0.4328
23492W        W36906   4.799   1.349  16.014 -0.4112  0.0506 -0.1184
23493W        W36907  13.071  12.205   3.837  0.0074 -0.2420  0.2109
23494W        W36908   2.121  13.582   1.944  0.4397 -0.2745 -0.0162
23495W        W36909   9.389   8.210   1.231 -0.1132 -0.1928  0.0467
23496W        W36910   6.685   7.644   0.456 -0.0960  0.1102  0.0443
23497W        W36911   2.982  11.769  12.718 -0.0847 -0.1706  0.4448
23498W        W36912  15.562  10.767   1.878 -0.1694  0.1786  0.0639
23499W        W36913   7.737   1.614  15.081  0.0062 -0.1094  0.0198
23500W        W36914   2.926  12.760  15.428 -0.0156  0.1292 -0.0126
23501W        W36915  14.886   2.017   3.449  0.1528  0.0616  0.0626
23502W        W36916   1.364   3.813   2.952 -0.0219  0.3060 -0.0888
23503W        W36917  15.937  14.681   5.427  0.1041 -0.1343 -0.0966
23504W        W36918  11.236   7.977  11.330  0.3085 -0.2329  0.1208
23505W        W36919  15.107  12.549   5.507 -0.1707 -0.1771  0.0892
23506W        W36920   1.679   7.359  11.785  0.2613  0.0625 -0.0995
23507W        W36921  11.123   6.210   2.923 -0.1525 -0.1668 -0.3250
23508W        W36922  11.910   8.890  12.690 -0.0401  0.2221 -0.1431
23509W        W36923   8.872  14.394  14.401  0.4266 -0.3116 -0.1074
23510W        W36924  13.298  12.972   1.082  0.0005 -0.0855 -0.1092
23511W        W36925  12.954   8.315  16.384  0.1501  0.0331 -0.2344
23512W        W36926  10.875  10.177   6.303 -0.0124 -0.0254 -0.0630
23513W        W36927  15.604  17.355   2.223 -0.0135  0.0896 -0.0933
23514W        W36928   1.679  16.408  11.660 -0.1867 -0.0398 -0.3209
23515W        W36929   5.310   7.277  13.884  0.1385 -0.3126 -0.2672
23516W        W36930   2.676   7.796   1.573 -0.1015  0.0403  0.0659
23517W        W36931   5.553  17.189  15.482 -0.0991  0.1211  0.0631
23518W        W36932   0.424   4.983  12.521 -0.2866  0.0318 -0.0322
23519W        W36933   3.436  14.891  12.453 -0.1365 -0.2051 -0.2818
23520W        W36934  11.544  10.497   0.471 -0.0166  0.0507  0.0482
23521W        W36935   0.384  15.864  15.164  0.0941 -0.0890  0.1186
23522W        W36936   9.416   2.309   5.891 -0.0512 -0.1816  0.3134
23523W        W36937  11.604  14.512   4.590  0.0840 -0.2150 -0.1250
23524W        W36938   2.384  10.539   3.279  0.0188 -0.2016 -0.1897
23525W        W36939  16.985   9.525   1.390  0.3679 -0.3643  0.0599
23526W        W36940  10.589   0.108  16.033 -0.1144  0.1195 -0.1066
23527W        W36941   2.319   4.594   1.720  0.2491  0.1380 -0.0177
23528W        W36942   3.235  15.211   1.364  0.0137 -0.2527  0.6450
23529W        W36943   5.876   3.548  14.559 -0.0373  0.1454  0.0624
23530W        W36944   3.139   6.354   5.437  0.0476 -0.1911  0.1217
23531W        W36945   2.889   7.696   3.690  0.0444  0.1437 -0.2178
23532W        W36946   9.088   1.955  16.178  0.0133  0.0418  0.0764
23533W        W36947   2.931   3.957   5.052  0.2849 -0.1158  0.0904
23534W        W36948   0.484  13.075   5.393 -0.2390  0.1855  0.1561
23535W        W36949   4.431  16.886  16.325 -0.1901 -0.2446 -0.0040
23536W        W36950  11.857   9.034   0.225  0.2531  0.0742  0.0471
23537W        W36951  12.181   8.839   5.312 -0.2489  0.1111 -0.2961
23538W        W36952   4.874   6.815  11.999  0.0571  0.2190 -0.2316
23539W        W36953  10.668  10.504   1.880 -0.1566  0.1506  0.0103
23540W        W36954   9.756   7.808  11.769 -0.1684 -0.0223 -0.2171
23541W        W36955   8.833  11.640   1.884 -0.2399  0.0981 -0.1352
23542W        W36956  13.865   1.103  11.863 -0.0532 -0.0561 -0.1241
23543W        W36957   9.684  11.723  14.172 -0.4147  0.0041 -0.1570
23544W        W36958   4.966   1.590   5.749 -0.0853 -0.0783 -0.1027
23545W        W36959  13.145   2.241  10.848  0.1719  0.0737  0.1023
23546W        W36960  15.182   2.572   4.202 -0.0302  0.0944  0.3510
23547W        W36961   5.254   6.217  15.873 -0.0665 -0.0164 -0.2858
23548W        W36962   7.359  12.303   0.124  0.0102 -0.0267  0.1349
23549W        W36963  17.719   6.710   0.823 -0.2849  0.0052  0.1662
23550W        W36964   2.373   9.589  11.863  0.0534  0.2635 -0.3618
23551W        W36965  13.133  16.001  11.197  0.0854  0.2162  0.0736
23552W        W36966  16.844   7.922   0.902 -0.2065  0.0533  0.1583
23553W        W36967   7.914   3.787  12.004 -0.0332 -0.0450  0.1307
23554W        W36968  12.181   6.747   5.062  0.0463 -0.0512  0.1067
23555W        W36969   7.831  12.666   1.891  0.0936 -0.2160  0.1217
23556W        W36970  12.742  10.570   3.852  0.1945  0.0675  0.2122
23557W        W36971  16.131   4.779   2.234  0.0399 -0.1283 -0.3249
23558W        W36972   0.345   8.248  12.596  0.5341  0.1015  0.0362
23559W        W36973  16.983  15.187  14.120  0.1194  0.1123 -0.1840
23560W        W36974  15.856   8.591  11.814  0.0362  0.0304 -0.0505
23561W        W36975   0.492   7.195  11.217 -0.0196 -0.0193  0.1746
23562W        W36976  12.093   8.684  13.985  0.1368  0.0526 -0.1007
23563W        W36977   5.734   6.320  16.016 -0.1278 -0.2872  0.2651
23564W        W36978  18.028   3.811  15.556  0.2144 -0.2707  0.3105
23565W        W36979   9.777   8.162  12.112 -0.2114 -0.0623 -0.1492
23566W        W36980   3.902   9.073   5.663 -0.2350  0.2107 -0.0119
23567W        W36981   7.456  13.189   4.781 -0.0751 -0.1887  0.0374
23568W        W36982   8.703  17.691   4.730 -0.1670  0.1145 -0.2894
23569W        W36983   9.469  16.332  11.766  0.0499  0.1620  0.0472
23570W        W36984   1.706  12.216  11.743  0.1451  0.0477 -0.3366
23571W        W36985  10.956  10.356  11.405 -0.1551  0.1671  0.4316
23572W        W36986  14.024   3.600   3.793 -0.0327  0.0146  0.0456
23573W        W36987   7.646   9.658  10.961  0.3221  0.0613 -0.1415
23574W        W36988   2.573  17.153   3.133  0.1610  0.0258  0.2301
23575W        W36989  12.811  15.416   2.891  0.0962 -0.0130 -0.0967
23576W        W36990   0.867  12.869  12.454 -0.2460  0.0667  0.3316
23577W        W36991  11.515  14.742   5.090  0.0375  0.0323 -0.0944
23578W        W36992   7.926   0.602  16.413 -0.0561  0.0381  0.1503
23579W        W36993   1.785   9.804  11.376 -0.1791  0.1199 -0.1316
23580W        W36994   3.237   4.646  13.096  0.3928 -0.0536  0.0644
23581W        W36995   9.353   3.859  11.809  0.1509 -0.3095 -0.1090
23582W        W36996   8.458  14.150   1.516 -0.0662  0.0922  0.0607
23583W        W36997   4.078   7.544   0.124 -0.2051  0.1972 -0.0345
23584W        W36998  13.958  17.354   0.125  0.1623 -0.0931 -0.2769
23585W        W36999  11.045   6.365  13.656  0.2199 -0.0424 -0.1278
23586W        W37000   4.091   4.135   2.603 -0.0673  0.0589 -0.2301
23587W        W37001   6.139   7.820  13.305 -0.0720 -0.1718 -0.2213
23588W        W37002  11.256   8.046  13.972  0.1547  0.0115  0.3339
23589W        W37003  16.687  15.424   1.083  0.3327 -0.3722  0.3312
23590W        W37004   5.068  17.963  14.844 -0.0261 -0.2980  0.3697
23591W        W37005  13.519   1.977   3.353  0.1647 -0.0227 -0.0744
23592W        W37006  12.732   1.198   4.660 -0.0624  0.1345  0.1572
23593W        W37007  12.702  10.292   0.965 -0.0653  0.0490 -0.0598
23594W        W37008   1.072  18.086   3.960 -0.1949 -0.0756  0.2349
23595W        W37009   6.107   1.648  16.400 -0.2468  0.1603  0.0904
23596W        W37010   8.185  17.442  10.310 -0.2423  0.2071 -0.0724
23597W        W37011  14.485   0.468  10.525 -0.0931 -0.1690  0.0946
23598W        W37012  16.925  11.058   5.023  0.3206  0.2315 -0.1970
23599W        W37013   3.226  10.531   0.711 -0.3465  0.0268 -0.0124
23600W        W37014   5.220  15.169  10.243  0.3845  0.0750  0.0027
23601W        W37015  10.990  11.734  10.307  0.0685  0.0132  0.3258
23602W        W37016  17.479   6.888  11.702  0.2076  0.2002  0.1374
23603W        W37017   6.574   6.097   5.951 -0.1596 -0.0141  0.1567
23604W        W37018   0.621  12.019  11.617 -0.1656  0.3114 -0.3668
23605W        W37019  17.920   6.247   0.857 -0.0411  0.2063 -0.0076
23606W        W37020   2.576   1.532   3.672  0.0721 -0.2948  0.1196
23607W        W37021   4.970   1.957  13.086 -0.1698 -0.0510 -0.1121
23608W        W37022   8.251   0.019  15.908  0.3048 -0.2737 -0.1086
23609W        W37023   7.034   2.132   4.033 -0.0341 -0.2365  0.1465
23610W        W37024   9.861   7.061   2.699  0.2421  0.2709  0.1705
23611W        W37025  10.551   5.963  14.010 -0.1892  0.0269 -0.1798
23612W        W37026  11.846  13.008   3.108  0.0483  0.2714  0.1504
23613W        W37027   5.868   2.627  13.702 -0.2351 -0.0956  0.1175
23614W        W37028   7.215  10.791  15.770 -0.2415  0.1979  0.0231
23615W        W37029  11.283  16.344   1.665  0.0017  0.2925 -0.2361
23616W        W37030  14.885  13.756   3.548  0.1869 -0.0902  0.0203
23617W        W37031   5.051   5.004   5.337  0.1040  0.2440  0.1080
23618W        W37032   5.339   3.593  11.706 -0.0567 -0.2172  0.0311
23619W        W37033   9.289  13.487   3.767  0.1279  0.0043  0.1113
23620W        W37034   1.770   5.200  16.488  0.0070  0.0695  0.2992
23621W        W37035  10.347  14.891  12.927  0.2664  0.1108  0.2892
23622W        W37036  15.778  11.515  15.497  0.4530  0.1919 -0.0790
23623W        W37037  18.018  13.725   4.894 -0.1049 -0.2602  0.0390
23624W        W37038   3.502  13.101   4.404 -0.0999  0.1970  0.0341
23625W        W37039   7.217  14.102  15.386 -0.3136  0.2155 -0.1334
23626W        W37040   6.659   5.702   1.589  0.0096  0.2600 -0.0811
23627W        W37041  14.068   6.169  12.840 -0.2151 -0.2257 -0.2666
23628W        W37042  12.735  11.598   2.325  0.2812 -0.1378 -0.0394
23629W        W37043  16.079   3.996  14.232  0.2134 -0.0426  0.4368
23630W        W37044   6.006  10.624   4.317 -0.0606 -0.0418  0.0566
23631W        W37045  13.525  10.062   3.286  0.1623 -0.0912  0.3082
23632W        W37046  16.916  11.771   1.365  0.1076  0.0624 -0.1937
23633W        W37047   4.157   0.889  13.486  0.0758  0.1186 -0.0575
23634W        W37048  18.149  17.756   0.567  0.1566 -0.2617 -0.0410
23635W        W37049   4.100   6.534  13.981 -0.2154 -0.2971 -0.1971
23636W        W37050   2.860   7.709   4.794  0.2962 -0.1013  0.0086
23637W        W37051   0.029   2.143   2.112  0.0194 -0.2785 -0.1661
23638W        W37052   1.784  17.556  14.460  0.1345 -0.0447 -0.2401
23639W        W37053   5.651   9.496  14.619 -0.2233 -0.0676  0.5185
23640W        W37054  10.035   8.800  12.859 -0.1337 -0.0927 -0.1546
23641W        W37055   4.499   3.158  15.511 -0.1144 -0.1174  0.0822
23642W        W37056   4.567   8.006  15.860 -0.1508 -0.1882  0.0896
23643W        W37057  16.974   0.445  15.989 -0.0619  0.3792  0.0491
23644W        W37058   1.542   8.509  16.243  0.1286 -0.1563 -0.0050
23645W        W37059  12.045   3.087   2.503  0.1372 -0.2771 -0.1046
23646W        W37060   2.694   0.559  13.395 -0.2596 -0.0741  0.0952
23647W        W37061  12.936  14.582   4.301  0.0721  0.2834  0.0121
23648W        W37062  14.489  13.503  11.438 -0.1621  0.2945 -0.0706
23649W        W37063   9.591   2.775   6.203  0.1272 -0.1711  0.1453
23650W        W37064  12.198   8.173  15.740  0.0226 -0.3462  0.0997
23651W        W37065  15.085  17.863   0.631  0.0817 -0.1175 -0.0601
23652W        W37066   2.422   0.677   0.537 -0.0681 -0.2025 -0.0705
23653W        W37067   0.933   3.624   1.856 -0.0402  0.0978 -0.0865
23654W        W37068   4.680  10.918   4.980  0.1746 -0.2546 -0.1696
23655W        W37069   0.810  10.615  10.876  0.3053  0.0446 -0.0533
23656W        W37070  16.507  17.153   5.654 -0.0470  0.2096 -0.1621
23657W        W37071  10.928  12.970  14.464 -0.3748 -0.2272  0.0249
23658W        W37072   7.534  16.758  15.306 -0.4164 -0.1138  0.1257
23659W        W37073  10.895   6.808  13.463 -0.2031  0.0792 -0.1087
23660W        W37074  13.017   7.498  15.600  0.3919  0.1401  0.1348
23661W        W37075   8.873   7.496   2.365  0.2432 -0.2638 -0.0491
23662W        W37076  11.144  17.428  13.910  0.1154  0.0212 -0.0004
23663W        W37077   3.345  12.764   1.554  0.2650  0.0292  0.1046
23664W        W37078   4.168   8.497  14.440 -0.0126  0.0030  0.3229
23665W        W37079   8.139   6.341  15.888 -0.1104 -0.0774  0.3334
23666W        W37080   8.849  12.085  15.373  0.0356  0.2087 -0.0341
23667W        W37081  11.983   3.836  16.028  0.0076  0.2178 -0.0703
23668W        W37082   4.334  17.269  14.559 -0.1310  0.4164  0.2648
23669W        W37083  10.408  11.621  13.826  0.1682 -0.2204  0.0017
23670W        W37084  17.244  13.220   4.399  0.0919 -0.1430  0.1080
23671W        W37085   3.774   4.004  10.605 -0.3268  0.0655 -0.1537
23672W        W37086  17.484  13.099  11.698  0.1238 -0.3219 -0.1515
23673W        W37087   9.868   3.653   4.803 -0.1541  0.3844 -0.0679
23674W        W37088   5.331  16.215  11.906 -0.0919 -0.0828  0.2098
23675W        W37089   8.362  17.174   4.062 -0.1285 -0.4660 -0.0547
23676W        W37090   5.400  11.562   0.985 -0.0301  0.3118  0.3470
23677W        W37091  10.978  14.568  11.305 -0.3058 -0.1081  0.3935
23678W        W37092   9.268  11.874  15.190 -0.0913  0.0471  0.2208
23679W        W37093  10.510  13.327   3.447 -0.0121  0.0455  0.0589
23680W        W37094  10.501  17.250   1.663 -0.1068 -0.1719 -0.2554
23681W        W37095  15.949   0.040   1.486 -0.0211 -0.0219  0.1227
23682W        W37096  17.732   1.197   0.409  0.0974  0.0849  0.0454
23683W        W37097  16.528  14.554   1.630  0.2407 -0.0455 -0.1412
23684W        W37098  12.849  17.322   1.828  0.2170 -0.0527  0.1866
23685W        W37099  17.285   3.564  13.128 -0.1026 -0.0855  0.0771
23686W        W37100   1.050  10.234  13.514 -0.2845 -0.0210  0.0402
23687W        W37101   8.359  17.802  11.582 -0.3605 -0.2168 -0.0171
23688W        W37102   4.961   0.843  16.121  0.1043  0.0195  0.1716
23689W        W37103   1.054  13.843  14.822 -0.0100 -0.0466  0.1850
23690W        W37104   0.556   6.285  16.553 -0.0876  0.0191 -0.2020
23691W        W37105   6.624  12.261   0.787 -0.2816 -0.0141  0.2748
23692W        W37106  11.924  17.798   0.776 -0.3592 -0.1293  0.2085
23693W        W37107  11.222   8.443  13.715  0.2782  0.0461  0.1624
23694W        W37108  15.406   2.558   2.830 -0.2186  0.1062  0.1028
23695W        W37109   1.915  10.436   4.975 -0.4274 -0.1039  0.0292
23696W        W37110   9.004   0.294  11.460  0.0219  0.1872 -0.2086
23697W        W37111   5.913  14.425  10.239 -0.2461  0.0140  0.0330
23698W        W37112  14.109  11.868   4.531 -0.1039 -0.0904  0.0158
23699W        W37113  18.105  12.720  14.959 -0.0903  0.1690  0.1766
23700W        W37114   6.718   9.187  11.090  0.1300 -0.0489  0.1397
23701W        W37115   8.032   8.192  12.097 -0.2134 -0.0876 -0.1086
23702W        W37116   0.056   6.745   2.154 -0.3172 -0.2465  0.1019
23703W        W37117   1.635   2.199   3.754  0.0992 -0.0167  0.0560
23704W        W37118  17.614  15.138   4.486  0.0907  0.0680  0.1381
23705W        W37119   1.615   6.180  10.176  0.0638  0.1190 -0.2377
23706W        W37120   8.590  12.710  14.427 -0.1705  0.1800  0.1384
23707W        W37121   4.792  15.570  14.091 -0.1099  0.2604  0.1721
23708W        W37122   9.593  17.312  15.309 -0.3662 -0.3038 -0.0762
23709W        W37123  10.059   5.969   1.934 -0.0439 -0.0087  0.0681
23710W        W37124   9.586   0.201  14.033  0.3908 -0.2270 -0.0570
23711W        W37125   1.090  17.791  10.461  0.2123 -0.0738 -0.2330
23712W        W37126   1.204   6.810  12.978  0.0777 -0.0093  0.3002
23713W        W37127  17.401   4.452  14.074  0.2601 -0.0390 -0.1947
23714W        W37128   0.629   4.431  10.172 -0.1369 -0.1021 -0.0417
23715W        W37129   4.279  16.081   2.368 -0.1274  0.0834  0.3689
23716W        W37130  15.992   2.871  11.408 -0.3170 -0.0785  0.1684
23717W        W37131  15.662  14.519  12.870  0.1811 -0.5234  0.1634
23718W        W37132   2.173   4.915  16.091 -0.0950 -0.0662  0.0466
23719W        W37133  13.962   2.403  12.008  0.2585 -0.1401 -0.0639
23720W        W37134  17.633  12.082   2.649  0.1801  0.3929 -0.0762
23721W        W37135   8.784   1.255  11.767  0.1008  0.1575  0.0726
23722W        W37136   2.018  12.204   5.380 -0.0128 -0.0605  0.0466
23723W        W37137  11.587   4.398  11.045 -0.0546 -0.0779 -0.1580
23724W        W37138  12.256   5.022  13.923 -0.0339 -0.0770 -0.2073
23725W        W37139  14.509  11.615   3.146  0.2329  0.0331 -0.0029
23726W        W37140  18.099   9.905   2.722 -0.0604  0.2130 -0.2197
23727W        W37141  15.077  10.333   3.684  0.3552  0.2520  0.0447
23728W        W37142  14.263   0.551   0.013 -0.2624 -0.1847 -0.1255
23729W        W37143  10.278   3.077   0.066  0.0502 -0.2187 -0.4271
23730W        W37144   4.071   4.175  10.987 -0.2410  0.1479 -0.0755
23731W        W37145   6.087   3.652  12.993  0.0701  0.1899 -0.3239
23732W        W37146  12.643  17.790   0.233  0.1210  0.3434  0.0845
23733W        W37147   9.965   6.956   0.199  0.0796  0.1024 -0.1759
23734W        W37148  15.067  17.844  12.461 -0.1491 -0.0054  0.1255
23735W        W37149  14.622  16.386  12.079  0.0301 -0.1407 -0.1011
23736W        W37150  12.692  13.842  13.132  0.1254 -0.0943 -0.0770
23737W        W37151   6.806  14.872  12.230  0.0812  0.0370  0.1824
23738W        W37152   5.207   9.857  15.935 -0.0989 -0.0559  0.0069
23739W        W37153  14.332   9.861  14.742 -0.0204 -0.1447 -0.2594
23740W        W37154   0.701   1.499   2.713  0.1307 -0.0106  0.3335
23741W        W37155   5.327   1.076   5.486  0.2491  0.2245  0.1302
23742W        W37156   6.606   8.497  13.626 -0.0852  0.0625  0.1617
23743W        W37157  11.913   3.547   0.092 -0.0981 -0.2557 -0.1772
23744W        W37158   9.116   4.451  12.664 -0.0623 -0.0341  0.0782
23745W        W37159  14.266   9.232   5.034 -0.0637 -0.0479  0.1570
23746W        W37160   5.214   2.462   0.511  0.0866  0.1523  0.2023
23747W        W37161   5.476  15.048  13.790  0.3930 -0.0301  0.3019
23748W        W37162  12.509  14.699  11.688  0.1432 -0.2458  0.1181
23749W        W37163  11.752  14.902   0.457  0.2505 -0.1649 -0.2493
23750W        W37164   2.690  16.101  15.170 -0.0288 -0.2890  0.0963
23751W        W37165  17.061   9.910  15.368  0.0504 -0.1800  0.1035
23752W        W37166   4.062  12.398  15.160  0.1111  0.0776 -0.0081
23753W        W37167   2.309   1.985   3.905 -0.0663 -0.4227 -0.2983
23754W        W37168  11.712   1.976  11.687  0.0877  0.0175 -0.2383
23755W        W37169  16.052   4.711  10.309 -0.2416  0.0404 -0.0542
23756W        W37170  12.977  13.691   0.345  0.2026 -0.2155 -0.1571
23757W        W37171  11.308  14.914  13.960  0.1108 -0.0898 -0.2944
23758W        W37172   6.114   6.092   4.239  0.2990 -0.1026  0.0592
23759W        W37173  10.377   9.271   5.452  0.2125 -0.0096 -0.4363
23760W        W37174   6.295   4.505   5.464  0.0082  0.1560  0.1160
23761W        W37175   9.201   7.859   3.618 -0.2636 -0.1127  0.2747
23762W        W37176  17.517  18.215  13.329 -0.1339 -0.0569  0.0825
23763W        W37177  11.677   6.287   4.194  0.0486  0.0296 -0.2498
23764W        W37178  12.671  14.588  13.423 -0.1787 -0.2611 -0.1074
23765W        W37179  17.633  17.933  15.900 -0.2102 -0.1906  0.1136
23766W        W37180  16.210  13.169  15.017 -0.1500 -0.0341 -0.0160
23767W        W37181   6.293  10.915  11.472 -0.3268  0.3141  0.0272
23768W        W37182   0.656   6.653   2.742  0.0396 -0.0228 -0.1077
23769W        W37183   3.730  11.596  13.303 -0.0365 -0.3959 -0.2244
23770W        W37184  12.977   3.509   4.160  0.3756 -0.2895 -0.4361
23771W        W37185   5.757  13.058  11.591 -0.5759  0.1200 -0.1683
23772W        W37186  14.291   8.669  14.583  0.1305 -0.0679  0.2304
23773W        W37187  13.689   8.987   4.896 -0.1947 -0.2866  0.1785
23774W        W37188  15.889   4.169  10.566  0.1984  0.1644 -0.2662
23775W        W37189  12.497  11.465   5.135 -0.0068  0.2200  0.0599
23776W        W37190   6.850  16.388  11.645  0.2031  0.2300  0.1582
23777W        W37191   3.534   4.321  15.210 -0.0248 -0.0149  0.0648
23778W        W37192   0.140  18.083  12.149 -0.1936 -0.1495  0.1304
23779W        W37193  18.143  15.673   4.104 -0.0990 -0.1364 -0.0700
23780W        W37194   9.415  10.837   2.468  0.0913 -0.3471 -0.2480
23781W        W37195  15.736  15.242   2.769 -0.1814 -0.1934  0.2029
23782W        W37196   9.648   3.518  13.597 -0.0420 -0.3657 -0.1282
23783W        W37197  15.859  16.408   3.555  0.0923  0.1636 -0.2012
23784W        W37198  16.322   5.010  12.236  0.1213  0.2143 -0.0460
23785W        W37199  13.141  11.415   4.387  0.0792  0.1728  0.0402
23786W        W37200  10.241  13.336   5.616  0.3265  0.0597  0.2135
23787W        W37201  16.570   6.478   5.504  0.1632 -0.2350 -0.0026
23788W        W37202   0.714   6.625  12.202 -0.2090  0.0473  0.2002
23789W        W37203   8.266   3.505  15.669  0.0017  0.1011  0.0475
23790W        W37204   1.520  15.042   1.090 -0.1807 -0.1543  0.4494
23791W        W37205   8.632   4.790  14.155  0.3129  0.1610 -0.1117
23792W        W37206   0.753   2.748  15.142  0.3077  0.0568 -0.2827
23793W        W37207   7.128   8.373   3.485 -0.0919 -0.0864  0.0639
23794W        W37208   8.726   4.707  13.626  0.2069 -0.0428  0.1419
23795W        W37209   9.635  13.389  14.537 -0.0707 -0.2629  0.0687
23796W        W37210  18.006   0.573   0.517  0.1550 -0.0267 -0.2925
23797W        W37211  13.508  10.359   4.438  0.1079  0.0355 -0.0226
23798W        W37212   9.888   9.065   3.802  0.0004 -0.0599  0.3748
23799W        W37213  10.857   4.589  13.574 -0.0326 -0.0661 -0.0467
23800W        W37214  16.924   2.901  13.443  0.0153  0.3641 -0.1537
23801W        W37215  10.842  14.208   2.247 -0.1629 -0.1281  0.0351
23802W        W37216   0.277  17.102   4.550  0.0332  0.3046  0.2465
23803W        W37217  15.614   1.766  15.838 -0.2403 -0.2621 -0.1299
23804W        W37218  16.409   7.991  15.359  0.2844 -0.1621 -0.1190
23805W        W37219   8.671   7.571  15.923  0.1001 -0.1148 -0.0954
23806W        W37220   6.180  14.785   0.081  0.1422  0.1436  0.1092
23807W        W37221   9.040  17.036  12.728  0.2174  0.1730  0.0682
23808W        W37222  18.274   5.374   4.612  0.1513  0.3405  0.0124
23809W        W37223   7.371   8.045  16.083  0.0402  0.0645  0.3639
23810W        W37224   9.219  13.991  12.980  0.0773  0.1892 -0.0287
23811W        W37225  10.069  12.384  14.808 -0.0928 -0.0635 -0.1796
23812W        W37226   4.922   1.379  11.389 -0.3157  0.2005  0.1658
23813W        W37227  15.722  12.224  11.177 -0.3483 -0.1930  0.4122
23814W        W37228   6.772  10.618  13.946  0.0702 -0.1303 -0.2667
23815W        W37229  11.415   6.741  13.737 -0.2958  0.0804  0.1301
23816W        W37230   3.690   6.427  15.681 -0.2319  0.0612  0.2934
23817W        W37231  10.169  10.081   0.146 -0.3153 -0.0998  0.0165
23818W        W37232  17.456   1.791   1.813 -0.0797 -0.2916 -0.0264
23819W        W37233  17.099  14.896  10.424  0.0846  0.1820  0.1249
23820W        W37234   4.227  15.305   2.817  0.0212 -0.1049 -0.0787
23821W        W37235  16.464  13.447  15.373 -0.0047 -0.0661  0.1533
23822W        W37236  16.909  17.335  12.339 -0.0152  0.1280  0.3116
23823W        W37237   3.875   6.356   4.596  0.0235  0.1630 -0.2256
23824W        W37238   2.007  11.715  14.443 -0.0006  0.0950 -0.3280
23825W        W37239   5.019   2.882  10.634 -0.2953 -0.0994  0.2736
23826W        W37240   1.070  12.006  15.556  0.2324 -0.0478  0.1691
23827W        W37241  14.330  15.494  10.884  0.2680  0.3294  0.2790
23828W        W37242  10.965   7.387  15.545 -0.0767 -0.2921 -0.5649
23829W        W37243  16.931  16.027  15.235  0.5580 -0.0262  0.3872
23830W        W37244   3.136   2.944   4.994  0.1147  0.0663 -0.0380
23831W        W37245   3.573  12.773   3.985 -0.1911  0.3283  0.1062
23832W        W37246   2.048  15.530   1.989  0.1569 -0.0228 -0.0879
23833W        W37247  10.786   4.125   1.300  0.0675  0.1716  0.1484
23834W        W37248   4.296   8.818   4.404 -0.0442 -0.1138 -0.1655
23835W        W37249  16.355  18.058   1.995 -0.1291  0.3040  0.2915
23836W        W37250   8.949   0.722   3.969  0.3563 -0.4128 -0.0019
23837W        W37251  11.936   0.608   7.053 -0.2417 -0.1448 -0.1707
23838W        W37252  15.536  14.748   0.184 -0.0700 -0.0582  0.0906
23839W        W37253  15.873  13.590   4.469  0.3191 -0.1554 -0.1525
23840W        W37254  11.918   8.518   2.590  0.2197  0.1459  0.0013
23841W        W37255   5.665  16.169   2.991  0.2048 -0.2559  0.1362
23842W        W37256  15.962  17.000  15.540 -0.1913 -0.1687 -0.2024
23843W        W37257   3.878   7.948   2.249 -0.2609  0.3151  0.0482
23844W        W37258   7.643   6.548  12.625  0.1743  0.3449 -0.1217
23845W        W37259   2.587   9.041   4.802 -0.0794  0.1942  0.2858
23846W        W37260  14.665  16.747  14.938 -0.1029  0.1578 -0.1043
23847W        W37261   8.528   9.617   4.029  0.2370  0.3133 -0.4631
23848W        W37262  14.270   3.653   2.552 -0.2394  0.0012  0.2677
23849W        W37263  13.156  12.921   4.474  0.2347 -0.0389  0.1295
23850W        W37264  16.248  16.790   0.519 -0.2703  0.1697 -0.1204
23851W        W37265   0.455  14.836   1.517  0.4505 -0.4811  0.0327
23852W        W37266  17.744  12.942   0.107 -0.0149  0.0024  0.1233
23853W        W37267  12.428   7.619   2.809  0.0443  0.3936  0.3604
23854W        W37268  10.251  12.537   0.278 -0.1738  0.0583 -0.2965
23855W        W37269  17.862   7.258   0.204 -0.4073  0.0616  0.2525
23856W        W37270   9.044  16.490   5.020  0.2417 -0.0736 -0.0931
23857W        W37271  12.315   4.624   4.686  0.2532 -0.2555 -0.2782
23858W        W37272   2.888   0.688   3.351  0.3330 -0.0140  0.0154
23859W        W37273   8.468   3.615  14.847 -0.2009  0.0668  0.1918
23860W        W37274  11.991   6.336   5.303  0.0033 -0.0617 -0.0563
23861W        W37275  10.365   6.247  10.933 -0.1431  0.1182 -0.1780
23862W        W37276   3.735  12.306   3.980 -0.2231  0.0712  0.0443
23863W        W37277   0.326  16.547   0.076  0.1369  0.1182  0.0929
23864W        W37278   4.092   3.477  14.271 -0.2583  0.2148  0.2502
23865W        W37279  17.033  13.397  15.321  0.1717  0.0351  0.1488
23866W        W37280  17.003  12.423   2.010 -0.0582  0.0245 -0.2068
23867W        W37281  11.827   5.942  12.330  0.0248  0.1996 -0.0821
23868W        W37282  14.395   7.402   4.668 -0.1527 -0.1390  0.0277
23869W        W37283  14.990  14.170  13.690 -0.2817 -0.2474  0.2873
23870W        W37284   8.079  13.454  12.507 -0.1271 -0.3140 -0.0697
23871W        W37285   9.062   4.940   3.296 -0.2721  0.3922 -0.0351
23872W        W37286  10.370  16.955   5.134  0.0915 -0.0623  0.2277
23873W        W37287   0.383   6.997   2.505  0.0122 -0.1546  0.0985
23874W        W37288   9.345   5.583  13.774  0.0630  0.2081  0.0426
23875W        W37289   8.151   8.513   5.310 -0.0890  0.0750  0.0420
23876W        W37290  10.834   9.848   3.847 -0.2442  0.1468 -0.1418
23877W        W37291  14.424   0.451   5.099 -0.3426  0.1954 -0.2299
23878W        W37292   4.486   9.146  12.590  0.0633 -0.2214 -0.0153
23879W        W37293  17.540  16.064  15.616 -0.1903  0.2166 -0.0624
23880W        W37294   1.121  17.291  15.794 -0.0358 -0.3612 -0.1107
23881W        W37295  17.563   5.445   3.966  0.3607 -0.0941 -0.0612
23882W        W37296   0.463  15.028   5.215 -0.2826 -0.2015 -0.1547
23883W        W37297  16.217   8.847  13.783  0.1360  0.0727  0.1272
23884W        W37298   4.291   7.820  11.388  0.0031  0.0859 -0.2950
23885W        W37299   4.501  17.696  11.476  0.1102 -0.2607  0.0437
23886W        W37300   8.751  17.460  12.883 -0.0867 -0.0481 -0.0591
23887W        W37301  17.890  13.419   2.030  0.0940 -0.1072 -0.0661
23888W        W37302  14.158   9.892  14.171  0.1139  0.4387 -0.1897
23889W        W37303   3.117   1.683   1.487  0.3191 -0.1989 -0.1402
23890W        W37304  17.518  17.388  14.977  0.0500  0.0212 -0.1658
23891W        W37305  17.958   5.394  15.634  0.0776  0.1122  0.0702
23892W        W37306  16.453  12.487   0.852 -0.0368  0.3733 -0.0163
23893W        W37307   2.117   1.988   5.828  0.0779 -0.3327 -0.1447
23894W        W37308   1.365   2.773   1.369 -0.2686 -0.2912  0.1327
23895W        W37309  10.707   4.823  14.760  0.2675  0.3264 -0.1336
23896W        W37310  12.676   5.059   2.016 -0.0632 -0.0807  0.0495
23897W        W37311   1.417   9.417  15.830  0.0928 -0.0931  0.1679
23898W        W37312   6.648  12.328   0.226 -0.1832  0.1683  0.0841
23899W        W37313  15.642  11.911   0.948  0.0056 -0.0081  0.0056
23900W        W37314   4.569   5.989  15.362 -0.1356  0.3367  0.0652
23901W        W37315  18.117   3.200  11.216 -0.3529 -0.1985  0.1707
23902W        W37316   4.532  11.270  14.035  0.1680 -0.1417  0.0931
23903W        W37317   6.673  10.805   2.645 -0.2112  0.0037  0.0281
23904W        W37318  11.587   1.308  16.131 -0.0351  0.1625 -0.0969
23905W        W37319   7.104  10.454  14.929 -0.2523  0.0156 -0.3075
23906W        W37320  10.148  17.862   0.656  0.0587 -0.3043  0.1005
23907W        W37321  12.764   9.652  11.862  0.0254  0.3255 -0.5218
23908W        W37322   3.327   0.589  15.597  0.1753  0.0350  0.1008
23909W        W37323  10.159  13.385   4.301 -0.2146  0.1215  0.1138
23910W        W37324   2.771   1.923   4.735 -0.1775  0.0665  0.1562
23911W        W37325   8.852   0.825   0.423 -0.2930  0.0922 -0.3521
23912W        W37326  14.657   4.025   4.257  0.1117 -0.1520  0.2667
23913W        W37327  14.472   9.509  14.308  0.1505 -0.0810 -0.0596
23914W        W37328   2.557   8.410  16.374  0.3538  0.0874 -0.0939
23915W        W37329   0.916  11.334   5.093 -0.1422 -0.1035 -0.1401
23916W        W37330  16.571  11.815  12.274  0.0178 -0.1886 -0.2364
23917W        W37331   9.709  17.269  14.764 -0.0334 -0.1455 -0.3558
23918W        W37332  12.771  12.025  10.682 -0.1041 -0.0639  0.0912
23919W        W37333   7.425  16.213  11.876 -0.2967  0.2293 -0.0703
23920W        W37334  12.893  11.494  12.056  0.4410 -0.1577  0.0677
23921W        W37335  10.727   4.221   2.198  0.1245 -0.1015  0.0454
23922W        W37336   7.258   3.083  10.003  0.1707 -0.1245 -0.2945
23923W        W37337  18.017  15.722  12.322 -0.1056  0.2634 -0.1865
23924W        W37338  16.184  17.062   5.246  0.0635 -0.0466  0.0816
23925W        W37339  12.340  10.782  13.640  0.3921  0.1122 -0.0976
23926W        W37340  11.670  16.585  16.256  0.2373  0.1495  0.4006
23927W        W37341  15.290  15.934  15.873  0.2184  0.0882  0.0799
23928W        W37342  14.488   6.262   9.794  0.1747  0.0373 -0.2116
23929W        W37343   0.915   2.325  10.568  0.2827  0.1721 -0.2175
23930W        W37344  11.841  16.578   1.119 -0.0614 -0.0550 -0.0165
23931W        W37345   3.726   2.586   1.790 -0.2581  0.0641  0.2534
23932W        W37346   3.384  17.180   5.366 -0.3018 -0.1442 -0.0761
23933W        W37347  16.776  12.269   3.330 -0.3029 -0.3677 -0.1583
23934W        W37348  13.628   8.701  13.265  0.0400  0.2008  0.1151
23935W        W37349   6.679  14.529   0.167 -0.0565  0.1526 -0.1424
23936W        W37350   7.293   9.221   2.132 -0.1704  0.0655  0.1596
23937W        W37351   1.439  12.110   3.334  0.0459  0.0050  0.1180
23938W        W37352  14.462   2.214   2.819 -0.3105  0.0749  0.0798
23939W        W37353   9.397   9.057  11.320  0.1110  0.1404 -0.0927
23940W        W37354   8.017  17.436   5.266  0.5837  0.0712  0.1451
23941W        W37355   5.950   7.679   5.638 -0.1471 -0.2038 -0.2713
23942W        W37356  17.966  12.060   4.813  0.1791 -0.0695  0.1182
23943W        W37357  15.673   7.257   4.865  0.2417 -0.0442  0.0880
23944W        W37358   7.420  12.939   5.235  0.0338 -0.1298 -0.1581
23945W        W37359   6.056  15.828   4.461  0.0220  0.0052  0.0072
23946W        W37360   0.182   9.953  11.335 -0.1171 -0.0834  0.0546
23947W        W37361   4.705   7.108   3.699  0.2155  0.0931 -0.0621
23948W        W37362   5.936   0.365   1.521 -0.0374 -0.0742 -0.1799
23949W        W37363   1.142   6.776   1.859  0.1463 -0.0485  0.1205
23950W        W37364  16.480   9.758   1.017 -0.2293 -0.1025 -0.1372
23951W        W37365  15.929  18.225   5.330  0.1945 -0.2960  0.0943
23952W        W37366   5.281   0.600  10.024  0.0874 -0.1943  0.2239
23953W        W37367  14.925   7.063   9.751  0.0668 -0.2059  0.1662
23954W        W37368  16.761   9.935  11.140 -0.1683  0.3730  0.2185
23955W        W37369   7.481  15.188   1.801  0.1031  0.0488 -0.2336
23956W        W37370   7.214  16.594   1.092 -0.0690 -0.2580 -0.0293
23957W        W37371   7.823   4.310  12.795  0.2069 -0.0542 -0.2138
23958W        W37372   3.362  16.049  10.989  0.1140 -0.2526 -0.1142
23959W        W37373  17.621  13.388  13.860  0.0428  0.2331  0.3888
23960W        W37374  16.749   4.498   2.427  0.1508  0.3228 -0.1641
23961W        W37375  13.678  15.463  13.976  0.1115 -0.4013  0.0634
23962W        W37376  11.310   5.393   3.618 -0.3520 -0.2090 -0.1726
23963W        W37377  15.835   7.415   0.227 -0.0659  0.1454 -0.2698
23964W        W37378   1.571   4.162   4.915  0.0030 -0.1609  0.0577
23965W        W37379   9.644   9.364   4.625 -0.3411 -0.0551  0.5149
23966W        W37380   1.544  12.635   1.793  0.3185 -0.0631 -0.1253
23967W        W37381  12.199  14.989   0.255 -0.0813  0.0355 -0.0936
23968W        W37382  13.100   1.893  15.642  0.1454 -0.0264 -0.1324
23969W        W37383   0.284  11.556   2.771  0.3937 -0.1834 -0.2967
23970W        W37384  13.889   7.882  16.432  0.1023  0.2100  0.0531
23971W        W37385  15.779  10.718   3.257 -0.0484  0.2339  0.1657
23972W        W37386  12.993  16.382  12.207  0.0619  0.3297  0.2265
23973W        W37387   2.960   5.985   1.732 -0.3416 -0.2667 -0.3695
23974W        W37388  14.114   1.297  15.188  0.3148 -0.2828  0.0555
23975W        W37389  11.251  12.997   1.102  0.0778 -0.2370 -0.2540
23976W        W37390   2.300   0.954  15.649  0.1073  0.2466 -0.4501
23977W        W37391   6.953   7.842   2.584 -0.2018 -0.4007 -0.2492
23978W        W37392   1.436   1.133   4.430  0.0476 -0.4400  0.0096
23979W        W37393  10.707  16.959   4.691 -0.0931 -0.0738  0.0183
23980W        W37394   9.550  11.223   4.278  0.1252 -0.0398  0.0562
23981W        W37395   1.522   8.027  14.623  0.0337  0.2224  0.1926
23982W        W37396  12.972  12.259  14.409 -0.1859  0.2311 -0.0730
23983W        W37397   0.703   0.722   5.350  0.0101  0.1073  0.1424
23984W        W37398  15.613  17.469  13.319 -0.1779  0.3024 -0.1143
23985W        W37399  17.529  16.541  15.452  0.1883  0.0646  0.1253
23986W        W37400   6.126  16.083   1.592  0.2576  0.2366 -0.1235
23987W        W37401   5.746   1.571  11.403  0.1168 -0.1432  0.1136
23988W        W37402   6.441   5.774  12.296 -0.0840  0.1586 -0.0953
23989W        W37403  13.028   9.685   1.285  0.1396  0.0241 -0.2652
23990W        W37404  18.064  11.549   2.380  0.2192 -0.0692 -0.1110
23991W        W37405   4.145  12.816   1.051  0.1747 -0.1054  0.1287
23992W        W37406   7.420   4.079   2.003 -0.0172 -0.0360 -0.0996
23993W        W37407  17.405  13.183   1.996  0.1166 -0.3449 -0.0812
23994W        W37408   9.210   0.528   3.552 -0.2219  0.1618  0.1508
23995W        W37409  14.325   2.405  13.197  0.3147  0.0252 -0.0170
23996W        W37410   8.531  18.245  15.491 -0.0839 -0.0046  0.0360
23997W        W37411   6.483  14.702  15.367  0.3834 -0.1028 -0.0856
23998W        W37412   0.163   8.630   5.227  0.3805 -0.0462 -0.0526
23999W        W37413   9.150   9.730   3.535 -0.0152  0.1622 -0.2616
24000W        W37414   2.788   8.196   4.541 -0.0945 -0.2293 -0.0874
24001W        W37415   2.526  13.334   3.289 -0.1298 -0.0433  0.0309
24002W        W37416  11.203   7.128   4.343 -0.0449 -0.1302  0.0846
24003W        W37417  11.137   7.265   5.803 -0.1798  0.0216 -0.1606
24004W        W37418  13.655  14.882   2.149 -0.3525  0.2501 -0.0130
24005W        W37419  14.098  11.648  16.416 -0.2943 -0.3085 -0.1770
24006W        W37420   3.738   2.777   0.315  0.0321 -0.1624 -0.1151
24007W        W37421   4.880  15.568   4.460  0.0136 -0.1880 -0.0517
24008W        W37422   0.494   2.801   2.571 -0.1674 -0.0868  0.2170
24009W        W37423  10.330  17.010   2.689 -0.1063  0.1927  0.1372
24010W        W37424   7.233   5.781   2.129  0.2455 -0.1153 -0.1008
24011W        W37425   2.696   5.371  16.448  0.0455  0.0150 -0.2066
24012W        W37426  12.606  17.989  11.046 -0.0677  0.0029 -0.1011
24013W        W37427   5.373  14.731   3.645  0.0008 -0.1689 -0.3608
24014W        W37428   0.647  12.252  13.228 -0.0221 -0.1416 -0.1089
24015W        W37429  10.616  13.699   6.635  0.0182 -0.0722  0.0946
24016W        W37430  16.224   1.439  12.648  0.0409 -0.0394  0.0193
24017W        W37431  12.832  13.550  12.749 -0.0437 -0.2385 -0.0550
24018W        W37432  17.699   4.321   4.917 -0.1640 -0.0452  0.0787
24019W        W37433  12.287   4.043   2.912  0.0658 -0.2545  0.1264
24020W        W37434   0.408  11.948   3.587 -0.1100 -0.0789  0.1783
24021W        W37435   1.500  10.078  13.690 -0.3507  0.3122 -0.0061
24022W        W37436   2.678  16.562   0.152 -0.0183  0.0989 -0.0050
24023W        W37437  15.198  11.802   0.725  0.2207 -0.2597 -0.2512
24024W        W37438   4.776  15.933  13.248  0.0631 -0.2395  0.0237
24025W        W37439   7.825  16.991   5.562 -0.0294 -0.0285  0.2884
24026W        W37440   4.838   9.832  13.323 -0.0187 -0.2509 -0.1161
24027W        W37441   6.847  15.637   4.918  0.2705  0.0101  0.1044
24028W        W37442  16.300  18.203   0.128  0.0177 -0.5079  0.2171
24029W        W37443  16.023   0.284  15.893  0.1607 -0.2239 -0.1209
24030W        W37444  16.296  17.296  11.454  0.0418 -0.0230  0.0765
24031W        W37445  18.150  10.249   3.604  0.0070  0.1642 -0.1812
24032W        W37446  11.759  17.443   3.152 -0.0713  0.0251 -0.1411
24033W        W37447   8.407   3.180   0.966 -0.1083 -0.0009  0.2931
24034W        W37448  15.756   7.808   1.025 -0.0896  0.0954 -0.0295
24035W        W37449  15.486  13.813   2.435  0.2048 -0.2051  0.0112
24036W        W37450   4.707   0.724   2.408 -0.0333  0.0169  0.0935
24037W        W37451   3.752  15.190  11.139  0.0697  0.2040  0.0652
24038W        W37452   3.244  14.979   2.769  0.4903 -0.1038 -0.0595
24039W        W37453   2.029  17.259  14.867 -0.0679 -0.0762 -0.1767
24040W        W37454   9.562   8.186  15.482  0.0879  0.0485 -0.1759
24041W        W37455   9.051  13.673   2.546  0.1245 -0.1034  0.5070
24042W        W37456  16.241  14.698   5.009 -0.1169  0.2309 -0.1264
24043W        W37457  13.156  10.951   3.140  0.2790 -0.0994  0.1265
24044W        W37458  10.515   1.065  10.746 -0.1166 -0.1404  0.2191
24045W        W37459   2.756  17.022   9.842 -0.0344  0.2100 -0.1272
24046W        W37460   1.078  12.897   6.262 -0.2667  0.0263  0.2774
24047W        W37461  11.708  17.900   3.788 -0.0459  0.0446  0.0467
24048W        W37462  11.288   6.940   0.482 -0.4115  0.0714 -0.2168
24049W        W37463  15.942   5.252   2.001  0.0239  0.0053 -0.1621
24050W        W37464   3.819  10.475   4.349 -0.1441  0.2927  0.1993
24051W        W37465   6.069  18.048  12.767  0.2941 -0.2603  0.1114
24052W        W37466  17.551   0.860   5.311  0.0416  0.2432  0.1823
24053W        W37467  10.957   1.953  15.053 -0.1188 -0.3361 -0.2486
24054W        W37468   6.398   3.299   2.878 -0.1471  0.1547 -0.0759
24055W        W37469  12.220  10.259   1.139 -0.1501  0.0486  0.2481
24056W        W37470  11.068   0.203   3.593  0.1317  0.2468 -0.0559
24057W        W37471  15.662  14.482   4.813  0.3171  0.3683  0.3013
24058W        W37472   1.642   2.986  14.242 -0.1694 -0.0520 -0.2245
24059W        W37473   7.310   9.562   0.454 -0.2027 -0.1177 -0.1016
24060W        W37474   7.734  16.109  12.222  0.0011 -0.1261 -0.0912
24061W        W37475   3.892  12.279  13.904 -0.0521  0.1036 -0.0969
24062W        W37476  17.647  11.928  14.132 -0.1945  0.0840 -0.0487
24063W        W37477   4.396   1.078   3.135  0.3143 -0.1939 -0.0497
24064W        W37478  15.989   9.140  11.808 -0.0533 -0.0654  0.3023
24065W        W37479   8.161   7.680   1.302 -0.1088 -0.5110 -0.1380
24066W        W37480   8.350   7.101  12.020  0.0267 -0.1372 -0.0092
24067W        W37481  15.920  12.424  11.596 -0.1244 -0.3136 -0.1765
24068W        W37482  12.251   8.216   1.384 -0.0620 -0.0475  0.0449
24069W        W37483  13.785   7.364   5.514 -0.3480 -0.1255 -0.3367
24070W        W37484   5.685  11.859   2.592 -0.1236 -0.0438 -0.1373
24071W        W37485  15.484  11.173   2.112  0.1407 -0.0631 -0.0471
24072W        W37486  12.594  18.161  14.549  0.2607 -0.0812  0.1217
24073W        W37487  13.735   2.438   4.545 -0.0557 -0.0990  0.1098
24074W        W37488   3.437   5.800   1.628 -0.2536  0.0727 -0.1950
24075W        W37489   0.057   9.336   3.524 -0.2483  0.1003 -0.1165
24076W        W37490   4.645   2.391   4.275  0.0967  0.1037 -0.4634
24077W        W37491   2.439   5.504  11.677  0.0875  0.2772 -0.1640
24078W        W37492  17.287  18.085  15.101  0.0453  0.0088 -0.0325
24079W        W37493   7.698   7.572  11.540 -0.1183 -0.1874 -0.3139
24080W        W37494  11.529  15.619  11.200  0.0931 -0.0740  0.0859
24081W        W37495   1.326   1.524  15.485 -0.2041 -0.2345  0.1243
24082W        W37496  13.878  16.365   0.247  0.0339  0.0818 -0.0077
24083W        W37497   4.617   2.409   4.863 -0.0628  0.0687  0.2693
24084W        W37498  15.436  16.213  14.522  0.1158 -0.1983 -0.1718
24085W        W37499   4.375  15.616   1.316 -0.0306 -0.0530 -0.1172
24086W        W37500   6.442  15.296  12.243  0.0404  0.2610 -0.0170
24087W        W37501  17.843   4.862   1.383  0.1728  0.2070  0.2075
24088W        W37502  15.850  10.895  14.119  0.2047 -0.0085 -0.1064
24089W        W37503   5.351  11.615  13.929  0.0421 -0.1361  0.0887
24090W        W37504  13.863   9.795  10.624 -0.1148  0.1473  0.0714
24091W        W37505  13.976   0.235  12.275 -0.0720  0.1182 -0.0543
24092W        W37506   1.087  14.754  12.919 -0.3042 -0.2820  0.0694
24093W        W37507   3.648   8.959  15.684  0.0986 -0.0646  0.3017
24094W        W37508  14.837  11.139  11.563 -0.1063 -0.1092 -0.0551
24095W        W37509   5.957  13.954   2.953 -0.1231  0.1770 -0.0353
24096W        W37510   0.895   4.585   1.066 -0.0839  0.0950  0.3792
24097W        W37511  17.816  12.866  14.082  0.1988  0.2210  0.1991
24098W        W37512  10.633   0.092  10.701  0.0303  0.1613  0.2629
24099W        W37513   3.484   5.117   4.527  0.0495 -0.2019  0.0679
24100W        W37514   0.287  15.371   1.770  0.1097  0.0674  0.0068
24101W        W37515   3.887   1.503   5.325  0.0323  0.2938  0.4104
24102W        W37516  12.855  10.882  12.837  0.0637  0.2483 -0.1558
24103W        W37517  12.995  13.208  15.706  0.0215  0.0914 -0.2324
24104W        W37518  10.818   2.369  12.376 -0.1628 -0.0682  0.1437
24105W        W37519  15.293   3.006  12.621  0.2555  0.2405 -0.0118
24106W        W37520  15.529   1.906  10.061  0.0354 -0.0778  0.0403
24107W        W37521  13.138   5.775  16.163  0.3650  0.4808 -0.3915
24108W        W37522   1.406  10.269  15.600 -0.0178  0.0192 -0.0459
24109W        W37523   8.117   1.271   1.726  0.1646  0.1517  0.2601
24110W        W37524  18.125   1.273  15.948 -0.0146  0.0335 -0.0651
24111W        W37525  17.638  12.555   2.857 -0.3303 -0.3127  0.3784
24112W        W37526   7.299   8.920  16.532 -0.0629 -0.0325  0.0772
24113W        W37527   3.874   5.986  10.657  0.1351 -0.0440 -0.1679
24114W        W37528   1.793   1.414  15.726  0.0187 -0.0373  0.0640
24115W        W37529   5.791  18.061  16.099  0.1154 -0.0069  0.0020
24116W        W37530   5.992   6.713  13.860  0.0321  0.0572  0.0139
24117W        W37531  11.465  10.854  13.431 -0.5573  0.2067  0.1011
24118W        W37532  17.467  14.395   6.143  0.2415 -0.1985  0.2661
24119W        W37533  11.406  11.790  16.159 -0.1494  0.0038  0.0199
24120W        W37534  13.158  12.648   5.939 -0.2622  0.1279  0.0352
24121W        W37535  15.425   1.851   2.135 -0.3424  0.1825 -0.0131
24122W        W37536   1.978   3.054  12.009 -0.2635  0.1620  0.4935
24123W        W37537  12.006   4.186  13.303  0.2408 -0.3046 -0.1636
24124W        W37538  17.973   5.755   3.868 -0.0319 -0.2029  0.2032
24125W        W37539   1.797   8.113  12.272  0.1553 -0.3789  0.0133
24126W        W37540   5.909   0.372  14.902 -0.0683 -0.2340 -0.0885
24127W        W37541   1.150  11.244   1.292 -0.1966 -0.0072 -0.1420
24128W        W37542   9.214  15.898  12.125 -0.2219  0.1300  0.0574
24129W        W37543   4.900  13.765   3.199  0.0507  0.3279 -0.1804
24130W        W37544  10.098   6.905  11.214  0.1712  0.1695  0.3575
24131W        W37545   2.179   7.089  16.472  0.0022  0.0499 -0.2562
24132W        W37546   1.501   6.487   2.844 -0.0169 -0.0132 -0.2686
24133W        W37547   6.306  16.050  12.630 -0.1267  0.1638 -0.2642
24134W        W37548  15.734   9.671  15.818 -0.0058 -0.3418 -0.0038
24135W        W37549  11.209   3.240   1.656  0.1688 -0.0652 -0.1284
24136W        W37550   8.508  15.102  11.669 -0.0869  0.3802 -0.1263
24137W        W37551  10.485  16.933   4.054 -0.2319 -0.1880 -0.0485
24138W        W37552   9.963   7.314  14.427 -0.0112 -0.1608  0.0218
24139W        W37553  11.129  17.581   5.219  0.2692 -0.2371 -0.1592
24140W        W37554   9.553   1.831  16.040 -0.0849  0.1468 -0.0356
24141W        W37555   6.111  15.421  15.930  0.2677 -0.0110 -0.2585
24142W        W37556  14.394   7.784  15.903 -0.4247  0.0178  0.0699
24143W        W37557   5.904   6.016  13.338  0.1504 -0.0222  0.1126
24144W        W37558   8.315   1.847   0.934 -0.0413 -0.0083 -0.0447
24145W        W37559  12.405   7.582  12.063  0.0898 -0.0545  0.0828
24146W        W37560   9.955   2.149  14.692 -0.1539 -0.0511 -0.2913
24147W        W37561   1.199  11.257   3.979 -0.3282 -0.0308 -0.0903
24148W        W37562  11.620  11.341   1.032  0.1090  0.0398 -0.2946
24149W        W37563  13.671   6.906   5.199 -0.2212  0.0860 -0.1317
24150W        W37564  11.073  15.332   1.123  0.1025  0.2698  0.0232
24151W        W37565  14.076  10.318   2.513 -0.0055 -0.0656 -0.0402
24152W        W37566  16.790   1.221   2.805  0.3055  0.1992 -0.2013
24153W        W37567   4.876  11.755   1.889 -0.0167 -0.0780 -0.1264
24154W        W37568   7.731  12.028  12.176  0.0338  0.0996 -0.1292
24155W        W37569   9.919   0.355  15.578 -0.1794 -0.0795 -0.0405
24156W        W37570  12.959  14.091   1.807 -0.0695 -0.0782 -0.0488
24157W        W37571  15.543   9.246   5.185  0.1846 -0.0894 -0.1798
24158W        W37572   7.277  10.131   4.040  0.0045 -0.2160 -0.0566
24159W        W37573  15.657  14.577   1.117  0.2105 -0.1577 -0.0164
24160W        W37574  12.914  18.279   0.258  0.3375  0.1028 -0.0346
24161W        W37575   9.515  10.443   3.136  0.1364 -0.1330 -0.0454
24162W        W37576   5.426   7.584   3.459  0.0863  0.2594 -0.2085
24163W        W37577   2.746  13.650  14.998  0.2933  0.1445 -0.0490
24164W        W37578   5.783  13.579  12.830 -0.1350 -0.0094  0.2401
24165W        W37579   3.674   9.142   2.409 -0.0731 -0.0117  0.0114
24166W        W37580  15.314  10.403  10.544 -0.0852  0.0177 -0.0177
24167W        W37581   5.625   4.133  15.054  0.1446 -0.0226  0.0272
24168W        W37582  15.028   2.593  12.428 -0.1798 -0.0896  0.0551
24169W        W37583   4.161  16.887   1.689  0.3359 -0.0080 -0.1417
24170W        W37584  13.292   0.739  11.227  0.1348 -0.0857  0.1973
24171W        W37585  14.949  15.777  13.208 -0.1153  0.0038  0.1308
24172W        W37586  11.223   0.951   2.319 -0.2314  0.2018  0.1815
24173W        W37587  14.382  13.877   6.949 -0.0776 -0.1574  0.0735
24174W        W37588   4.641   1.996   2.775 -0.0497 -0.3344  0.0526
24175W        W37589  12.322   0.497   1.804  0.2119 -0.0714 -0.1291
24176W        W37590   0.790  11.801   4.363  0.1480 -0.2612 -0.1240
24177W        W37591  17.861   4.685  13.788 -0.2437 -0.0210  0.2336
24178W        W37592  13.080  16.110   2.357 -0.1622 -0.0018 -0.3167
24179W        W37593  10.284   5.056  16.421  0.1474 -0.3354  0.1844
24180W        W37594  12.653   1.695   1.475 -0.0073 -0.2223  0.0913
24181W        W37595   0.866   9.544   1.051 -0.1100 -0.2840 -0.1947
24182W        W37596  18.263   8.304   1.631 -0.0566  0.0541 -0.0657
24183W        W37597  14.159  11.481  12.735 -0.0930 -0.2527  0.0173
24184W        W37598  12.050  13.060   4.640 -0.1835  0.0725  0.2317
24185W        W37599  16.215  14.256   0.393  0.0651 -0.2028 -0.1311
24186W        W37600  16.990   3.559  12.572  0.0287  0.0405 -0.0636
24187W        W37601  10.137   5.626  12.926 -0.0286 -0.0381 -0.0314
24188W        W37602  16.678  14.129  11.357  0.1263  0.3832 -0.1234
24189W        W37603   6.158  10.547  11.068  0.0017 -0.2096  0.3194
24190W        W37604   0.339  18.259   1.098 -0.0698  0.1996  0.2174
24191W        W37605   9.715   1.636  14.759  0.0373 -0.1161  0.0366
24192W        W37606   7.005   4.445   2.103  0.5507 -0.2788  0.2328
24193W        W37607   7.551   0.777   4.005  0.2911  0.0093  0.4018
24194W        W37608   2.982  16.454   3.098  0.0385  0.1163 -0.1042
24195W        W37609   9.895   7.389   1.179 -0.2174  0.0917 -0.0662
24196W        W37610  12.873   9.932  10.571  0.0234  0.0980  0.1146
24197W        W37611  18.185   3.454  13.019 -0.0945  0.0976 -0.1006
24198W        W37612   8.607  16.386  12.258  0.1492 -0.2066  0.0850
24199W        W37613   3.859   6.733  12.307 -0.1992 -0.2898 -0.0672
24200W        W37614   3.150   5.864  11.413 -0.2057  0.0506 -0.1432
24201W        W37615   2.928   3.908   4.558  0.2719  0.0384  0.2087
24202W        W37616  14.936   6.229   5.279  0.2714 -0.1875  0.1391
24203W        W37617   4.704  14.352  13.483  0.1722 -0.0778  0.0461
24204W        W37618  10.577   3.150   6.233 -0.2659  0.1877 -0.1816
24205W        W37619   7.057   4.140  14.480 -0.0919  0.2726  0.1059
24206W        W37620  15.614  13.210   4.243  0.1703  0.3244 -0.0840
24207W        W37621  10.392   5.841  14.549 -0.1371 -0.0242  0.0850
24208W        W37622   0.519  14.401   4.478 -0.4180 -0.0236  0.1649
24209W        W37623  17.419  11.580   0.426 -0.1272 -0.2313  0.1889
24210W        W37624  11.145  16.637  15.626 -0.1495  0.0305 -0.2439
24211W        W37625   8.777  10.322   2.755  0.0964 -0.1804  0.1296
24212W        W37626  16.889   6.497  13.107  0.2029  0.1359 -0.0229
24213W        W37627   6.698  17.345  12.276 -0.0785  0.1012  0.2497
24214W        W37628  17.628  16.031   4.101  0.0025 -0.3237  0.0863
24215W        W37629  13.340   0.915  13.205  0.2453  0.4134  0.1766
24216W        W37630  16.388   8.715  16.463  0.0088  0.0818 -0.2120
24217W        W37631  17.815  11.049   3.866  0.2046 -0.1591 -0.1703
24218W        W37632   0.850  10.997  11.736 -0.1409  0.0096 -0.1896
24219W        W37633   0.875  16.404  11.012  0.2432  0.2878  0.1890
24220W        W37634   4.492  15.368  10.788 -0.2079 -0.1899 -0.4193
24221W        W37635   4.217   3.628  12.043 -0.0482 -0.4257  0.1199
24222W        W37636  12.624   2.377  13.299 -0.2219 -0.0844 -0.0861
24223W        W37637   3.618  11.229   1.491  0.3073 -0.1714  0.2411
24224W        W37638  16.585   9.533   4.205  0.0685  0.2669 -0.5633
24225W        W37639   8.713   4.095   2.901  0.1046 -0.2315 -0.1467
24226W        W37640   2.938  15.954   4.118  0.0367 -0.1950  0.1117
24227W        W37641  11.337  10.093  11.616 -0.1768  0.0036 -0.1961
24228W        W37642  15.330   3.839   3.221 -0.0102 -0.2078  0.2518
24229W        W37643   7.442  13.654  13.401  0.1254  0.0740 -0.0854
24230W        W37644  16.971   4.269   1.015 -0.3002  0.2266 -0.3639
24231W        W37645  12.695  12.657   0.157 -0.0345  0.0220 -0.1536
24232W        W37646   2.253   4.613  15.686 -0.1276 -0.0687 -0.1702
24233W        W37647   6.055   0.842  14.098  0.0243  0.0149 -0.0692
24234W        W37648   6.157   9.831  10.809  0.0026 -0.2980  0.1100
24235W        W37649   3.069  10.938   2.864  0.0708  0.1449 -0.2743
24236W        W37650  16.955  11.414  13.815  0.1219  0.3432 -0.0417
24237W        W37651   0.748   2.213  15.121 -0.0670  0.1614 -0.1764
24238W        W37652  14.909   0.377   4.989 -0.0491  0.0855  0.0376
24239W        W37653   7.467  11.933   3.830 -0.0488 -0.2268  0.0397
24240W        W37654   8.352  11.839   5.229  0.4547  0.2298 -0.0820
24241W        W37655  16.770   7.574  13.328  0.1347 -0.0679 -0.0918
24242W        W37656  15.327   2.117  12.215  0.0208 -0.2812  0.1032
24243W        W37657   4.178  17.458   0.493  0.1478  0.0262 -0.0086
24244W        W37658  16.715  11.902  11.771 -0.2544 -0.0372 -0.2369
24245W        W37659   0.445   0.863  13.790 -0.0379 -0.0949 -0.2944
24246W        W37660   6.224   3.681  15.584 -0.2668  0.0667  0.1749
24247W        W37661  10.057   7.279  13.860  0.3111 -0.0061  0.0097
24248W        W37662  13.249   8.020  15.510  0.3007  0.0119 -0.2146
24249W        W37663  12.393  10.967  15.872 -0.1499 -0.0013 -0.2021
24250W        W37664   4.561  13.778   4.716  0.4249  0.0976 -0.0354
24251W        W37665   7.015   5.127   3.301  0.0072  0.3272  0.0072
24252W        W37666  18.056   6.616  13.652  0.1274  0.0718  0.0936
24253W        W37667   1.683  11.368  13.476 -0.3671 -0.3053  0.4238
24254W        W37668  10.489  14.569  16.085 -0.1943 -0.0957  0.0776
24255W        W37669  16.510   8.366   1.517  0.1179 -0.0067 -0.2305
24256W        W37670  15.934   6.710  15.447 -0.1074  0.0503  0.1362
24257W        W37671   6.666   7.296   1.469 -0.1795  0.3295 -0.0147
24258W        W37672   7.781   1.746   0.883 -0.0604  0.0502 -0.0167
24259W        W37673   3.272   5.589   3.376 -0.1392 -0.2010 -0.0803
24260W        W37674  15.267  11.600   5.284  0.1551 -0.2570  0.0091
24261W        W37675  15.788  13.857  11.763  0.3222  0.1079  0.0589
24262W        W37676  12.255  17.705  13.485 -0.2720 -0.0180 -0.1608
24263W        W37677   6.340   4.535   0.268  0.0268 -0.0625  0.0024
24264W        W37678   6.677  10.319   1.196 -0.1770  0.1749  0.2144
24265W        W37679  11.018  16.816   0.164 -0.0516  0.1872 -0.2972
24266W        W37680  15.993   9.351   3.364  0.3459  0.1072 -0.2801
24267W        W37681   8.395   2.964  15.819 -0.0603  0.4651  0.0135
24268W        W37682   6.433   6.566   5.138  0.3818  0.3616 -0.1222
24269W        W37683   0.039   7.953   3.573  0.0053  0.0528  0.1317
24270W        W37684   3.613   1.028   5.405 -0.0385  0.0058 -0.0094
24271W        W37685  15.656  16.579  14.811 -0.0564  0.3207  0.2113
24272W        W37686  14.557  11.777  12.770 -0.1300 -0.1557 -0.1430
24273W        W37687  14.628  10.590  15.299 -0.4898  0.1364 -0.2778
24274W        W37688  10.746   4.878  15.275 -0.0660  0.0105  0.0775
24275W        W37689  13.276   2.256  11.677 -0.1027  0.2270 -0.4601
24276W        W37690  17.413  12.919  15.849  0.0693  0.1720  0.3291
24277W        W37691   5.953   3.411  13.828 -0.0003 -0.1352 -0.0799
24278W        W37692  13.836   3.691  14.536  0.1846 -0.0592  0.0862
24279W        W37693  14.924  14.585   2.240 -0.2480  0.1050 -0.1000
24280W        W37694  15.808   2.974  15.449 -0.0270  0.1615 -0.0508
24281W        W37695  17.775   5.995   1.287 -0.0484 -0.3626 -0.1861
24282W        W37696   0.035   4.976  11.431 -0.1801 -0.1296 -0.1911
24283W        W37697  13.528   2.945   5.817 -0.1141  0.0136 -0.1927
24284W        W37698  16.734  13.438  16.240  0.1357 -0.1985  0.0378
24285W        W37699  12.998  17.403  13.699  0.0380  0.2687 -0.2813
24286W        W37700   5.145   7.402   0.012 -0.4609  0.0667  0.2322
24287W        W37701  17.870   7.224  11.767  0.0899 -0.0489  0.1536
24288W        W37702   8.407  11.328   3.875 -0.0447  0.0245  0.0645
24289W        W37703   3.374  15.099  14.624  0.0408  0.2626 -0.1397
24290W        W37704   4.279   5.861  15.959  0.2404  0.1259 -0.0038
24291W        W37705  11.203   4.044   0.088  0.0452 -0.3861  0.1412
24292W        W37706   5.688  16.126  14.488  0.1681 -0.2082  0.0553
24293W        W37707  13.238   8.917   2.787 -0.3381 -0.3423  0.0781
24294W        W37708   8.626   4.977   4.238  0.0497  0.2990  0.2084
24295W        W37709  12.816   6.386   0.528 -0.1194  0.2260  0.1372
24296W        W37710  10.561  15.837   2.847  0.0629  0.0451  0.2817
24297W        W37711   1.004   8.475  16.353  0.3367 -0.0110 -0.0711
24298W        W37712   8.229   0.348  13.479 -0.1677 -0.0186  0.0120
24299W        W37713  17.549   4.071  15.507 -0.3026 -0.1441  0.0776
24300W        W37714  12.065   6.748   2.770  0.0100  0.0242 -0.0101
24301W        W37715  17.496   5.681  12.332  0.1375 -0.0440  0.2100
24302W        W37716   8.876   1.802   1.400  0.2332  0.1265 -0.3504
24303W        W37717  15.765  16.747  12.958 -0.0352  0.0274  0.5321
24304W        W37718  18.080  13.419   5.369  0.1419 -0.2001 -0.4474
24305W        W37719  16.378  12.608  15.068 -0.1587 -0.0636 -0.0225
24306W        W37720   8.253   0.436   2.261 -0.1435 -0.1073 -0.0559
24307W        W37721   1.858   7.260  12.229  0.2471  0.1985 -0.2010
24308W        W37722  12.565   9.161  16.074 -0.1331  0.1398  0.2795
24309W        W37723   5.713   4.319   1.004  0.0007  0.2768 -0.0029
24310W        W37724  16.378  15.316   2.285  0.2106  0.1903  0.2549
24311W        W37725   3.366   9.008   1.137  0.1316 -0.0830  0.0229
24312W        W37726   4.375   5.151   5.300 -0.2350 -0.2118 -0.2425
24313W        W37727   4.724   7.850  12.903 -0.2551 -0.0623  0.0165
24314W        W37728   0.133   3.497   5.796  0.0010 -0.0624 -0.0567
24315W        W37729   0.728  13.380  12.413  0.4921  0.3045 -0.0838
24316W        W37730  11.715  14.118  14.689 -0.1990 -0.2203  0.2752
24317W        W37731  10.900   4.678   4.425 -0.0144  0.2085  0.0205
24318W        W37732   4.450   6.761  10.442  0.2850  0.0647 -0.0711
24319W        W37733   9.753   8.496  12.513  0.2300  0.0659 -0.2091
24320W        W37734   5.522   8.199   0.998  0.2275 -0.3039 -0.1068
24321W        W37735   8.208  13.756  15.213  0.2502  0.0939 -0.3105
24322W        W37736  18.059  11.557  13.379 -0.3106  0.0319  0.0591
24323W        W37737   0.099   1.778   1.709  0.2510 -0.0311  0.0731
24324W        W37738   0.799   8.709  13.776 -0.1618  0.0007 -0.0074
24325W        W37739  13.496  10.676   1.874 -0.0451 -0.1084  0.1214
24326W        W37740  11.483   8.705  11.019  0.2806  0.0870 -0.1014
24327W        W37741  14.300  11.867   2.294  0.0689 -0.0829 -0.1968
24328W        W37742  14.907  16.642  11.145  0.0953 -0.0204 -0.1145
24329W        W37743  11.153  16.292  11.254  0.0304  0.0603  0.0286
24330W        W37744   3.274  10.109  14.524 -0.1626 -0.3418 -0.1075
24331W        W37745  14.942   1.177   2.173 -0.2927 -0.0810  0.2003
24332W        W37746  16.480   4.477  16.189  0.1332  0.1505 -0.0014
24333W        W37747  11.868   0.319  10.458 -0.1540  0.0050 -0.0328
24334W        W37748   5.995   2.974  15.674  0.0670 -0.2460 -0.0413
24335W        W37749  15.153   4.156  16.056 -0.1288 -0.2669  0.1440
24336W        W37750   4.637   9.991  12.135 -0.2239 -0.3045 -0.4786
24337W        W37751  16.546   7.167  12.575  0.2648  0.0326 -0.1706
24338W        W37752   6.391   4.071  11.529  0.0774  0.0974 -0.1057
24339W        W37753  10.811  12.085   4.284  0.1793 -0.0533  0.0285
24340W        W37754   2.959   0.144  13.174  0.0981  0.1017 -0.0072
24341W        W37755  17.870  11.829  16.348 -0.0478 -0.2050  0.4547
24342W        W37756   8.098   5.777   2.360  0.1969  0.5136  0.2041
24343W        W37757  10.555  15.602  12.581  0.1191  0.0266 -0.1037
24344W        W37758  14.733  13.538  12.980 -0.1558 -0.1367  0.3296
24345W        W37759  17.477   9.484   3.119 -0.3609  0.2170  0.1788
24346W        W37760   3.046  16.666   4.874  0.0181  0.1658  0.0029
24347W        W37761  14.979   7.431   0.291  0.1037 -0.2303  0.0779
24348W        W37762   4.104  13.393   1.741  0.2449 -0.0540  0.0403
24349W        W37763   1.450  12.919   5.586 -0.0527  0.1391  0.0259
24350W        W37764   7.554   0.541   2.935  0.0859  0.0805 -0.0981
24351W        W37765  17.979   3.556  12.503  0.2218 -0.0758 -0.0296
24352W        W37766   6.626   1.060  13.010  0.0017 -0.0291 -0.0573
24353W        W37767  15.763  11.550  16.075 -0.0632 -0.4977 -0.2633
24354W        W37768   8.701   0.345   0.553  0.2614  0.3209  0.0599
24355W        W37769  12.220   7.031   4.059  0.0100 -0.0636 -0.1353
24356W        W37770  16.143  12.824  13.624 -0.3033  0.0996 -0.1588
24357W        W37771  15.869   8.998  10.429  0.1977 -0.0068 -0.2749
24358W        W37772  14.424  14.005  13.873 -0.1539 -0.1659  0.4341
24359W        W37773  17.388   6.542  15.712  0.2438 -0.3303  0.0403
24360W        W37774   1.659   6.614  15.257 -0.2858 -0.2466  0.2002
24361W        W37775   8.334   8.227   1.189 -0.1610 -0.0133 -0.0304
24362W        W37776  15.744  10.526   1.158  0.1428 -0.0449  0.1500
24363W        W37777  14.972   5.077   3.082  0.0469 -0.2308 -0.1397
24364W        W37778  16.897   8.743   0.659  0.0168 -0.1236  0.0482
24365W        W37779   4.235   1.453   2.611 -0.0745 -0.3019  0.1258
24366W        W37780   3.306  13.022  11.903  0.1984 -0.1806  0.0018
24367W        W37781   3.170   0.048  10.468  0.0698 -0.0147 -0.0720
24368W        W37782  16.412  11.355   2.055 -0.2093 -0.0025 -0.2414
24369W        W37783  11.455   7.644   0.449 -0.0877 -0.0326 -0.0263
24370W        W37784   6.308   1.939   0.220 -0.3671 -0.0398 -0.1819
24371W        W37785  18.271   8.359  12.290 -0.0938  0.2850 -0.0622
24372W        W37786   3.905  17.882   0.238  0.0182  0.3180 -0.4015
24373W        W37787   5.736   3.386  12.030  0.1400  0.1827 -0.1568
24374W        W37788  17.317  16.477   3.957 -0.1369  0.3287  0.0315
24375W        W37789   3.079  14.693   2.303  0.0829 -0.1152 -0.0967
24376W        W37790  11.744  12.122  15.854 -0.2539 -0.0060 -0.1855
24377W        W37791  14.327  10.673  12.634  0.1831  0.4798  0.0332
24378W        W37792   4.610  15.283  14.616 -0.1963  0.0892 -0.0051
24379W        W37793   6.755   3.297  11.914  0.0617  0.1479  0.1099
24380W        W37794  15.755   2.779   0.171  0.0301 -0.2370 -0.1818
24381W        W37795   1.096   4.968   6.006  0.0201  0.0300 -0.3482
24382W        W37796  17.533   9.871   5.140 -0.1013 -0.0495  0.1873
24383W        W37797   1.862  11.406   5.847 -0.1296  0.3471 -0.0859
24384W        W37798   8.346  10.380  14.053  0.0396  0.0719  0.2879
24385W        W37799  17.639  10.067   3.583  0.1054  0.1059 -0.0111
24386W        W37800  11.720   1.335   5.419 -0.1960 -0.0813 -0.0365
24387W        W37801  16.700  13.911   0.830 -0.3018  0.0062  0.1167
24388W        W37802   4.914  14.031  12.079 -0.0488  0.1388  0.1745
24389W        W37803   3.779   6.597  11.825 -0.0374 -0.3008  0.1763
24390W        W37804   7.840   6.140   5.619 -0.2489 -0.1069 -0.2377
24391W        W37805  10.243   6.107  12.854 -0.2729  0.2068 -0.0093
24392W        W37806   7.142  15.556   1.928 -0.1394  0.0572  0.0435
24393W        W37807   6.151   1.611   3.428  0.1523  0.0411  0.2048
24394W        W37808  12.463   0.777   0.898  0.1685 -0.1467  0.0042
24395W        W37809   3.700  16.692   1.399  0.1203  0.0077  0.0478
24396W        W37810   1.397   4.654   1.579 -0.1274  0.2666  0.0368
24397W        W37811  14.445  17.164   5.478  0.2567 -0.0528 -0.2087
24398W        W37812   0.108  17.143  15.611  0.0727  0.1665 -0.1481
24399W        W37813  16.132   6.612   3.355  0.0235 -0.1568  0.0619
24400W        W37814   6.125   2.070   4.027 -0.0588  0.0458  0.2506
24401W        W37815  15.587   4.975   0.997 -0.2035 -0.2539 -0.5196
24402W        W37816   7.504   8.935  11.819  0.0907 -0.3793 -0.2838
24403W        W37817   4.957   0.109   2.765  0.1731  0.1271 -0.3063
24404W        W37818  14.110   1.918  12.172 -0.3408  0.3261 -0.1632
24405W        W37819   1.364  15.957   0.047 -0.1957  0.2028 -0.0527
24406W        W37820  14.558   5.739  12.513  0.0333  0.0908 -0.1006
24407W        W37821   3.574  15.833  14.117 -0.0823 -0.1537  0.0434
24408W        W37822  11.594   6.052   0.735  0.2396  0.3203 -0.1195
24409W        W37823   8.663   7.053  15.230 -0.0268 -0.0099 -0.2139
24410W        W37824  10.428   7.050  15.554  0.2312 -0.1186 -0.0244
24411W        W37825   3.202  17.846  13.825 -0.1092 -0.0252  0.2535
24412W        W37826   9.571   8.078   2.596  0.0247  0.0015  0.3550
24413W        W37827  13.307   9.028  15.550  0.1548  0.1567 -0.3736
24414W        W37828  13.062   6.900  16.348 -0.1160 -0.1076 -0.0071
24415W        W37829  13.399   4.265  11.759 -0.0899 -0.1035 -0.0670
24416W        W37830   6.144  12.939   1.939  0.0892  0.0248 -0.0750
24417W        W37831   0.496   3.770   1.468  0.0770 -0.0220  0.3702
24418W        W37832  11.854  15.792   0.717  0.0928  0.1389 -0.1412
24419W        W37833  13.011  17.434   0.451 -0.2623  0.1751  0.2103
24420W        W37834   0.046  10.830  16.065 -0.1591  0.0359  0.2865
24421W        W37835  13.543  12.264  14.446 -0.0490 -0.3642 -0.3497
24422W        W37836   3.669  10.712  13.203 -0.2141 -0.0153 -0.0402
24423W        W37837   3.260  15.180  12.047  0.0270 -0.1451 -0.2395
24424W        W37838   3.868  10.723   0.190  0.4306  0.1556  0.0056
24425W        W37839   9.862   7.478   4.560  0.0096 -0.1206  0.1475
24426W        W37840  15.951  10.788  12.480 -0.1418 -0.0545  0.0800
24427W        W37841  10.137  12.649  10.836  0.0902  0.1651  0.0067
24428W        W37842   8.794  10.602   4.248 -0.5541 -0.0927 -0.0484
24429W        W37843   3.284   6.269   6.151 -0.0502 -0.2450  0.1792
24430W        W37844  12.298   3.506   0.923  0.1978  0.0266 -0.0462
24431W        W37845   5.746  12.056   4.487 -0.1489 -0.3135  0.0530
24432W        W37846   4.492   3.454   0.545 -0.0084  0.1766  0.0220
24433W        W37847  10.026   9.577   3.748 -0.3958 -0.2806 -0.2109
24434W        W37848   8.372   8.398  11.793 -0.2053 -0.1948  0.2031
24435W        W37849   5.394  12.095  16.114  0.1988  0.0980  0.3113
24436W        W37850   3.139  16.792   5.822  0.1973 -0.0225  0.1128
24437W        W37851   6.205  16.391  15.158 -0.0317  0.0725  0.2521
24438W        W37852   5.860   9.639   1.975  0.1147  0.2415 -0.0982
24439W        W37853   4.997   3.072  15.414  0.0528  0.1895  0.0732
24440W        W37854   3.772   5.595   3.493  0.0018 -0.1090  0.2464
24441W        W37855   8.126   0.152  11.642 -0.0581  0.0667  0.1289
24442W        W37856   8.511  11.331  14.564  0.2475 -0.1632 -0.1477
24443W        W37857   2.024   4.908  11.110 -0.0670 -0.0935 -0.0511
24444W        W37858   5.878  11.970  11.332 -0.2538 -0.1086 -0.1312
24445W        W37859  16.525   3.370   4.433  0.1164  0.3045  0.2938
24446W        W37860   5.905  11.620  12.376  0.0650  0.1702  0.0137
24447W        W37861   0.790  15.240   1.503 -0.1375 -0.1780 -0.2636
24448W        W37862  11.291  12.771   3.942 -0.1611  0.0715  0.0561
24449W        W37863  12.718   7.205  16.515  0.3475 -0.0569  0.1432
24450W        W37864  11.428   4.089   5.532 -0.0064  0.0932  0.0856
24451W        W37865  10.988  10.115  16.472 -0.0735  0.3420  0.0370
24452W        W37866   4.803   4.353   3.881 -0.0214  0.2676  0.1736
24453W        W37867   7.391   9.233   4.005  0.0164  0.2854 -0.0969
24454W        W37868   1.277  10.213  16.410 -0.0646  0.0613 -0.0158
24455W        W37869   8.655   9.045  10.593  0.0648  0.0420 -0.2305
24456W        W37870   3.634  10.526  14.393  0.1931  0.0592  0.1922
24457W        W37871   3.308  15.540  12.391  0.0727 -0.1745  0.0540
24458W        W37872  16.000   0.589  16.374  0.0785  0.1141 -0.2420
24459W        W37873   3.085  11.165  13.847  0.1463  0.2934  0.1972
24460W        W37874  10.173  14.386   3.598 -0.0857  0.0165  0.2099
24461W        W37875   4.249   3.404  11.454  0.0916 -0.1241  0.1211
24462W        W37876  13.213  17.883  12.005  0.2255 -0.5208  0.2997
24463W        W37877   5.650  12.134   5.309 -0.0980 -0.1152  0.1931
24464W        W37878   4.712   5.627   1.445 -0.0964  0.1109  0.2158
24465W        W37879   0.320   2.520  15.303  0.1007 -0.0352  0.1060
24466W        W37880   7.312  14.998   2.338  0.2098 -0.1803 -0.0808
24467W        W37881   3.912  12.006   0.818 -0.0308 -0.2308  0.0480
24468W        W37882  12.742   8.762   1.216  0.0258 -0.1160  0.1838
24469W        W37883   7.141  12.918  14.806 -0.2110  0.3380  0.1148
24470W        W37884  14.364   8.177  10.263 -0.1057 -0.0200  0.1724
24471W        W37885  11.772  17.746   2.760  0.0148 -0.2599 -0.1322
24472W        W37886  16.979   8.332   4.706  0.0479  0.1416  0.0999
24473W        W37887  15.208   3.001  11.710  0.1404  0.0865 -0.0327
24474W        W37888   2.464   9.233  15.089  0.2298 -0.0492 -0.1755
24475W        W37889  10.668  11.641   2.564 -0.4461 -0.1855  0.2734
24476W        W37890  12.817   9.052   0.404 -0.2406 -0.0033 -0.2424
24477W        W37891  17.159  17.421   6.251  0.1362 -0.0353 -0.0668
24478W        W37892   2.307   0.394  10.847  0.2405  0.0334 -0.1378
24479W        W37893  11.295  17.152  12.383  0.3035 -0.2544 -0.2604
24480W        W37894   4.271  11.278   1.883  0.0647 -0.1072  0.0812
24481W        W37895  15.247  14.507  14.056  0.2347  0.0320  0.0448
24482W        W37896  15.259  14.863  11.241  0.0727 -0.1651  0.1408
24483W        W37897   1.735  12.638   0.856  0.0961  0.1757  0.2845
24484W        W37898  14.349  15.355   1.652 -0.2092 -0.1151 -0.0591
24485W        W37899  12.537   0.663  12.827  0.2003  0.0515  0.1331
24486W        W37900   7.676  15.274   5.372 -0.2491  0.0044 -0.2422
24487W        W37901   0.242   4.274  10.754 -0.3374  0.5745  0.0306
24488W        W37902   8.682  16.965  11.298  0.0258  0.1336  0.1477
24489W        W37903  18.005   5.831  15.263 -0.1219  0.0400 -0.0385
24490W        W37904   3.505  15.284   3.217 -0.1413 -0.1992 -0.1453
24491W        W37905  17.939  13.265  14.327  0.0954 -0.1506  0.1807
24492W        W37906   8.641   4.292  14.245  0.1489  0.2482  0.0909
24493W        W37907   5.786   6.355   2.444  0.0282  0.0002 -0.1744
24494W        W37908   6.200  10.771   2.666 -0.2681  0.2628  0.1285
24495W        W37909  17.058   0.110  14.096 -0.1707 -0.3514  0.0850
24496W        W37910  11.196  16.146  12.069 -0.0465 -0.0920 -0.0598
24497W        W37911   4.440  16.361   2.850 -0.0843  0.1096 -0.1460
24498W        W37912   2.349  12.878   4.629 -0.2013  0.1202  0.0906
24499W        W37913   9.974  11.240  13.469  0.3417  0.2356 -0.2201
24500W        W37914   0.559  10.699  14.303  0.0328  0.0360 -0.1424
24501W        W37915  12.051  11.084   3.277  0.2003 -0.0258  0.1649
24502W        W37916   8.530  18.108   3.972  0.0286 -0.1255  0.1323
24503W        W37917   5.937  10.357   1.640  0.2359 -0.3889  0.1067
24504W        W37918   0.917  13.781  11.493  0.2301 -0.2853 -0.1200
24505W        W37919  10.773   4.376   0.887  0.1243  0.0086  0.1818
24506W        W37920   4.615   4.787  11.370  0.0021  0.0552  0.1138
24507W        W37921  15.404  13.484  11.841  0.1208  0.1424  0.1208
24508W        W37922  10.722  10.961   1.041  0.0070 -0.2030  0.0655
24509W        W37923  12.538   4.910   3.454  0.0557  0.1023 -0.2589
24510W        W37924  13.859   8.901   3.448  0.0830 -0.0891  0.7121
24511W        W37925   1.507  15.687   2.995  0.1644 -0.2672  0.2196
24512W        W37926   5.372  17.596   0.323  0.1372  0.1232 -0.3181
24513W        W37927  15.618  17.703   3.174 -0.0333  0.2389 -0.0524
24514W        W37928   0.306  12.476   3.669 -0.0852 -0.1394 -0.1694
24515W        W37929  15.636  11.462   3.030 -0.0077 -0.0194 -0.1268
24516W        W37930  18.226   1.942   3.426 -0.0060 -0.1141  0.1275
24517W        W37931   6.721   0.667  14.768  0.0144  0.3424  0.0435
24518W        W37932   0.778   0.805  15.070  0.3704 -0.3659 -0.0999
24519W        W37933   7.509   4.954   5.306  0.1318  0.3397 -0.3844
24520W        W37934  14.952   5.234   3.553 -0.2156  0.1559 -0.0096
24521W        W37935  16.389   0.640   0.770  0.3142  0.0918  0.3243
24522W        W37936   5.934   5.367  12.162 -0.0207 -0.0945 -0.0489
24523W        W37937   4.339  16.656  14.254 -0.1603  0.0446  0.0381
24524W        W37938  13.966  13.918  13.436  0.1236  0.0838 -0.1963
24525W        W37939  15.634  13.112   1.914  0.0702  0.0007  0.0743
24526W        W37940  14.830  13.344  14.336  0.0754  0.2630 -0.0955
24527W        W37941   3.933   0.011   0.512 -0.0447  0.2247 -0.0977
24528W        W37942  12.412   9.425  14.736 -0.0938 -0.0713 -0.1228
24529W        W37943   0.410  10.710   2.579 -0.2020  0.2780 -0.2683
24530W        W37944   8.900   2.235   5.521 -0.1481 -0.1720 -0.1005
24531W        W37945   4.282  17.873   3.028 -0.4634 -0.1273 -0.1071
24532W        W37946  13.010   1.755   5.254  0.2092  0.0643 -0.1801
24533W        W37947   9.102   4.892   1.277  0.1837  0.0635  0.3251
24534W        W37948  16.546   3.807   3.695 -0.0312  0.1291 -0.1772
24535W        W37949   0.993  17.214  13.433 -0.1330  0.1562 -0.1547
24536W        W37950  15.069  16.525  14.684  0.0825 -0.0033  0.0617
24537W        W37951  14.402  14.407   3.156 -0.0058  0.5014 -0.3372
24538W        W37952  14.082  15.027   4.480  0.1669 -0.2540 -0.4414
24539W        W37953  16.655   1.986  15.806  0.2737  0.1648  0.0024
24540W        W37954   9.074   4.506  14.052 -0.3141  0.2463  0.0459
24541W        W37955   1.667   6.058   5.209 -0.1288 -0.0352  0.1111
24542W        W37956   7.614   8.918   2.311 -0.3264  0.2089 -0.0052
24543W        W37957  13.125   3.481   0.302  0.0374  0.2129  0.2575
24544W        W37958  12.657   1.424  11.546 -0.1577  0.0519  0.1908
24545W        W37959   7.797   9.255   4.295 -0.0616 -0.1444 -0.1934
24546W        W37960  11.415   2.390   4.585  0.1257  0.2281 -0.4199
24547W        W37961  10.776   0.653  16.503  0.0348 -0.1342 -0.0841
24548W        W37962   6.794   6.850   0.289  0.1721  0.4509  0.1540
24549W        W37963  16.545   8.249   3.145 -0.1172 -0.1502 -0.1425
24550W        W37964  11.627  13.239  11.594 -0.1769 -0.1999  0.2124
24551W        W37965   5.536   6.895  15.088  0.0360  0.1185 -0.1999
24552W        W37966  14.483  13.092   3.768  0.2000  0.1364 -0.2204
24553W        W37967  13.662  13.743   0.834 -0.0541 -0.1622 -0.1045
24554W        W37968  10.439  10.894   1.499 -0.1799  0.3999  0.0328
24555W        W37969  11.570   8.880  10.545  0.0110 -0.1208  0.1948
24556W        W37970   4.956   9.732   5.493 -0.1036 -0.1526 -0.0373
24557W        W37971   9.804  16.197   0.751  0.1620 -0.2401  0.0698
24558W        W37972  16.177  13.377  12.409  0.0113 -0.0258  0.1655
24559W        W37973  16.273   0.319  12.150  0.3698 -0.1293  0.1055
24560W        W37974   1.331   8.953  11.365 -0.0340 -0.0463 -0.0688
24561W        W37975   6.321  11.429  14.310 -0.2296  0.2194 -0.0772
24562W        W37976  12.224   4.486   0.663  0.3622 -0.0775  0.0668
24563W        W37977   1.749  10.700  14.692  0.2039  0.0889  0.4315
24564W        W37978   1.961   5.081  12.524  0.1085  0.1139 -0.0114
24565W        W37979   7.515  17.225  16.057  0.2070  0.0679  0.2002
24566W        W37980  17.268  17.603  16.185 -0.2152 -0.2567  0.0932
24567W        W37981   9.167  16.247  10.963 -0.0869 -0.0942  0.0820
24568W        W37982   0.623   1.505  14.529 -0.0746 -0.0943  0.2892
24569W        W37983  17.534   7.772   2.608 -0.0067 -0.0907 -0.3461
24570W        W37984   6.603   3.104   2.445 -0.3480 -0.1030  0.3265
24571W        W37985   9.591  16.448   3.468  0.2275 -0.1402 -0.2252
24572W        W37986  16.047   7.371   3.026  0.0312  0.0105  0.0555
24573W        W37987   3.340  16.001  11.627  0.0834 -0.1048 -0.0678
24574W        W37988   1.553   4.712  12.594  0.2340 -0.0923 -0.2307
24575W        W37989   0.549   4.879  11.535  0.0491  0.2935  0.3566
24576W        W37990   1.929  11.731  13.142  0.0351 -0.1270  0.0439
24577W        W37991   3.900  12.565   4.875  0.4936  0.3438  0.3256
24578W        W37992   4.797  17.621   0.321  0.0454 -0.4324 -0.0563
24579W        W37993   5.808   0.414  14.139 -0.0116 -0.0395  0.3598
24580W        W37994   8.313   1.708  13.820  0.1606 -0.0645 -0.1103
24581W        W37995  15.781  14.397  14.138 -0.0532  0.1617 -0.2098
24582W        W37996   4.903   2.626   0.112 -0.0170  0.1942 -0.0339
24583W        W37997  13.068   6.044  12.099  0.0459 -0.0582 -0.0403
24584W        W37998  10.846   0.539   4.768  0.0341  0.2061  0.1090
24585W        W37999   7.750  15.533   4.905  0.1496 -0.2290 -0.2581
24586W        W38000  10.680  14.342  14.112  0.4349 -0.3122 -0.3581
24587W        W38001   2.605  12.400   1.874  0.2174 -0.0799 -0.0106
24588W        W38002   5.256   6.267   3.004  0.1332  0.0049 -0.1262
24589W        W38003   1.188   7.522  12.515 -0.2714 -0.0114  0.2983
24590W        W38004   9.575  14.004  11.275 -0.0655 -0.3186 -0.0542
24591W        W38005  11.024  10.564   5.981  0.1403  0.1578  0.1529
24592W        W38006  10.546   0.930   3.377  0.1510  0.1042  0.1066
24593W        W38007   4.317  11.458   0.257  0.1815 -0.0131  0.0731
24594W        W38008   3.527  17.261   2.861 -0.1224  0.3065  0.2575
24595W        W38009  11.059  14.392   4.653 -0.1430  0.1367 -0.1264
24596W        W38010  12.968   9.757  14.224  0.1138 -0.0598  0.1783
24597W        W38011  12.460   7.845  14.731  0.0331 -0.3039 -0.2231
24598W        W38012   7.708   4.901  11.203 -0.1080  0.2856 -0.1246
24599W        W38013   5.537  11.754  13.272  0.1366  0.0150  0.1140
24600W        W38014   0.218  15.624  15.640  0.1623  0.2440  0.1394
24601W        W38015   3.363   5.045  15.840  0.0847  0.2232 -0.0901
24602W        W38016   3.224   1.118  13.841 -0.0494  0.0533 -0.0250
24603W        W38017  10.123  12.990   3.985 -0.0012  0.3904  0.0867
24604W        W38018  11.060  12.276  12.361 -0.1525 -0.0092 -0.0925
24605W        W38019   6.656   7.604  12.683  0.0462  0.1967  0.0130
24606W        W38020  15.461  10.320   4.035  0.1555 -0.1647 -0.1100
24607W        W38021   3.477  16.037  13.404  0.1971 -0.1263  0.0845
24608W        W38022  13.789  15.944  12.488  0.0209  0.3389  0.2994
24609W        W38023   4.233   3.561   0.008 -0.0273  0.3827  0.0286
24610W        W38024   1.789   2.018  11.450  0.1593  0.1445 -0.2256
24611W        W38025  13.642  17.677   4.983  0.1465 -0.1770  0.0031
24612W        W38026  17.871   4.135  14.542  0.1888 -0.2887  0.0746
24613W        W38027   4.542  13.661  11.038 -0.1190 -0.1656  0.0167
24614W        W38028   0.629   1.067  12.310  0.0032 -0.1793 -0.2649
24615W        W38029  13.117  11.306   5.555 -0.0838  0.4224 -0.2483
24616W        W38030   2.437   6.656   3.618 -0.3740  0.0659  0.0064
24617W        W38031   6.420   9.287   5.499 -0.0528  0.1317 -0.2120
24618W        W38032  16.904   7.886  15.920  0.2198 -0.2853  0.0185
24619W        W38033  11.955  10.604  11.247  0.0186 -0.3959  0.1649
24620W        W38034  15.290   6.022   3.370 -0.0856 -0.4489  0.0704
24621W        W38035   3.436   4.928   2.594  0.3469 -0.1030  0.0991
24622W        W38036  16.319  16.866   0.040 -0.3524 -0.0244  0.2730
24623W        W38037   0.985   8.640  14.938 -0.2288  0.3130  0.0481
24624W        W38038   0.239   1.567  12.507 -0.0729  0.1269  0.3438
24625W        W38039  10.307   4.080   2.772 -0.0171  0.0980  0.2221
24626W        W38040  15.184  16.021   5.437  0.0771  0.0126  0.0802
24627W        W38041   9.005   4.632   0.441 -0.1593  0.2514  0.2288
24628W        W38042  16.445   6.039   4.124  0.1409 -0.1537  0.2788
24629W        W38043   0.755   6.505   1.633  0.0530 -0.0376 -0.0904
24630W        W38044  11.276   6.323  14.619  0.0651 -0.2731 -0.0478
24631W        W38045   9.684  13.057  12.680  0.3094  0.2767 -0.1429
24632W        W38046  17.279   7.885   4.818  0.0501 -0.0725 -0.0951
24633W        W38047  10.123   9.734   4.576 -0.2277  0.3711 -0.2232
24634W        W38048   9.890   3.238  12.343  0.2262  0.2229 -0.0202
24635W        W38049   7.369  12.495  15.753 -0.0473  0.0659  0.0472
24636W        W38050  13.458  16.461  13.827  0.1804  0.2693  0.0788
24637W        W38051  14.991  12.654   6.372 -0.0626  0.1692  0.0378
24638W        W38052   2.922   5.046  10.713  0.1997  0.1705 -0.3388
24639W        W38053  11.212   4.715   4.997  0.1850 -0.0032 -0.2698
24640W        W38054  12.910   5.655   4.499  0.0328 -0.0083 -0.0369
24641W        W38055  15.999   2.531   3.556  0.2259 -0.0186  0.0383
24642W        W38056   9.604   4.058  12.882  0.1193  0.0553  0.1773
24643W        W38057  11.257  15.167   5.611  0.0959  0.1062  0.0370
24644W        W38058  12.467   3.572   4.227 -0.1737 -0.0010 -0.1275
24645W        W38059  14.196  12.214   3.331 -0.2907  0.3239 -0.0596
24646W        W38060   4.160  12.715  11.219 -0.2339  0.2176 -0.0753
24647W        W38061   4.230   6.958   2.845  0.2016 -0.2085  0.0622
24648W        W38062   5.408   0.722  12.306  0.1450  0.0475  0.1911
24649W        W38063   0.929   4.988   0.134  0.0206 -0.0703 -0.0773
24650W        W38064   5.037  18.094  12.273 -0.0097  0.2221  0.1020
24651W        W38065  12.769  15.093  13.455 -0.0324  0.1719 -0.1012
24652W        W38066  17.533   4.519   3.640 -0.1544  0.0569  0.0307
24653W        W38067  15.533   2.411   4.748 -0.2470  0.1090 -0.2947
24654W        W38068  17.447  10.179  11.648 -0.1063 -0.3292  0.0688
24655W        W38069  14.776   7.311   2.493 -0.3301 -0.0356  0.2163
24656W        W38070  17.570  16.495  14.662  0.2239 -0.0367 -0.0357
24657W        W38071  12.651   5.482  12.557 -0.3312  0.1911  0.0445
24658W        W38072  15.180   2.020   0.626 -0.0440 -0.0508 -0.0278
24659W        W38073  17.745  17.586  16.290  0.0125 -0.1341  0.1205
24660W        W38074  14.550  15.822   0.544 -0.1008 -0.1358  0.1674
24661W        W38075  18.123  13.182  11.998  0.1548  0.2975  0.0852
24662W        W38076   8.341  17.218  14.790 -0.0309  0.2269 -0.1493
24663W        W38077  13.656   6.030  16.365  0.1939 -0.0894  0.2140
24664W        W38078  12.329  17.919   3.821 -0.1297 -0.2043  0.0210
24665W        W38079   8.244  14.769  11.192  0.1271  0.0175  0.1370
24666W        W38080  16.589   1.580   1.448  0.0570 -0.2301 -0.2491
24667W        W38081   3.187  11.226  15.298  0.1882  0.1061 -0.1736
24668W        W38082   2.093   4.903   4.312 -0.1766  0.3200 -0.0175
24669W        W38083  13.239   9.917  13.001 -0.1786 -0.1696 -0.3219
24670W        W38084   9.212  14.286   0.919 -0.2664 -0.3109 -0.3917
24671W        W38085  12.676  13.837   1.513 -0.2450  0.0259  0.0757
24672W        W38086  18.278   1.893   4.916  0.1630  0.1903  0.1457
24673W        W38087  12.558   2.978   4.750 -0.2148  0.1203 -0.0651
24674W        W38088  16.461   6.626  15.664 -0.0144 -0.0402  0.0587
24675W        W38089   9.380   0.998   2.314 -0.0594 -0.0530 -0.1873
24676W        W38090   6.496   3.771   4.791 -0.2544  0.1563 -0.1549
24677W        W38091   7.632   8.472   2.821  0.1343  0.0210  0.3448
24678W        W38092   5.377  17.406  12.829 -0.2203  0.1275 -0.0560
24679W        W38093   0.917   3.550   4.585 -0.2648 -0.1761  0.0455
24680W        W38094   8.742   7.700  11.872 -0.0882 -0.4545  0.0771
24681W        W38095  17.414   8.056  16.128  0.0268  0.0802 -0.0193
24682W        W38096  14.062  11.690  15.404  0.1839 -0.0367 -0.0233
24683W        W38097  18.183   3.053  15.481  0.1067  0.2475  0.2695
24684W        W38098   4.120  12.421  10.719  0.1447  0.1960  0.2598
24685W        W38099  17.733  10.291   3.994 -0.3775 -0.0327  0.0281
24686W        W38100  10.922  11.865   2.092 -0.0416 -0.0272 -0.2829
24687W        W38101   2.582  13.919   3.194 -0.0373  0.3081 -0.0965
24688W        W38102   0.360   9.049  10.782 -0.1829  0.0586  0.1522
24689W        W38103  11.997  17.377  14.425 -0.2886  0.0086 -0.1672
24690W        W38104  18.149   6.365  12.080  0.0198 -0.0649  0.1617
24691W        W38105   8.068  15.509   0.298 -0.2644  0.0564 -0.1087
24692W        W38106   7.612  14.565   0.653  0.1396  0.1581 -0.3369
24693W        W38107   4.808   1.277   3.340 -0.1848  0.2056 -0.1446
24694W        W38108   0.878  17.547  15.399 -0.0156  0.0655  0.0303
24695W        W38109   7.480   6.919   3.659 -0.3000 -0.2057  0.0543
24696W        W38110   3.555   9.402   5.670  0.0684  0.1911  0.2856
24697W        W38111   8.009  10.833   2.941  0.0334  0.2760  0.2824
24698W        W38112   8.037  13.911  12.149  0.2406 -0.0198  0.1791
24699W        W38113   0.167   4.069   0.688  0.0850  0.1044 -0.0790
24700W        W38114   7.078  14.743   4.396  0.2071  0.1942 -0.0289
24701W        W38115  17.749  13.095  11.002  0.0778 -0.1759  0.0366
24702W        W38116  15.134   7.901  15.424  0.0727  0.3044  0.4218
24703W        W38117  12.131  15.581   5.107 -0.0759 -0.3576 -0.3811
24704W        W38118  18.219   4.919  12.471  0.0572 -0.1921  0.1120
24705W        W38119  17.017  16.415  14.833  0.1847 -0.0680 -0.1314
24706W        W38120   6.959   1.688   5.769  0.0564  0.0505 -0.0565
24707W        W38121  12.597   8.554   0.748  0.0344  0.1646 -0.0932
24708W        W38122   0.499   0.387  10.251 -0.0825  0.2787 -0.0439
24709W        W38123   9.067   2.940  14.019 -0.0777 -0.0062 -0.1776
24710W        W38124   0.989  17.517  11.775 -0.0967  0.0357  0.0811
24711W        W38125   2.459   7.527   5.710 -0.1647  0.2077  0.0640
24712W        W38126   0.882   5.488  15.794 -0.1697 -0.3073 -0.0322
24713W        W38127  15.864   9.650   5.038  0.2599  0.2028 -0.0824
24714W        W38128  17.019   2.925  16.090 -0.2407 -0.1848 -0.3112
24715W        W38129   7.896  12.498   4.217  0.0621 -0.0171  0.2330
24716W        W38130   9.936  13.832   3.980  0.1386 -0.1779  0.0935
24717W        W38131  14.937   4.171   1.752 -0.0113 -0.1202  0.0111
24718W        W38132   2.351   3.956  10.792  0.2017 -0.0489 -0.2770
24719W        W38133   8.000   8.040   5.551 -0.0270 -0.1161 -0.0175
24720W        W38134  17.851   1.415  12.864  0.2616 -0.3017  0.0488
24721W        W38135  17.852  10.409   9.962  0.0364 -0.2480 -0.1612
24722W        W38136  17.332   7.039  15.896 -0.0262  0.1627 -0.0663
24723W        W38137  16.066   7.784   0.486  0.1037  0.0050 -0.1077
24724W        W38138  13.802   0.075   3.698  0.1169 -0.0846  0.0961
24725W        W38139   4.965   8.491   2.850  0.1276 -0.4319  0.2618
24726W        W38140  11.126   4.319  15.824 -0.1870  0.0528  0.0280
24727W        W38141   4.282   4.847   0.768 -0.0792 -0.0518  0.0491
24728W        W38142  14.190   3.335   4.370 -0.0128  0.1505  0.2529
24729W        W38143   6.855   3.479   0.264  0.3318  0.0430  0.2049
24730W        W38144   9.569  17.214  11.703  0.0880  0.3643 -0.3392
24731W        W38145  16.521   6.921   2.476  0.1881  0.0474  0.1485
24732W        W38146   7.468  11.199   0.865 -0.0654  0.1067 -0.2113
24733W        W38147  16.884   7.768   5.146 -0.2784 -0.1060 -0.1163
24734W        W38148   2.535   0.083  11.956 -0.2817 -0.2331 -0.0241
24735W        W38149  11.597  11.404  12.472  0.2227 -0.1008 -0.2062
24736W        W38150   1.625  17.160  12.155 -0.0043  0.3556  0.1419
24737W        W38151   9.285   1.715  12.104 -0.1981  0.0786 -0.1980
24738W        W38152  17.382  15.200   0.676  0.0684  0.4011 -0.5896
24739W        W38153   1.284  12.850  14.324 -0.1281  0.1576  0.1663
24740W        W38154  15.001  17.064  11.828  0.1425 -0.0987  0.0587
24741W        W38155   9.380   9.669   2.365 -0.1245 -0.4035 -0.1283
24742W        W38156   4.575   5.708   0.877 -0.0560  0.1645  0.0175
24743W        W38157  10.211  10.905  12.198  0.1274 -0.1317  0.1641
24744W        W38158   5.170   7.335   5.586 -0.1744 -0.1457 -0.2540
24745W        W38159  13.342  14.203   0.089 -0.0012 -0.2877  0.1460
24746W        W38160  13.168   4.266  13.119 -0.1653  0.1369  0.0260
24747W        W38161  12.000   1.653  12.807 -0.2348  0.1562 -0.1783
24748W        W38162  13.941  11.888   0.849  0.5765 -0.1019  0.0634
24749W        W38163  15.842   0.741   0.678 -0.0736  0.1186  0.1103
24750W        W38164   0.125   2.384   0.049  0.1138  0.0556  0.1766
24751W        W38165   2.193  12.152   2.510 -0.1210  0.1832 -0.1315
24752W        W38166   3.271  12.116  14.684  0.0784 -0.3124 -0.2200
24753W        W38167  10.861   8.226   0.106 -0.2490  0.0306 -0.0216
24754W        W38168   1.067   5.568  11.456 -0.0036 -0.2289  0.1294
24755W        W38169   5.001  13.864  11.110 -0.1927 -0.0729  0.0934
24756W        W38170   7.227  14.256   3.194 -0.0603 -0.0704  0.0023
24757W        W38171   5.594   2.902   4.706 -0.3289 -0.0007  0.0748
24758W        W38172  16.397  17.798  10.618  0.2603  0.1886  0.0183
24759W        W38173  11.266  11.792  14.780  0.0905  0.1683  0.0326
24760W        W38174  13.060  18.127  11.265  0.3311  0.0558  0.0121
24761W        W38175   9.739   1.437   2.542 -0.1366  0.2752  0.1205
24762W        W38176   5.695  12.433  15.903 -0.2072 -0.0627  0.3730
24763W        W38177   8.409   3.730   3.451  0.0821 -0.0538 -0.2769
24764W        W38178  11.664  17.458   0.575 -0.1158  0.0767  0.0786
24765W        W38179   7.655  10.043   1.670  0.0647  0.2570 -0.0944
24766W        W38180   8.011   2.886  11.143 -0.0954  0.3012  0.1563
24767W        W38181  11.728  15.241   5.196  0.2144 -0.0466  0.1091
24768W        W38182  16.948   5.073   5.059  0.0963  0.1530  0.2854
24769W        W38183  11.262   7.281   1.857 -0.3803  0.0421 -0.3992
24770W        W38184   7.861   0.089   6.526  0.2665  0.2464 -0.1016
24771W        W38185  15.693   7.810  13.387 -0.1827 -0.0308  0.1717
24772W        W38186  16.208   4.255   2.471  0.4576 -0.0790 -0.3265
24773W        W38187  13.980  15.721   5.298  0.2440  0.1798 -0.1509
24774W        W38188  15.753   4.993   2.528 -0.0751  0.3210  0.0299
24775W        W38189  13.293  10.847   5.363 -0.1033 -0.3280 -0.0587
24776W        W38190  15.814   3.109  14.683 -0.0093  0.2627  0.0733
24777W        W38191  16.606   6.019   2.559  0.0432 -0.2100  0.1619
24778W        W38192  15.623   0.978  11.203  0.1671  0.0170  0.0266
24779W        W38193   1.518   5.341  15.569  0.1569 -0.0762 -0.0712
24780W        W38194   7.757   7.182   4.018 -0.2369  0.1875 -0.2699
24781W        W38195   8.326   3.838  11.472 -0.2174 -0.2480  0.0540
24782W        W38196  14.727  14.617  15.363  0.0551 -0.1972  0.0163
24783W        W38197   6.063  10.441   3.026 -0.0563  0.1998  0.1213
24784W        W38198   8.968   2.622   0.974  0.2974  0.0276 -0.2197
24785W        W38199   6.929  11.777  12.827  0.0823  0.1739  0.1591
24786W        W38200   3.479  15.272  13.087 -0.2486 -0.1332 -0.0653
24787W        W38201  13.700  13.609   3.871 -0.2538  0.2266  0.0492
24788W        W38202  11.668  11.409   3.756  0.1562  0.2921  0.0045
24789W        W38203  14.190   6.098  14.536 -0.2576  0.0470 -0.1867
24790W        W38204   0.965  15.811  12.739  0.1556 -0.1489 -0.0387
24791W        W38205  17.077   8.040   2.558  0.3602 -0.0528 -0.1773
24792W        W38206  14.115   6.845  13.800  0.0142 -0.1586  0.0052
24793W        W38207  17.648   5.270   5.228 -0.1144 -0.1065  0.0978
24794W        W38208   7.655   5.788  13.455  0.1350  0.1667 -0.1445
24795W        W38209   2.739  12.442  13.434  0.2679  0.0969  0.2601
24796W        W38210   4.165   6.021  12.946  0.2319 -0.4170  0.0805
24797W        W38211  10.977   8.051  12.371  0.1923  0.0249 -0.3100
24798W        W38212  12.295   5.620   0.037  0.2360 -0.1632 -0.2529
24799W        W38213  12.557  15.185  12.758  0.3149 -0.0297 -0.1970
24800W        W38214   4.029   1.991  11.841  0.1416  0.0500 -0.0190
24801W        W38215   0.153  13.098  13.359 -0.1406 -0.1661  0.1127
24802W        W38216   9.347  11.181   0.791 -0.1430 -0.0805 -0.0412
24803W        W38217   2.275   7.214   2.845  0.3045  0.1358 -0.4142
24804W        W38218  17.539   8.038  14.554  0.2432  0.0882 -0.0914
24805W        W38219   3.487  10.002   2.852 -0.1513 -0.2583  0.1100
24806W        W38220  12.584  12.187   3.690 -0.3432 -0.0642 -0.1408
24807W        W38221  12.474  11.059   4.046 -0.1361 -0.1527  0.0620
24808W        W38222   1.400   8.968  15.010  0.1314  0.1671 -0.0371
24809W        W38223  12.669   0.841   0.294 -0.2758 -0.0092  0.0887
24810W        W38224   5.074   6.266   3.653  0.2552 -0.0209  0.0658
24811W        W38225   1.549   6.493   1.760  0.1323  0.0034  0.2019
24812W        W38226  15.856  16.217   4.078  0.0272  0.2342 -0.3409
24813W        W38227  12.141   4.559   3.250 -0.2057  0.1964 -0.2641
24814W        W38228   3.718   9.454  12.969 -0.1634 -0.0926  0.1326
24815W        W38229   0.041  12.805  10.674  0.2195  0.0402 -0.0356
24816W        W38230   6.100  15.919  14.278 -0.1254 -0.0593  0.1195
24817W        W38231   5.716  14.970  10.144  0.1474  0.0966 -0.3252
24818W        W38232  14.491  16.411   2.992  0.0717 -0.1167  0.2517
24819W        W38233  16.865  13.151  14.513  0.3847  0.0627 -0.0707
24820W        W38234  13.866  14.230  15.302 -0.0123 -0.1191 -0.0981
24821W        W38235   2.990  17.957  16.067 -0.3384 -0.4124  0.0558
24822W        W38236   4.573   8.219   5.297 -0.0144 -0.1094 -0.3525
24823W        W38237   1.223   5.214   0.516  0.0116 -0.0906  0.0821
24824W        W38238  14.644   0.151   6.032 -0.0685 -0.0769  0.1642
24825W        W38239   9.975  18.169   6.613  0.0034 -0.1243 -0.0409
24826W        W38240  13.593   1.859  13.037 -0.0994  0.0466 -0.2764
24827W        W38241  17.365   6.080  16.008  0.0941  0.2218 -0.1277
24828W        W38242  13.827  10.533  12.627  0.1491 -0.2229 -0.5124
24829W        W38243  17.445  10.059   5.646  0.3619  0.0823 -0.1863
24830W        W38244   1.378   3.505   0.593  0.1583  0.0573 -0.0331
24831W        W38245   1.008  15.860  16.263 -0.0611  0.1133  0.2503
24832W        W38246   8.614   2.644  11.901 -0.1301 -0.1742  0.2098
24833W        W38247  14.608   1.227   0.332 -0.1124 -0.0064  0.3393
24834W        W38248   3.441   4.985   5.061  0.0147 -0.2429 -0.0121
24835W        W38249  10.553  11.583  12.663  0.1193  0.0518  0.0686
24836W        W38250   6.557  13.346   3.018  0.2371  0.1759  0.2012
24837W        W38251   9.576  14.710  11.782 -0.1053 -0.1030  0.1411
24838W        W38252  16.449  14.770   3.146  0.0068  0.2924  0.3298
24839W        W38253  16.177   1.079  16.354 -0.0490 -0.2207 -0.2798
24840W        W38254   0.963   0.471   4.044  0.0108 -0.0310  0.0731
24841W        W38255  13.229  13.239  12.904 -0.0323  0.0241  0.0774
24842W        W38256  17.792   4.118  10.017  0.0020  0.0918  0.0392
24843W        W38257  16.555  17.664  15.466 -0.1964 -0.1495 -0.1519
24844W        W38258  18.282  12.647  11.297 -0.1567 -0.1891  0.0595
24845W        W38259   2.693   4.239  14.868  0.0120  0.0167 -0.2842
24846W        W38260  14.051   0.031  13.604 -0.0559  0.1687 -0.2854
24847W        W38261   2.533   4.611  12.651  0.0325 -0.1137  0.0413
24848W        W38262   1.753   5.122   4.017 -0.0254  0.2929  0.1175
24849W        W38263  13.390   3.441  14.565 -0.3189  0.0199 -0.0984
24850W        W38264  15.960  15.521   2.122  0.0579  0.1247 -0.1205
24851W        W38265   2.202   4.207  12.845 -0.5408 -0.0999 -0.1456
24852W        W38266   5.853   2.276   5.302  0.3636 -0.0095  0.0120
24853W        W38267   0.912  12.899   0.036 -0.0355 -0.1111  0.0729
24854W        W38268   3.637  13.481   2.787 -0.0362  0.0624 -0.3062
24855W        W38269  15.631  14.085   4.347 -0.0305 -0.4107 -0.0144
24856W        W38270   6.035  17.976   4.606  0.3303 -0.2081 -0.3073
24857W        W38271   2.021   1.642   0.979 -0.0589  0.1707 -0.0167
24858W        W38272  11.893  14.301   2.594 -0.2442  0.2121 -0.0987
24859W        W38273   9.312  16.056   4.816 -0.1041 -0.2793  0.1030
24860W        W38274  17.256   6.659   2.918  0.1768 -0.0198 -0.0713
24861W        W38275   2.896   1.370  12.581  0.2588 -0.2513  0.1463
24862W        W38276  14.760  12.467  16.096  0.0921  0.0837  0.0234
24863W        W38277  10.762  14.748   4.449 -0.0569  0.2599  0.1083
24864W        W38278   8.507   6.465   4.845 -0.1726 -0.2304 -0.2201
24865W        W38279  13.482  14.072  12.777  0.2304  0.1707  0.0748
24866W        W38280   3.661   4.795  14.274 -0.2153  0.0066  0.1046
24867W        W38281   7.484   9.166   3.470 -0.1851  0.1543 -0.0089
24868W        W38282   0.205   1.143  12.814 -0.2522  0.0838  0.0552
24869W        W38283  17.269  17.354   3.758 -0.0793  0.2408  0.0233
24870W        W38284   1.439   9.229   2.134  0.1082 -0.1504  0.1774
24871W        W38285   9.255  12.328  15.652  0.1879  0.2836 -0.2118
24872W        W38286   3.580   4.273  16.031  0.1090  0.2539  0.0964
24873W        W38287  11.827   2.117   4.684 -0.1002  0.2378  0.1978
24874W        W38288  17.833   3.173  15.027 -0.0435 -0.0258  0.0483
24875W        W38289  15.375   9.745   0.380 -0.3815  0.0821 -0.1121
24876W        W38290   8.037  10.002  15.665 -0.0132 -0.0796 -0.1538
24877W        W38291   9.137   3.998  14.162 -0.1409  0.2715 -0.2050
24878W        W38292  13.715  10.258   1.951  0.3757  0.0168 -0.1503
24879W        W38293  12.503  16.236  13.556 -0.0674 -0.3397 -0.0432
24880W        W38294   5.328  14.852   0.125  0.0079  0.2989  0.1353
24881W        W38295  10.442  14.392  12.817  0.3050  0.0132 -0.2713
24882W        W38296  17.170  16.499   1.691 -0.1679  0.0870  0.2590
24883W        W38297   3.089   1.573  15.437 -0.0383  0.1024  0.0723
24884W        W38298  18.117  16.091   3.789 -0.1779 -0.0166 -0.0428
24885W        W38299   7.959  10.213  10.623 -0.1660  0.1015 -0.2143
24886W        W38300   7.590   6.335  11.187 -0.2551  0.0178 -0.1534
24887W        W38301  13.078  14.235   4.672 -0.0899  0.2228  0.1333
24888W        W38302   9.232   4.287   2.261 -0.0115 -0.0963  0.3299
24889W        W38303   6.161  14.290  11.145 -0.0591  0.0236 -0.0166
24890W        W38304   8.917   5.758   4.557  0.1492  0.0492 -0.1574
24891W        W38305  17.638   4.483   1.011 -0.1340 -0.2829 -0.1221
24892W        W38306   9.894   0.617   5.505 -0.1365  0.0851  0.0198
24893W        W38307   2.925   2.833   3.080 -0.0853 -0.2887  0.3009
24894W        W38308  12.644  11.224  10.673  0.1384  0.0747  0.2161
24895W        W38309   5.402   0.882  14.787 -0.1346  0.0085 -0.2162
24896W        W38310  10.052   7.229  15.896  0.0936  0.3779  0.0407
24897W        W38311   4.830  17.305   6.512  0.1926 -0.2816  0.4450
24898W        W38312  15.298  14.181  14.447 -0.1667  0.2341  0.2758
24899W        W38313   5.579   0.449  13.443 -0.0043 -0.2849 -0.1382
24900W        W38314  12.217  17.265  13.779  0.2065  0.0546  0.1500
24901W        W38315  16.023   2.995  16.358  0.0745 -0.1283  0.5073
24902W        W38316   0.927   1.253  15.296 -0.1964  0.1880  0.0698
24903W        W38317  10.226   4.217  15.458 -0.0569 -0.2943 -0.0393
24904W        W38318   5.875   4.865   4.777 -0.1773 -0.2887 -0.2173
24905W        W38319   2.670  11.503  16.021 -0.2415  0.0706  0.1015
24906W        W38320   2.293  14.035  13.524 -0.4904 -0.3072 -0.2761
24907W        W38321   9.849   4.415  15.164 -0.0156  0.1805 -0.1544
24908W        W38322   5.476   7.938  13.261  0.2307  0.0385 -0.1038
24909W        W38323  17.184   0.879   1.868 -0.2389  0.2286  0.4223
24910W        W38324   3.622  16.856   4.131  0.0838 -0.1387 -0.1353
24911W        W38325   7.962  13.415  10.919 -0.0714  0.0376 -0.4895
24912W        W38326   9.247   5.851   3.049  0.0919  0.1516  0.0470
24913W        W38327   9.026  15.095  12.425  0.3359 -0.1255 -0.3691
24914W        W38328   2.380   3.103   1.780  0.0402  0.2553 -0.2269
24915W        W38329   0.883  15.017  11.969  0.1120  0.0886 -0.1016
24916W        W38330   6.052  13.399   0.297 -0.3694 -0.1007  0.1205
24917W        W38331   8.412  17.004  15.980 -0.3445  0.3481 -0.2044
24918W        W38332   9.966  17.178  13.825 -0.1232 -0.3231 -0.0306
24919W        W38333   9.142  14.270  16.501  0.1092  0.0132 -0.3007
24920W        W38334   5.287   9.842   5.894 -0.1408 -0.2730  0.2969
24921W        W38335   3.783   0.400  15.457  0.4441  0.5536 -0.0135
24922W        W38336  16.104   5.956   3.261  0.0893 -0.0625 -0.3550
24923W        W38337   3.460   9.249   4.296 -0.1528 -0.0932 -0.2795
24924W        W38338   0.672   0.681   4.552  0.5034  0.1243  0.1938
24925W        W38339  16.856  10.804  11.999 -0.2569 -0.2844  0.0183
24926W        W38340   6.525   7.504  15.862 -0.0386  0.0071 -0.1895
24927W        W38341   6.769   5.583  13.198  0.0644  0.1354  0.3093
24928W        W38342   1.899   0.950  12.747  0.0997 -0.0842  0.2219
24929W        W38343   3.295   3.753  11.291 -0.3099  0.1679  0.1940
24930W        W38344  17.900  14.657   6.504 -0.5057  0.1714  0.0050
24931W        W38345  15.363   0.820   0.883 -0.0544  0.0519  0.2984
24932W        W38346  10.818  15.217  13.209 -0.2986  0.0982  0.0816
24933W        W38347  14.725   1.216  13.820 -0.1996  0.1090  0.2421
24934W        W38348  14.159   9.370  13.882 -0.4147 -0.2439  0.0919
24935W        W38349   7.335  12.704  15.240 -0.2124 -0.3091  0.2328
24936W        W38350   8.567   2.680  13.257  0.2565 -0.0689  0.0549
24937W        W38351   9.679  11.894  11.779  0.0047  0.3752 -0.2762
24938W        W38352   8.034  13.896  15.677 -0.1022 -0.4404  0.2247
24939W        W38353   6.510   3.571  11.565 -0.1204  0.1526  0.0002
24940W        W38354  10.812  12.840   4.775  0.0569  0.2067 -0.1659
24941W        W38355   3.422   8.572   4.625  0.4063 -0.1244  0.0419
24942W        W38356  14.867  17.544   1.064  0.2022  0.1134  0.2530
24943W        W38357  15.452   2.473   0.350  0.1798  0.0832 -0.0819
24944W        W38358  13.081   8.011  11.515 -0.1625  0.0903 -0.1549
24945W        W38359   9.312   0.607   5.465 -0.0013  0.1302 -0.0658
24946W        W38360  16.535   7.927   1.286  0.0016 -0.1890  0.2907
24947W        W38361  15.264  13.408   5.574 -0.0410  0.0192  0.0089
24948W        W38362   1.353   9.022  16.287 -0.3457  0.2232  0.4720
24949W        W38363  18.134   1.880  14.726  0.0006  0.0513  0.0111
24950W        W38364   4.455  16.422   0.580 -0.1204  0.0985  0.0226
24951W        W38365  18.190  16.672   3.395 -0.0915 -0.2021  0.0899
24952W        W38366   7.200   8.987  11.375  0.2260  0.1068 -0.0787
24953W        W38367   7.222  14.534   9.904 -0.0670 -0.0858 -0.2476
24954W        W38368   7.630  17.465   4.137 -0.3581 -0.1562 -0.1359
24955W        W38369   2.131   1.770   1.474 -0.1251 -0.0645  0.1460
24956W        W38370   5.832   2.275   1.878  0.1000  0.0146 -0.1282
24957W        W38371   2.662  11.200  13.624 -0.0716 -0.0007 -0.2836
24958W        W38372  11.290   7.429  11.350 -0.0192 -0.1378 -0.0536
24959W        W38373  15.335  17.848   4.808  0.3185 -0.0424 -0.0270
24960W        W38374   0.253   5.137  10.452  0.3760 -0.2590  0.0984
24961W        W38375  10.451  11.557  11.215  0.0494  0.0561 -0.0092
24962W        W38376  12.457  18.056   1.043 -0.0605 -0.2064  0.0763
24963W        W38377   3.556   7.335   5.384  0.1684 -0.0369 -0.0828
24964W        W38378  17.495   5.775  14.595  0.2078  0.0266 -0.0091
24965W        W38379  11.845   2.177  16.528  0.4630  0.4036  0.0200
24966W        W38380  12.556  12.131   0.468  0.0992 -0.0465  0.0600
24967W        W38381   6.391  16.697  16.451 -0.0417 -0.1481  0.1404
24968W        W38382   8.586   1.223  12.637  0.1322  0.1101  0.0292
24969W        W38383  15.235   9.507  15.217  0.4362 -0.2635 -0.1591
24970W        W38384  13.740  13.186   2.651 -0.0474 -0.0362 -0.0449
24971W        W38385  12.960  18.175  16.371  0.1086  0.0734  0.0914
24972W        W38386   9.360   6.369  11.659  0.0359 -0.0727 -0.1516
24973W        W38387  11.374  13.901  16.159  0.0318  0.0538 -0.1942
24974W        W38388   0.216  12.344   2.319 -0.0931 -0.1974  0.1366
24975W        W38389   4.603   1.470  15.524 -0.0021  0.0198 -0.1229
24976W        W38390   9.923   1.513   4.487 -0.0963 -0.1695  0.0698
24977W        W38391   9.034  15.326   1.498 -0.2510 -0.1606 -0.2426
24978W        W38392   2.528  13.603   0.932 -0.2618 -0.2735  0.0232
24979W        W38393   9.668   4.756  11.724 -0.0018  0.0093 -0.0270
24980W        W38394  11.227  12.341   3.071 -0.1721 -0.1305 -0.0532
24981W        W38395   3.710   7.027   3.363  0.1237 -0.0886  0.1138
24982W        W38396  13.430   4.620   1.344 -0.4117  0.2291  0.2954
24983W        W38397   4.683  11.020  16.209 -0.0412 -0.0548 -0.1824
24984W        W38398   5.726   6.753  10.833 -0.1913 -0.1471 -0.1831
24985W        W38399   0.500   7.178  10.151 -0.2935  0.0710 -0.0475
24986W        W38400  13.485  12.772  11.100  0.1465  0.1153  0.0113
24987W        W38401   0.653  13.563  15.351 -0.1005 -0.1701  0.3247
24988W        W38402  10.248  11.571   3.992 -0.1015 -0.0371  0.1105
24989W        W38403   2.643   0.338  15.015 -0.2563 -0.1446 -0.0395
24990W        W38404   5.760  10.679  13.171  0.0937 -0.0306 -0.1291
24991W        W38405   6.490  17.259   5.045 -0.2337  0.0108 -0.1935
24992W        W38406  17.544   9.537   5.664  0.2217 -0.0179 -0.0775
24993W        W38407  17.621  17.615  11.250  0.0782 -0.1831  0.0078
24994W        W38408  16.715  15.648  13.260 -0.2548 -0.0579  0.2099
24995W        W38409  14.089   3.172  13.325 -0.2010 -0.2490 -0.2457
24996W        W38410   6.307   2.279  10.903 -0.1697 -0.2661 -0.1284
24997W        W38411   3.179  14.009  12.862 -0.0077 -0.1953  0.1829
24998W        W38412  14.796  11.369   2.817  0.0068 -0.2956 -0.1109
24999W        W38413  10.264  16.646  11.674  0.0711  0.2402  0.0753
25000W        W38414  12.411   3.070   2.836 -0.0999 -0.0183  0.0807
25001W        W38415   8.580  12.729  16.186 -0.2133  0.2635  0.0026
25002W        W38416  15.700   3.677  14.201 -0.1883 -0.0612  0.0130
25003W        W38417  14.524  13.903   0.125  0.0715 -0.0440  0.0747
25004W        W38418   6.194  13.427  13.003 -0.1687 -0.0435 -0.1525
25005W        W38419   3.572   2.224  14.684 -0.0003  0.2306  0.4025
25006W        W38420   1.422  10.866   5.331  0.1596  0.1923  0.0746
25007W        W38421  14.174   5.761   9.799  0.0229 -0.3332 -0.1010
25008W        W38422  14.541   9.771  13.878  0.2157 -0.2593  0.0488
25009W        W38423   2.790   1.725  16.420  0.0574 -0.3735  0.0218
25010W        W38424  10.032  17.693  15.194  0.0098  0.1806  0.0949
25011W        W38425   9.471  16.973   3.213 -0.1798  0.2901 -0.1337
25012W        W38426   5.637   6.300  13.725 -0.0170  0.1014 -0.1802
25013W        W38427   7.394   0.710  12.922 -0.0857 -0.2264  0.2730
25014W        W38428   3.418   9.483   5.124 -0.2595  0.0798 -0.1270
25015W        W38429  17.868   7.661  14.413  0.2446  0.1610 -0.0395
25016W        W38430  15.591   9.004   1.099  0.2028 -0.0265 -0.0740
25017W        W38431   0.192   7.821   1.934  0.1599  0.3913  0.3525
25018W        W38432   1.313  16.821   3.588  0.0883 -0.2823 -0.0633
25019W        W38433   3.955   9.651   5.046 -0.1611 -0.2190  0.1037
25020W        W38434   0.371   8.110   9.702  0.3797 -0.0170 -0.2593
25021W        W38435   9.107   1.309   3.630 -0.1332 -0.1017  0.1210
25022W        W38436   2.389  17.977  11.699  0.1046  0.2059 -0.0648
25023W        W38437  16.056  15.550  16.217 -0.0170 -0.2260  0.1886
25024W        W38438   3.489  12.165  15.123  0.0355 -0.0801 -0.1248
25025W        W38439   6.834  10.173   3.197  0.1356  0.3291 -0.3269
25026W        W38440  13.822  13.495   1.896  0.1100  0.1522  0.5586
25027W        W38441   0.249   4.827  16.364 -0.5036 -0.3470  0.3519
25028W        W38442   7.163   3.351   0.880  0.0200 -0.0211 -0.2610
25029W        W38443  16.282   4.528  12.259 -0.0077 -0.0907 -0.2569
25030W        W38444  16.739  10.429  15.781  0.2633  0.1092 -0.1761
25031W        W38445   3.205   4.991  11.545  0.0636  0.1804  0.1511
25032W        W38446  13.780   1.904   2.395 -0.0930 -0.2549 -0.1078
25033W        W38447   7.361   6.309   5.323 -0.2287 -0.0111 -0.0127
25034W        W38448   2.169   4.919   2.885 -0.1808  0.1004 -0.0662
25035W        W38449  13.780   3.191   3.957  0.0221  0.0499 -0.1234
25036W        W38450  16.152   1.977  11.014 -0.0684 -0.1146 -0.0537
25037W        W38451  13.099   0.715   3.937 -0.1182 -0.0382 -0.0763
25038W        W38452  15.832  14.062  12.813  0.0924  0.1198  0.0796
25039W        W38453  13.083  11.206   2.351 -0.1334 -0.2729 -0.3112
25040W        W38454  12.024   7.609  14.946 -0.2481  0.0031  0.3721
25041W        W38455  12.366   6.815  14.872 -0.0795 -0.1087 -0.2560
25042W        W38456  17.436   1.080  10.984 -0.3081 -0.0268  0.0783
25043W        W38457  15.783  16.525   2.927  0.1231 -0.1905 -0.3562
25044W        W38458  14.717   8.779  16.209 -0.1654 -0.0153 -0.3167
25045W        W38459   2.324  17.004  12.000  0.0882  0.0783 -0.0832
25046W        W38460  17.995   6.216  13.951 -0.0108  0.0726  0.1145
25047W        W38461   9.200  11.796   4.693  0.3454 -0.2545 -0.0358
25048W        W38462   8.067   9.955  15.103 -0.0591 -0.1055  0.4082
25049W        W38463   4.413  12.088  12.956 -0.0031 -0.0064  0.0060
25050W        W38464  12.620   5.634   0.426 -0.0946  0.0458  0.0267
25051W        W38465   8.365  12.216   0.678 -0.0638  0.0644 -0.1267
25052W        W38466  10.599   6.221   3.171  0.1385 -0.2747 -0.0599
25053W        W38467   9.190   9.359   0.216 -0.0268  0.1651 -0.0335
25054W        W38468  15.190   8.031  11.739  0.0734  0.1138  0.0410
25055W        W38469   3.518   5.659   0.485 -0.3563 -0.2213 -0.4079
25056W        W38470  18.190   2.978   2.663  0.1544 -0.2849 -0.0250
25057W        W38471  15.329  12.575   3.846 -0.0783  0.0214  0.0850
25058W        W38472   2.913  15.192   0.441  0.2431 -0.2425 -0.2378
25059W        W38473  13.024  13.674  15.484 -0.3747  0.1901  0.0614
25060W        W38474  16.068  10.309   9.909 -0.3487  0.0271  0.0406
25061W        W38475   2.567   8.968  11.126  0.0520 -0.3035  0.5068
25062W        W38476  11.578  17.345   5.319 -0.0542 -0.4301 -0.0321
25063W        W38477   4.527  15.094  11.314  0.1360 -0.0128 -0.1853
25064W        W38478  13.523  14.343   5.494 -0.0057  0.3030 -0.0390
25065W        W38479   5.322  17.006   3.512 -0.0619  0.1373 -0.1860
25066W        W38480   2.646   3.873   0.646 -0.2399 -0.0604  0.1647
25067W        W38481   2.966   8.663  16.332 -0.0752 -0.1767 -0.0185
25068W        W38482   7.658   8.129   0.145  0.0092 -0.0039  0.2412
25069W        W38483  16.148  14.538   1.240  0.0609 -0.2680 -0.0288
25070W        W38484  16.409   4.065  11.322  0.2142 -0.0670 -0.0284
25071W        W38485  17.560   0.388  13.610  0.0576 -0.0832  0.2177
25072W        W38486  14.871   6.627   1.925 -0.3351  0.2669 -0.0351
25073W        W38487  10.865  15.742  14.501 -0.0247  0.1316  0.1361
25074W        W38488   7.375   0.739   1.139 -0.1858 -0.2310 -0.3379
25075W        W38489  13.125   0.669  15.488 -0.0277  0.1151 -0.0611
25076W        W38490   3.045  13.498  11.781  0.1566  0.1546  0.0957
25077W        W38491   5.308  13.346  15.966  0.1608  0.1723 -0.0726
25078W        W38492  12.773  12.648  15.833  0.1602  0.0660 -0.1689
25079W        W38493  12.973   4.401   1.693  0.0267  0.1901 -0.1265
25080W        W38494  10.207  15.536  10.927 -0.3028  0.1455  0.0128
25081W        W38495   9.032   4.206   3.327 -0.0954  0.1742  0.0268
25082W        W38496   6.186  14.791  13.345 -0.1109  0.0687  0.1339
25083W        W38497   6.502  12.360   3.707  0.4214 -0.2685  0.2081
25084W        W38498  14.960  11.306   1.321  0.4220 -0.2288 -0.1354
25085W        W38499  14.127   7.760  15.395 -0.1327  0.0496  0.1120
25086W        W38500  14.913  13.920  12.300 -0.2398  0.0335  0.2408
25087W        W38501   6.001  11.557  13.203  0.1633  0.1312 -0.2647
25088W        W38502   8.305  11.333   2.955  0.2338 -0.2090 -0.0512
25089W        W38503   2.903  17.881  12.319 -0.3171 -0.0838 -0.4251
25090W        W38504  18.211  10.038   9.841  0.1223 -0.0172 -0.1200
25091W        W38505   8.001  15.063  13.417 -0.0055  0.3210 -0.0939
25092W        W38506   1.013   4.075   2.202 -0.1966 -0.2320  0.2525
25093W        W38507   9.267   0.554  13.510  0.1556 -0.1631  0.0501
25094W        W38508  10.241   5.296  12.485  0.1094 -0.1159 -0.0874
25095W        W38509  14.767  11.222   0.537  0.0360 -0.0389  0.2513
25096W        W38510  17.196   6.708   4.241  0.2919  0.1496  0.0651
25097W        W38511  17.226  13.216   5.446 -0.1108  0.1809 -0.1328
25098W        W38512   0.722   8.110   2.485  0.0753 -0.0548  0.3102
25099W        W38513  17.795  16.710  15.974  0.2023 -0.2822  0.0661
25100W        W38514  12.128   2.926  11.504 -0.2188 -0.0178 -0.1270
25101W        W38515   3.341   8.912  13.466  0.0511  0.2543 -0.1893
25102W        W38516   9.457   2.999   1.153 -0.0170 -0.0105  0.0671
25103W        W38517   1.107  16.803   4.431  0.1520  0.0642 -0.4797
25104W        W38518  17.422  15.184   3.495 -0.0032 -0.1963 -0.3168
25105W        W38519  17.799  10.388   4.915 -0.0897 -0.2944  0.3940
25106W        W38520  11.087   8.661  13.231  0.0101 -0.0243  0.1895
25107W        W38521  11.864  17.350  15.416  0.2312 -0.0939 -0.1894
25108W        W38522   3.773   5.199  11.986  0.0511  0.0272  0.1066
25109W        W38523   9.751   3.682   0.524 -0.1825  0.2601 -0.1184
25110W        W38524  15.158   7.322  15.377  0.0964  0.0071  0.0624
25111W        W38525  16.888   5.482  10.174 -0.1838  0.1535  0.1056
25112W        W38526   6.007   3.639  12.383 -0.2341  0.1761  0.2048
25113W        W38527  14.165   6.412   1.133 -0.2440 -0.0330  0.0281
25114W        W38528  15.552   5.157   3.134 -0.1791 -0.1186 -0.0472
25115W        W38529   6.306   7.359   4.524 -0.2170 -0.0895 -0.0561
25116W        W38530   5.277  18.261  16.195 -0.1386  0.3062  0.3569
25117W        W38531   7.075   4.918   2.805  0.1519  0.1977  0.0041
25118W        W38532   3.492  14.584   3.510 -0.0791 -0.0515 -0.0716
25119W        W38533  16.457  11.134   0.804 -0.0108 -0.1780 -0.1454
25120W        W38534   5.435   8.593  15.780  0.3558 -0.0146 -0.0250
25121W        W38535   9.043   7.130   5.382  0.0416  0.3019 -0.1570
25122W        W38536   2.732   4.967  11.772 -0.3450 -0.0995 -0.0169
25123W        W38537  11.238   1.187  14.865 -0.3033  0.0510 -0.0670
25124W        W38538   2.004   0.953   2.900  0.1633  0.3468  0.0221
25125W        W38539  11.230   6.202   2.091  0.2547 -0.1616 -0.2439
25126W        W38540   2.421  16.095  10.352 -0.1361  0.1429  0.0392
25127W        W38541   4.827   8.515  13.200 -0.0069  0.0814 -0.1452
25128W        W38542  12.574  13.807  11.661  0.0047 -0.0572 -0.2334
25129W        W38543  14.832  17.853  11.096  0.0222  0.0230 -0.2800
25130W        W38544  12.660   8.012   1.725 -0.3259 -0.1675  0.0757
25131W        W38545   8.599   3.423   3.790 -0.3526 -0.0144 -0.1513
25132W        W38546  12.371   5.599  12.106 -0.0786  0.0119 -0.1371
25133W        W38547   1.649  15.062  15.170 -0.2882  0.1420 -0.0401
25134W        W38548   5.285   9.695   3.062  0.1506 -0.0316 -0.1265
25135W        W38549   5.485  13.866  14.078  0.1065  0.0530  0.3067
25136W        W38550   6.766  15.808   1.561  0.1894  0.0736  0.0773
25137W        W38551   8.746   1.314   2.546  0.0647  0.4909 -0.1959
25138W        W38552  13.000  13.443   1.594 -0.2298  0.2222 -0.0238
25139W        W38553  14.823   3.440   5.352  0.1614  0.0052  0.1695
25140W        W38554   5.585   8.982   5.753 -0.4022 -0.1674  0.0770
25141W        W38555  15.064  17.949  11.518 -0.0416 -0.2237  0.1657
25142W        W38556   0.342   3.322   3.931 -0.2912 -0.2501  0.0714
25143W        W38557   5.042   5.332   2.974  0.1413  0.2515 -0.1250
25144W        W38558  10.890   9.111  13.354  0.3323  0.0309  0.1012
25145W        W38559   8.947  11.291  11.664  0.0453  0.1963 -0.0801
25146W        W38560  17.316   1.092  13.959 -0.1902  0.2117 -0.1008
25147W        W38561   3.791   9.529  15.778 -0.0042  0.1931 -0.1234
25148W        W38562   0.412  12.306  14.432  0.0905 -0.0343  0.1237
25149W        W38563   5.309   0.178  11.426 -0.0568 -0.3012  0.0245
25150W        W38564   4.828  17.481   3.544  0.1559  0.2190 -0.0578
25151W        W38565   2.508   7.508  10.275  0.0043  0.0290 -0.0979
25152W        W38566   7.231  16.773  16.214 -0.0318  0.2013 -0.2843
25153W        W38567   3.843  18.218  16.187  0.1955 -0.0839  0.0545
25154W        W38568   8.319   4.859   5.726  0.0923  0.0817  0.3023
25155W        W38569   4.178   8.438  14.939  0.0114 -0.0214  0.2696
25156W        W38570  17.473   3.133  10.636  0.1510 -0.5159  0.2585
25157W        W38571   3.478   4.965   4.027  0.0511  0.3634  0.2720
25158W        W38572  17.210  17.833   0.558 -0.0883 -0.0445  0.1928
25159W        W38573   3.222  10.735   5.867  0.0619 -0.4415 -0.1241
25160W        W38574   0.974  13.596  13.089 -0.1545  0.1721  0.0244
25161W        W38575  17.299  10.261   4.744 -0.0075  0.0191 -0.0924
25162W        W38576   8.451  17.801   5.372  0.0699  0.1269 -0.1616
25163W        W38577   9.339   4.724  14.845 -0.0886  0.1216 -0.4591
25164W        W38578   8.983  13.236  11.878  0.1676 -0.0605 -0.0292
25165W        W38579   3.369  12.489   0.128  0.1242  0.1580  0.0603
25166W        W38580  14.736   5.073   2.625 -0.0488 -0.0236  0.1213
25167W        W38581   1.816  11.228  14.365  0.3403 -0.0009  0.0798
25168W        W38582  13.601  11.612   1.391 -0.1917  0.0864 -0.0081
25169W        W38583  15.213  16.555   5.327 -0.0747 -0.1287  0.2580
25170W        W38584  14.994  13.321  11.520  0.0637 -0.1586  0.1391
25171W        W38585   5.574  15.897   0.411 -0.0600  0.3604 -0.1945
25172W        W38586   6.538  14.837  10.815 -0.1377  0.0620 -0.1415
25173W        W38587   0.917  15.257   6.241 -0.0602  0.1844 -0.0140
25174W        W38588  10.493   4.227   3.700  0.0782  0.3549 -0.1829
25175W        W38589   5.434  18.052  11.083  0.0256  0.4231  0.4694
25176W        W38590  10.706   8.953   3.737  0.1557  0.0877 -0.1182
25177W        W38591   8.901   1.554  16.407 -0.0799  0.0317  0.0535
25178W        W38592  11.334   3.512   3.695 -0.1700  0.1376  0.0623
25179W        W38593  15.726  10.980   1.426 -0.4022  0.0515 -0.0693
25180W        W38594  13.433  13.405  11.844  0.3336  0.0617  0.3015
25181W        W38595   3.496   0.433  15.026  0.2192  0.4544 -0.0444
25182W        W38596   0.516  14.522   5.274 -0.5400 -0.0287 -0.1455
25183W        W38597   5.604  11.242   1.386 -0.2761  0.3090 -0.1411
25184W        W38598  11.820  12.009  12.430 -0.0191  0.0222  0.2474
25185W        W38599   2.030  16.219   3.966 -0.4177 -0.2591 -0.1697
25186W        W38600   9.495  11.732  16.085 -0.4131  0.0884  0.0046
25187W        W38601   6.494  10.844  12.873  0.2595  0.0281 -0.1969
25188W        W38602  12.753   9.093   2.673 -0.2761  0.1384 -0.1635
25189W        W38603   5.393  12.172   4.005  0.0984 -0.0105  0.1577
25190W        W38604  16.119  16.048  12.848 -0.4186  0.1036  0.0368
25191W        W38605  16.444   4.862   1.645 -0.1351 -0.1429 -0.3076
25192W        W38606   1.351  10.333  11.378 -0.0638  0.1880  0.0037
25193W        W38607   1.685   2.599  13.949  0.3373 -0.2149  0.2075
25194W        W38608   2.410  15.326   3.954  0.1515  0.0841 -0.0487
25195W        W38609   0.566   2.297   4.097 -0.2339  0.2157  0.0397
25196W        W38610   0.270  15.818   3.899  0.0947 -0.0789  0.0182
25197W        W38611   8.521   3.240   5.333 -0.0836 -0.0634  0.3292
25198W        W38612   5.590  14.266  16.069  0.1605  0.2609 -0.0327
25199W        W38613  12.397   1.997  13.697  0.0218  0.1190 -0.3862
25200W        W38614  14.296   1.858   0.963 -0.2569  0.0227  0.1732
25201W        W38615   9.410   2.067  11.762 -0.1284 -0.0248  0.3592
25202W        W38616   2.554  11.594  13.958  0.0480 -0.2196  0.0604
25203W        W38617  17.688   2.382   2.899 -0.1407 -0.3823 -0.0822
25204W        W38618   7.200   4.633   3.949 -0.3730  0.1158 -0.0837
25205W        W38619  15.624   9.285  14.683  0.2423  0.1105 -0.1179
25206W        W38620   9.132  13.312   5.153 -0.1311 -0.0231  0.0547
25207W        W38621   4.370  15.283  10.231 -0.1086  0.2814 -0.1864
25208W        W38622   8.498   6.034   0.112 -0.1076 -0.1962 -0.1089
25209W        W38623   1.667   8.587  15.754 -0.0205  0.0800 -0.2956
25210W        W38624  16.181  12.081  12.746 -0.2507 -0.0297  0.1186
25211W        W38625  17.224   4.707  12.202  0.3747 -0.0397  0.1993
25212W        W38626   7.449  10.748   2.810 -0.2770  0.1446 -0.0135
25213W        W38627   1.084   0.632  12.499 -0.1116  0.1454 -0.2805
25214W        W38628  17.152   2.167  15.752 -0.1584 -0.2267 -0.0554
25215W        W38629   5.966  11.848  14.160 -0.2998 -0.4105  0.3266
25216W        W38630   2.159   6.876  11.042 -0.0096 -0.0258 -0.0082
25217W        W38631   1.192  10.753   2.123  0.0736 -0.1128 -0.4194
25218W        W38632  15.374  14.369   2.447 -0.0386  0.0357 -0.1628
25219W        W38633   1.829  10.710   1.553 -0.2923 -0.0003  0.0857
25220W        W38634   9.380  12.181  11.111  0.1198  0.0255 -0.0653
25221W        W38635   3.552   1.709  13.261 -0.2130 -0.1296  0.0120
25222W        W38636   7.887  18.060   0.940 -0.0467 -0.2620 -0.4078
25223W        W38637   1.327   4.842   4.298  0.2631 -0.2357 -0.2439
25224W        W38638   1.246  11.170  13.691  0.2348  0.1683  0.2947
25225W        W38639   0.772  15.908   5.609 -0.0949 -0.0255  0.0935
25226W        W38640  11.877  12.258  14.551  0.0196  0.0921  0.0651
25227W        W38641  14.452   3.620   4.074  0.2040  0.3443  0.2220
25228W        W38642   3.334   4.861  12.188 -0.1020 -0.1664  0.1580
25229W        W38643   1.659  12.186   4.526  0.1249  0.2291 -0.2491
25230W        W38644   9.614  10.339  11.067  0.3062 -0.2268  0.2407
25231W        W38645   1.915   6.313  15.895  0.1026  0.0354  0.0385
25232W        W38646  14.667   4.262  12.139  0.0246 -0.1369 -0.4071
25233W        W38647   7.159   3.211  10.879 -0.2583 -0.2919 -0.2163
25234W        W38648   3.337   7.759   5.168 -0.0105 -0.2570 -0.0933
25235W        W38649   4.172   1.082   5.448  0.0300 -0.2590  0.2241
25236W        W38650  14.145  13.536  10.790  0.0641 -0.1775 -0.0557
25237W        W38651  17.698   6.735  15.201 -0.1444  0.0829 -0.0028
25238W        W38652  14.807   7.031  11.960 -0.1105 -0.1747  0.3654
25239W        W38653  10.606   3.978  12.237  0.1682  0.3741 -0.1061
25240W        W38654   6.757  10.716   0.946 -0.0233 -0.3547  0.4036
25241W        W38655  16.115   3.936   0.773  0.5997  0.2026 -0.1020
25242W        W38656   3.901   6.463  16.452  0.0656 -0.0233  0.2308
25243W        W38657  12.137   7.757  15.398  0.1005  0.2991 -0.0668
25244W        W38658  14.731   8.126  11.040  0.1945 -0.3590 -0.0259
25245W        W38659   1.491   8.073  15.408  0.3221 -0.1447  0.1754
25246W        W38660   3.248   1.324   0.403 -0.0099 -0.1396  0.1424
25247W        W38661   5.048   1.944   6.173  0.2322  0.2040  0.2345
25248W        W38662  17.727   0.317   0.166  0.2940 -0.2870  0.3302
25249W        W38663  16.470   9.247   2.238 -0.0334  0.1157 -0.1202
25250W        W38664   3.621   7.793   6.245 -0.1096  0.1392 -0.0051
25251W        W38665   7.741  12.323   3.681 -0.1142  0.0178  0.2326
25252W        W38666  16.193   5.196   2.507  0.2221 -0.0644 -0.1347
25253W        W38667   0.408  11.840  16.205  0.2405  0.0839  0.0386
25254W        W38668  11.624   2.559  15.633  0.1690  0.3440  0.0360
25255W        W38669   4.656   9.744  11.343 -0.1069  0.1763  0.1174
25256W        W38670   9.576  13.749  15.339  0.1059 -0.0422  0.0187
25257W        W38671  15.762   8.849  15.966 -0.0637  0.3479  0.0696
25258W        W38672  13.207   6.305  15.437  0.1229 -0.0964  0.0132
25259W        W38673  14.188  14.129   4.095  0.2928 -0.0870 -0.2593
25260W        W38674   9.552   5.508   4.096 -0.0055  0.0027 -0.2453
25261W        W38675  17.731   8.999   5.626  0.1668 -0.1609 -0.1684
25262W        W38676  14.874  11.995  11.793  0.0057  0.0295  0.0286
25263W        W38677   7.550   4.488  13.680  0.3582  0.0468  0.0390
25264W        W38678   3.305   6.150   1.349  0.1775 -0.0165  0.2398
25265W        W38679  17.180   7.496  15.636  0.2242  0.1993 -0.3877
25266W        W38680   3.770   7.979   3.166  0.2559 -0.0042 -0.0928
25267W        W38681  10.312  11.325   2.469 -0.2047  0.0374  0.0683
25268W        W38682   5.943  16.448   5.147 -0.0961 -0.0933  0.0492
25269W        W38683   4.887   3.598   4.126  0.1173  0.1215 -0.2138
25270W        W38684  17.942  17.868   3.303 -0.1104  0.0488 -0.0270
25271W        W38685  16.939   2.672   2.646  0.5824  0.1783  0.0407
25272W        W38686   6.561   4.850   3.394 -0.0487  0.1862 -0.2108
25273W        W38687  17.516   3.009   0.250  0.0358 -0.1543  0.0392
25274W        W38688  15.189   8.727  16.072 -0.0799  0.1465 -0.4021
25275W        W38689  14.823   3.605   1.518  0.3323 -0.2057  0.1271
25276W        W38690   8.263   8.764   4.090  0.0685  0.1541 -0.0771
25277W        W38691   2.693   7.475  16.110  0.0147  0.1461  0.1121
25278W        W38692   4.980   8.057   4.538 -0.1018 -0.1187 -0.1210
25279W        W38693  13.569   6.593  15.185 -0.0257  0.3177 -0.1857
25280W        W38694  11.344   0.832  14.468  0.1345 -0.1873 -0.1285
25281W        W38695   6.545  14.771   4.600 -0.1643 -0.1759 -0.2804
25282W        W38696   1.609   9.203   1.372 -0.2286  0.0189 -0.3658
25283W        W38697   5.931  10.506  15.554  0.3636  0.4147 -0.1460
25284W        W38698  12.776   3.883  16.172 -0.1169  0.1718  0.1835
25285W        W38699  10.057  10.760  12.719  0.0016  0.0587 -0.3862
25286W        W38700   1.152  16.099  13.662  0.5293  0.1836 -0.2211
25287W        W38701  13.283  11.105  15.691 -0.2268  0.2564  0.1938
25288W        W38702  15.903   5.763  15.077  0.0156  0.1601  0.0849
25289W        W38703   9.528   9.015   4.275  0.1427 -0.0792  0.1704
25290W        W38704   3.891   3.505  16.166 -0.0093 -0.2892  0.0539
25291W        W38705  12.263   8.173   1.925 -0.2250  0.1600 -0.1502
25292W        W38706   8.797  17.948  16.536  0.0737  0.0104 -0.2248
25293W        W38707  18.260  16.368  16.206  0.3222  0.0411  0.0722
25294W        W38708  14.237  17.643   2.237 -0.0022  0.6493 -0.0236
25295W        W38709   5.274   4.040   3.371 -0.2832  0.0028 -0.2043
25296W        W38710  15.347   0.608   3.728  0.1566  0.0393  0.1759
25297W        W38711  11.543  13.355  12.327 -0.1208 -0.1301 -0.1387
25298W        W38712  11.262   7.299   1.270 -0.2671 -0.0806  0.1102
25299W        W38713  13.849   7.350   3.841  0.1428  0.0330  0.0168
25300W        W38714  17.787   7.906   3.110 -0.0334 -0.2168 -0.0281
25301W        W38715   5.817  14.180   0.543  0.0817  0.1013 -0.1312
25302W        W38716  12.421  10.994   4.841 -0.0549 -0.1385 -0.0592
25303W        W38717   9.253  17.872   5.690  0.0315  0.0520 -0.3591
25304W        W38718  11.898  11.687   4.152  0.1536 -0.2133 -0.0799
25305W        W38719   9.819   6.536   0.762 -0.1259  0.0863  0.0263
25306W        W38720  16.770  17.178  11.376  0.1262 -0.0673 -0.0912
25307W        W38721  11.966   8.769   4.288  0.0374 -0.3471  0.1248
25308W        W38722  10.711   8.276  13.831  0.2037  0.1114  0.1909
25309W        W38723   6.324  11.494  11.498  0.0106  0.0768  0.2432
25310W        W38724  15.205   5.344   4.019  0.1008  0.0275  0.0640
25311W        W38725  11.876   0.606   2.994  0.2600 -0.1384 -0.0433
25312W        W38726   2.007   8.851   1.362 -0.0512 -0.1363 -0.2701
25313W        W38727   3.983  14.334   3.825  0.2365  0.2815 -0.1283
25314W        W38728   1.827   1.813  10.597 -0.2756 -0.1931 -0.0308
25315W        W38729  16.287   4.564  11.362  0.0542  0.0006  0.1175
25316W        W38730  15.905  18.194  12.723 -0.3038  0.1659 -0.0188
25317W        W38731  10.973  11.387   6.411 -0.0069 -0.1521  0.0373
25318W        W38732   2.397  17.694  12.608  0.2032 -0.0546  0.0416
25319W        W38733  10.996   7.838   4.492 -0.0145 -0.2064  0.0441
25320W        W38734   3.329  17.939   6.269 -0.0500  0.0620 -0.2435
25321W        W38735  12.286  17.103  15.277 -0.0707 -0.0330  0.1108
25322W        W38736   2.353   3.570  15.429  0.2810 -0.1942 -0.2419
25323W        W38737   6.935  12.489  15.406  0.2299  0.0216  0.3854
25324W        W38738   7.186  14.381   0.134  0.2533 -0.0976 -0.1740
25325W        W38739   8.368  13.323  15.082  0.1726 -0.2210 -0.1324
25326W        W38740  12.127   9.977   5.560  0.2130 -0.1563  0.1644
25327W        W38741  10.280   4.453  12.757 -0.2929  0.1036  0.0572
25328W        W38742   1.333   4.585   2.502  0.1301  0.0008  0.0573
25329W        W38743   9.491  14.747  12.795  0.1188  0.1182  0.2541
25330W        W38744   9.372  14.780  15.036 -0.4568 -0.1013 -0.0107
25331W        W38745  10.588   0.828  14.972  0.0132  0.0998  0.0220
25332W        W38746   5.354   5.998   0.756  0.0141 -0.0333  0.0491
25333W        W38747   7.397  13.830  12.933 -0.1320  0.1905 -0.1511
25334W        W38748   4.137  15.008  14.308 -0.0526  0.0979 -0.1409
25335W        W38749  15.535   0.684  13.367  0.1263 -0.0554 -0.3497
25336W        W38750   1.512  10.350   2.352  0.0524 -0.2328 -0.2988
25337W        W38751   3.071  10.063   1.904 -0.1088 -0.1745 -0.2970
25338W        W38752  18.258  11.277   3.917 -0.0419 -0.3994 -0.1383
25339W        W38753   8.319  13.577   4.851  0.1580 -0.3068  0.1555
25340W        W38754  17.092   3.695   1.170 -0.0471  0.2678 -0.1117
25341W        W38755   1.841   9.524  15.662  0.1828 -0.1471 -0.2606
25342W        W38756  15.916  14.130  16.117 -0.2389 -0.0668  0.1864
25343W        W38757   3.849  18.189  14.229  0.0393 -0.1333  0.1490
25344W        W38758  16.849  15.258  15.252  0.0350  0.0203 -0.0172
25345W        W38759   8.390   7.383  13.849 -0.0985 -0.1105  0.2414
25346W        W38760  16.784  12.976  11.111  0.1012 -0.1781 -0.1398
25347W        W38761   1.684  15.604  14.445  0.1402  0.1412  0.1814
25348W        W38762   6.914   7.312  13.045 -0.0513 -0.0109  0.0100
25349W        W38763   8.694  15.022  11.181 -0.3099 -0.3821 -0.1142
25350W        W38764  18.113  11.439   1.802  0.2599 -0.0969 -0.2330
25351W        W38765  14.023  17.478  12.160 -0.1601 -0.1177 -0.0392
25352W        W38766  16.429  13.546  13.212  0.0439 -0.0008  0.0677
25353W        W38767   2.349   1.051  14.855 -0.0307 -0.0777  0.0011
25354W        W38768   8.551   7.294   6.095  0.0664 -0.3175 -0.0926
25355W        W38769  14.757  11.831   3.953  0.0878 -0.1282  0.0501
25356W        W38770  14.423  13.670  12.438 -0.3905 -0.3695  0.1635
25357W        W38771  12.665  14.378  16.146 -0.2478  0.0745 -0.1734
25358W        W38772   7.036   3.054   0.025 -0.1989 -0.0522  0.1733
25359W        W38773  10.492   2.398   4.864 -0.0404 -0.0983 -0.1832
25360W        W38774  11.071   7.856  10.229  0.2840  0.1000  0.1086
25361W        W38775   5.708  16.439   0.602  0.0188 -0.0504  0.0724
25362W        W38776  12.028  12.455   1.126  0.0956  0.4175  0.2912
25363W        W38777  12.939  12.333  12.459  0.2697  0.3174 -0.0958
25364W        W38778  14.507   5.146  14.995 -0.2162 -0.0944 -0.0345
25365W        W38779  17.331  14.295  13.940 -0.4941  0.0643 -0.1337
25366W        W38780  15.771   0.283   6.315  0.3190 -0.0955 -0.1572
25367W        W38781   2.667  16.704  11.837 -0.1741 -0.1972 -0.1675
25368W        W38782  17.253  14.859  12.908  0.0782  0.2798  0.3489
25369W        W38783   2.828   7.874   5.682 -0.3630  0.3676  0.0049
25370W        W38784   5.137   0.381   6.453  0.4959  0.0615  0.2228
25371W        W38785   7.549  10.957   4.321 -0.2856 -0.1179 -0.0924
25372W        W38786  12.142  15.323   0.642  0.2009  0.2695 -0.2501
25373W        W38787  13.255   7.679  15.119 -0.4480 -0.3333 -0.1737
25374W        W38788   3.929   2.484   2.315  0.3757  0.2324  0.0479
25375W        W38789  11.372  11.599   4.930  0.1106  0.0769 -0.3085
25376W        W38790   5.222   0.739   0.963  0.0739  0.0329  0.1541
25377W        W38791  16.779  11.774  15.255  0.1704  0.2226  0.1253
25378W        W38792  11.347   6.587  13.287 -0.2657  0.1253  0.1550
25379W        W38793  15.826  10.133   0.137  0.1103 -0.1237 -0.1473
25380W        W38794   9.524   9.010  15.110 -0.1271 -0.0122 -0.3184
25381W        W38795   9.748   1.311  16.009 -0.3260  0.3157 -0.0051
25382W        W38796  17.415   4.864   0.557  0.1283  0.3569 -0.0529
25383W        W38797  15.376   6.532   0.512  0.2392  0.0236 -0.0451
25384W        W38798  11.034   0.225  12.574  0.0735  0.2406 -0.2149
25385W        W38799  15.812   8.734  14.792 -0.1211 -0.1325  0.0448
25386W        W38800   3.111   0.472   4.087 -0.0547 -0.1759  0.2980
25387W        W38801  12.409  17.865   5.542 -0.0996 -0.1097  0.2180
25388W        W38802  15.482  16.455  13.316 -0.2428  0.6405  0.1056
25389W        W38803  11.273  14.033  14.416  0.0899 -0.2104 -0.2861
25390W        W38804   8.233   6.558   5.527 -0.1353 -0.1952  0.0901
25391W        W38805  11.210  16.987   2.371  0.0248 -0.1461 -0.1245
25392W        W38806   4.146  12.896  11.697  0.1612  0.1326  0.1339
25393W        W38807  16.848  15.017   2.429 -0.0222  0.1039  0.0933
25394W        W38808   7.217   1.609   0.377 -0.0254 -0.1283 -0.3941
25395W        W38809   7.245  17.126  14.575 -0.0352 -0.1676  0.1034
25396W        W38810   5.466   9.733  12.688  0.1790  0.2146  0.1997
25397W        W38811   7.783  18.269   3.025 -0.0397 -0.1713  0.2846
25398W        W38812   8.010  16.664  14.474  0.0471 -0.0091 -0.0660
25399W        W38813  11.591   1.991  14.934  0.0835 -0.0994  0.0468
25400W        W38814  11.287   2.346  16.490 -0.0081 -0.0043  0.3375
25401W        W38815  12.068  16.529   4.949  0.2860 -0.1342 -0.1363
25402W        W38816   0.363   8.598  13.575 -0.1561  0.1615  0.1933
25403W        W38817  16.197  16.922  12.671  0.0957 -0.2146 -0.3230
25404W        W38818   2.300  13.846   6.223 -0.0265  0.1184  0.3707
25405W        W38819   3.288   3.295   5.440 -0.0626 -0.1605 -0.2217
25406W        W38820  17.877   4.100   0.595  0.4188 -0.1468 -0.3700
25407W        W38821   9.982  10.482   1.326  0.0518  0.1138 -0.0007
25408W        W38822   2.793  15.947  13.425 -0.1453  0.0202  0.1824
25409W        W38823   5.648  15.282  16.222  0.1703 -0.1162  0.3399
25410W        W38824   3.633  13.596   5.758 -0.0028  0.1320 -0.2310
25411W        W38825   9.319  10.358  15.168  0.1556 -0.2053  0.1090
25412W        W38826   8.868  10.468  10.777 -0.3630 -0.2566  0.3711
25413W        W38827   6.145  16.209   4.786 -0.2774 -0.0872  0.2061
25414W        W38828  10.173   4.810   0.283 -0.0618  0.3319  0.2018
25415W        W38829   8.666  18.141   0.489  0.0578 -0.0866  0.3608
25416W        W38830   5.436  14.146   5.003  0.2938  0.1779  0.1407
25417W        W38831   4.042  16.453   3.171 -0.0152  0.1198 -0.2322
25418W        W38832   9.107  11.736  11.054 -0.0327  0.1910 -0.0328
25419W        W38833  10.248  12.458   2.251  0.0090  0.1472 -0.0538
25420W        W38834  12.090  17.977   5.158  0.0315  0.1022 -0.0654
25421W        W38835   7.832  12.940  13.639 -0.0814 -0.0630  0.1096
25422W        W38836   7.104  10.909   2.446 -0.0136  0.0967  0.0722
25423W        W38837  14.785   0.698  14.885 -0.0092 -0.0610 -0.0543
25424W        W38838  11.402  14.666  10.993 -0.0571 -0.2832 -0.3526
25425W        W38839   0.983   0.633   0.941  0.0492  0.2138 -0.0446
25426W        W38840   7.133  15.068   9.960  0.1236  0.0472  0.0000
25427W        W38841   3.806  14.066   5.715  0.0745 -0.1966 -0.0521
25428W        W38842   8.724   9.462   4.623  0.0523  0.3368  0.0711
25429W        W38843  17.340   7.469  10.921  0.2428  0.1267 -0.0480
25430W        W38844   2.785   4.637  15.749 -0.1857  0.1537 -0.1512
25431W        W38845   9.516  13.055   4.981  0.1533 -0.1980 -0.2377
25432W        W38846   8.721  10.361   2.195  0.0431 -0.2337 -0.1861
25433W        W38847  14.298   8.107  10.819  0.2700 -0.2052 -0.0393
25434W        W38848  14.043  16.800   0.853  0.2236  0.1488  0.1391
25435W        W38849  15.165  12.207  11.270 -0.2084  0.0344 -0.0859
25436W        W38850  14.201  13.744   6.355  0.0654 -0.1985 -0.0839
25437W        W38851   5.174   6.105   5.361  0.1326 -0.0364 -0.0936
25438W        W38852  14.057   5.823  12.483  0.1822 -0.1297 -0.2661
25439W        W38853  13.873  10.047  14.635 -0.1615  0.0546 -0.0649
25440W        W38854  11.455   1.787   3.445  0.3086  0.3466 -0.0019
25441W        W38855   5.511  14.326  12.936 -0.0528  0.2473 -0.5124
25442W        W38856   5.938  17.514  14.715  0.1558 -0.0253 -0.0439
25443W        W38857  10.083   9.592   0.252  0.0820  0.3839  0.0189
25444W        W38858   1.789   7.170   1.724  0.0668  0.2182 -0.0663
25445W        W38859   0.281   6.536   1.715 -0.4632  0.1338 -0.1978
25446W        W38860  12.713   9.984   3.545 -0.0003  0.0604 -0.2396
25447W        W38861   3.364   5.246  14.720 -0.0350 -0.4329 -0.0978
25448W        W38862  14.774  12.483   1.264 -0.0012  0.1884 -0.2410
25449W        W38863   2.033   9.678  15.232  0.1743  0.1796  0.1393
25450W        W38864  18.116   4.430   9.856 -0.1199 -0.0836 -0.0398
25451W        W38865   8.602  17.054  13.499 -0.3038 -0.0532  0.2602
25452W        W38866   5.904  14.562   4.135  0.1726  0.1205 -0.2115
25453W        W38867   6.822  11.650   0.014  0.0848 -0.0974  0.0997
25454W        W38868  15.000  17.396  12.209  0.0442 -0.1946 -0.1099
25455W        W38869   8.750   2.328   0.599  0.0932  0.0310 -0.4870
25456W        W38870   2.194  16.601   5.358 -0.0312 -0.1242 -0.3414
25457W        W38871  13.806  10.746  13.129  0.0685  0.1974 -0.0471
25458W        W38872  15.485  12.691   2.133  0.0433  0.1340  0.0000
25459W        W38873  17.218   9.721  11.331  0.1665  0.0664  0.4786
25460W        W38874  16.926   7.519   4.700 -0.3333 -0.3408 -0.1716
25461W        W38875  10.852   6.419  14.916 -0.2374 -0.1285  0.1264
25462W        W38876   9.043   1.258  11.350  0.0733  0.1599 -0.0100
25463W        W38877   1.746  16.281  16.424  0.0337 -0.0510 -0.4192
25464W        W38878  15.617   8.546  14.016 -0.1481  0.2265 -0.2620
25465W        W38879  14.575   2.706   5.762 -0.0807  0.1810 -0.0213
25466W        W38880   7.677   3.326  12.799  0.1471 -0.1511  0.0076
25467W        W38881  12.951   8.440   0.316  0.0515 -0.0566 -0.1287
25468W        W38882  17.423   6.693  10.393 -0.0040  0.1519  0.3971
25469W        W38883  17.100  10.390   0.130 -0.1069 -0.0302  0.0008
25470W        W38884  16.326  14.772   2.281  0.1008 -0.1096  0.1032
25471W        W38885   0.640   0.798   2.667  0.6762 -0.0059  0.2672
25472W        W38886  15.660   4.068  14.507 -0.3339  0.0618 -0.0962
25473W        W38887  14.075   8.295  12.711 -0.1360  0.0982 -0.0893
25474W        W38888  10.910  18.239   2.732 -0.3854  0.0727 -0.2540
25475W        W38889  13.440  13.886   5.291 -0.0405 -0.0731  0.1695
25476W        W38890  15.720  13.030   1.416  0.2894  0.0415  0.1099
25477W        W38891  10.578   3.497  11.958 -0.0682 -0.0552  0.2819
25478W        W38892   5.258   8.509   0.701 -0.1674 -0.3224  0.2705
25479W        W38893   7.818  15.412   3.567 -0.1402  0.1056  0.1712
25480W        W38894  10.831   4.974  11.108  0.3173  0.3313  0.2405
25481W        W38895   4.151  13.107  13.917  0.0433 -0.1817  0.1730
25482W        W38896   9.272   6.480   0.110 -0.1573  0.0966  0.1435
25483W        W38897   7.770   3.748   5.183  0.2302 -0.3049  0.1253
25484W        W38898   5.782  14.589  11.387  0.0842  0.1288 -0.3332
25485W        W38899   7.587   3.427   1.651  0.1486 -0.1447  0.1492
25486W        W38900   8.166   2.341  16.364 -0.3807 -0.1590 -0.0870
25487W        W38901   0.859   6.336   5.004  0.0556 -0.2470 -0.1069
25488W        W38902  15.749   5.204  16.248 -0.3531  0.2754  0.0247
25489W        W38903  16.833   5.473  15.218  0.0395  0.0476  0.0925
25490W        W38904   2.146   1.807  11.667  0.0884 -0.0078  0.0912
25491W        W38905   6.748  14.430   2.740  0.0214 -0.2470 -0.1676
25492W        W38906   2.873  17.393  16.143 -0.1692 -0.0821 -0.1000
25493W        W38907  12.879   6.732  14.170 -0.2114 -0.1600 -0.1163
25494W        W38908   8.969   1.852   3.498  0.2666  0.0048  0.3500
25495W        W38909  12.165  14.591   2.976  0.1797  0.1392  0.0775
25496W        W38910  16.817  13.529   4.934  0.2744 -0.3259 -0.1712
25497W        W38911   5.838   3.600  10.978  0.3754 -0.0714  0.1127
25498W        W38912  14.179   5.082  12.988 -0.3747 -0.2964  0.0946
25499W        W38913   5.400  13.827   3.298 -0.1158 -0.3724  0.1995
25500W        W38914   8.497   5.739  13.844 -0.0430  0.2536 -0.0953
25501W        W38915  16.551  13.354  10.830  0.1189 -0.1218 -0.1185
25502W        W38916  12.392   3.054  14.593  0.0943  0.1786  0.1426
25503W        W38917  17.390  17.048  16.030  0.1904  0.0227  0.3237
25504W        W38918  10.785   8.958   2.463 -0.2467 -0.1496  0.0840
25505W        W38919  13.483   9.562  11.489  0.2460 -0.2096  0.0492
25506W        W38920  16.967   4.853   2.153  0.0386 -0.0001 -0.0479
25507W        W38921  12.727   4.535   3.115  0.2192  0.2052  0.4348
25508W        W38922   7.199   3.640  11.801 -0.3426 -0.2299 -0.0905
25509W        W38923   9.541  16.878  15.601 -0.1076 -0.1198  0.1395
25510W        W38924  14.713   3.637   4.547 -0.0444  0.0805 -0.2990
25511W        W38925   1.241   9.930   4.605 -0.0109 -0.0492 -0.2523
25512W        W38926  12.084  15.165   4.762 -0.0988 -0.0167 -0.1166
25513W        W38927  13.099   7.920   4.886  0.2909  0.2398 -0.2548
25514W        W38928  15.666   5.996  15.886  0.5199 -0.0931  0.1623
25515W        W38929  17.482  17.959  10.945  0.1048 -0.0956  0.2135
25516W        W38930  13.181   5.897   1.098  0.1414  0.0486  0.2199
25517W        W38931  15.768  11.317   5.364 -0.1800 -0.1411 -0.0596
25518W        W38932  10.535   2.574  12.024  0.0060 -0.2287  0.0898
25519W        W38933  13.542  17.871  15.092  0.1701 -0.1143  0.1699
25520W        W38934   8.265  17.350  13.100 -0.1187 -0.0375 -0.0418
25521W        W38935   9.596   8.595   5.125  0.0234 -0.1736  0.0670
25522W        W38936  15.644   9.752  16.397  0.1419  0.0357  0.1099
25523W        W38937  12.725   3.595   2.000  0.0453  0.1541  0.0513
25524W        W38938   4.094   0.403  16.217 -0.0347  0.2310  0.0471
25525W        W38939  16.416  10.987   1.714  0.1205  0.0880 -0.1034
25526W        W38940  12.885   0.546  14.598 -0.1423 -0.0113  0.1049
25527W        W38941  17.457   8.330   5.576  0.3134  0.0555 -0.1896
25528W        W38942   8.348   8.415  11.274  0.1634  0.3427 -0.1903
25529W        W38943   6.084   3.920   6.099  0.1918 -0.0452  0.3135
25530W        W38944   5.001  16.579  11.031 -0.2803  0.2069  0.0879
25531W        W38945   6.067  16.881  15.587  0.2901 -0.1785  0.0071
25532W        W38946   0.215  16.922   0.479  0.0428  0.1420 -0.3223
25533W        W38947  13.174  11.107   1.037 -0.2008 -0.0918  0.2364
25534W        W38948   5.667   6.655  12.394  0.2691 -0.1816 -0.0568
25535W        W38949   5.278   2.613   2.979 -0.1363  0.0071  0.2416
25536W        W38950  11.605   5.473   0.930 -0.2520 -0.0612  0.1375
25537W        W38951  13.156   9.453  15.744  0.1056 -0.0514  0.1932
25538W        W38952  15.652   3.675   4.195 -0.1016 -0.1982 -0.1351
25539W        W38953  13.133  14.115  15.536 -0.0156 -0.3825  0.2170
25540W        W38954   0.366  12.907   0.163  0.1013  0.0556 -0.3072
25541W        W38955   6.015   6.322  12.965 -0.2896  0.0848  0.3376
25542W        W38956   8.189   7.780   1.806 -0.1696  0.2306  0.0372
25543W        W38957   4.089   0.699  11.846 -0.1939  0.0397  0.0125
25544W        W38958  18.102   3.024  11.787  0.1149  0.0059 -0.2085
25545W        W38959  15.956  11.207   0.346  0.2791  0.4021 -0.2024
25546W        W38960  17.943   6.760   0.112 -0.0320  0.1422  0.3303
25547W        W38961  12.099   4.495   1.154  0.0568  0.0026  0.2413
25548W        W38962   9.591  11.630  12.491  0.0843 -0.1501  0.0304
25549W        W38963   2.146   5.288   4.701 -0.2163  0.3319  0.1388
25550W        W38964  13.974  17.195   6.539  0.0710  0.1251 -0.2053
25551W        W38965   4.044   7.632  13.378 -0.1990  0.1021  0.3384
25552W        W38966   6.433   6.256  15.409  0.1854  0.2096  0.1139
25553W        W38967   7.381   9.472  15.971  0.0134 -0.2416 -0.0363
25554W        W38968   2.081   5.743  15.118  0.2051 -0.2395  0.1089
25555W        W38969  17.902  10.993  15.322 -0.1844  0.0088  0.1296
25556W        W38970   3.858   5.649  11.490  0.0712  0.0279 -0.0792
25557W        W38971   7.015   8.449   4.138 -0.0927 -0.0857  0.0909
25558W        W38972   5.032   4.486  13.842 -0.1215 -0.1311  0.1389
25559W        W38973   1.199  17.486  14.550 -0.2014  0.1003  0.1657
25560W        W38974   9.245  17.830   1.970 -0.0338 -0.1214 -0.0014
25561W        W38975  15.297  11.493   3.675 -0.0952  0.2741 -0.1980
25562W        W38976  11.429   9.280   1.048 -0.3254 -0.3633 -0.0907
25563W        W38977  10.231   0.909  14.319 -0.0977  0.3054  0.1334
25564W        W38978   6.795  16.905   5.746 -0.0835 -0.3704  0.2178
25565W        W38979  12.691  14.013  14.779 -0.2072 -0.0231  0.4080
25566W        W38980   6.041   8.811   4.623 -0.1263 -0.1967  0.0120
25567W        W38981   3.147  10.214  15.930 -0.1461  0.0150  0.3146
25568W        W38982   0.157   9.545  13.206 -0.1353 -0.1148  0.3642
25569W        W38983   2.061   3.981   5.036  0.0488  0.0275 -0.0920
25570W        W38984   4.090   4.918  15.979 -0.2198 -0.3310  0.1956
25571W        W38985   0.207   8.892   4.559 -0.0365 -0.4052  0.0030
25572W        W38986  16.970  17.002   1.520  0.0728 -0.1262 -0.1365
25573W        W38987  13.601   8.378   0.275 -0.0285  0.1853 -0.1818
25574W        W38988   6.033  10.504   0.476  0.3939  0.0575  0.2550
25575W        W38989   2.652   9.706   4.920 -0.4429 -0.0659 -0.1545
25576W        W38990   0.186   6.622  16.065 -0.3633 -0.0631  0.0744
25577W        W38991   0.186   5.487  16.393 -0.2471 -0.0062 -0.0136
25578W        W38992   0.878  15.566  11.656  0.0761 -0.0771 -0.3277
25579W        W38993  16.746   8.855  15.424 -0.0428  0.0617  0.3503
25580W        W38994   5.523  13.231  15.060 -0.0792  0.0877  0.1364
25581W        W38995   2.683  13.968  10.725  0.1845 -0.0731  0.2707
25582W        W38996  12.249  17.338   3.016 -0.4298  0.1432 -0.1080
25583W        W38997   4.137   2.175  15.806  0.0802 -0.4805  0.1744
25584W        W38998   4.866   1.765   5.117 -0.0164 -0.1943  0.0008
25585W        W38999  10.566  14.153  12.382 -0.2673  0.1227  0.1314
25586W        W39000  14.280   8.111   4.198 -0.0276  0.2921 -0.1104
25587W        W39001  10.501   3.291   3.795 -0.0069  0.0450  0.1896
25588W        W39002   5.378   3.523  13.092 -0.1072  0.4260 -0.1074
25589W        W39003   2.227   0.868   3.381 -0.1780  0.1819  0.1039
25590W        W39004   2.283   2.307  11.618  0.1454 -0.0711 -0.0414
25591W        W39005  16.916   5.084   1.699  0.1386 -0.3165 -0.1873
25592W        W39006  17.179  10.187   3.849  0.0291 -0.0657  0.1034
25593W        W39007   5.425  11.801   2.059  0.3245  0.3568 -0.1940
25594W        W39008   4.919  13.568  15.735  0.2019 -0.2670  0.2650
25595W        W39009   9.989  17.875   2.990  0.2481  0.0098  0.2659
25596W        W39010   4.537  13.447   3.101  0.0022 -0.0208 -0.0941
25597W        W39011   7.847   7.128   3.376  0.0342 -0.1501  0.1760
25598W        W39012   4.292  17.231  11.454 -0.0148 -0.1279  0.0517
25599W        W39013   3.777   0.300   3.189  0.1813 -0.0662 -0.1943
25600W        W39014  14.565   7.939   4.639 -0.0668 -0.0744 -0.0117
25601W        W39015  16.864   6.882   1.127 -0.0586  0.0076  0.2435
25602W        W39016   7.676  10.142  12.880  0.2582  0.1296 -0.1168
25603W        W39017   6.933   7.863  13.030  0.1720 -0.2354 -0.1266
25604W        W39018  12.358   3.210  10.863 -0.1703 -0.0754 -0.0988
25605W        W39019  11.238   1.669  11.001  0.1887  0.4274  0.1775
25606W        W39020  14.778  17.355  10.242  0.1137  0.2707 -0.3056
25607W        W39021  12.329  11.824  12.339 -0.2069  0.3588 -0.2054
25608W        W39022   6.114  16.744  13.943  0.1865  0.1148  0.2119
25609W        W39023  11.878   2.297   2.561  0.0651  0.1071  0.1336
25610W        W39024   6.561  18.087   2.080 -0.0667  0.0921  0.0650
25611W        W39025  16.303   0.033   6.194  0.2361 -0.0724  0.1319
25612W        W39026  16.991  17.837  14.758  0.1410 -0.2747  0.1862
25613W        W39027   9.155   1.433   1.660 -0.2174  0.0054 -0.0371
25614W        W39028   5.040   7.020   0.413 -0.0861  0.0999 -0.0206
25615W        W39029   6.956  12.088  16.414 -0.1546 -0.1031  0.1865
25616W        W39030  13.840   9.362   3.271  0.0426 -0.4370  0.1987
25617W        W39031   2.640  12.589  12.609 -0.2503 -0.1448 -0.0252
25618W        W39032  11.785   6.069   2.331 -0.1421 -0.0649 -0.0898
25619W        W39033   9.742  11.098  10.064 -0.0745  0.3169  0.1961
25620W        W39034   5.151   8.941   1.915 -0.2295  0.0299 -0.0410
25621W        W39035   7.673   9.827  11.442  0.2444 -0.0287 -0.5282
25622W        W39036  13.597   4.345  10.293 -0.0615 -0.0565  0.1300
25623W        W39037   0.855  12.216   3.636 -0.2410 -0.1523  0.1089
25624W        W39038   3.577   1.496  15.475  0.1686  0.1980 -0.2980
25625W        W39039   6.315   0.362  14.497  0.0221 -0.0466 -0.0964
25626W        W39040  15.221   7.290  13.182  0.1058  0.0154  0.4655
25627W        W39041  17.708   9.520  11.527 -0.1378 -0.3766  0.4471
25628W        W39042  17.455  16.259  15.060  0.0488  0.2917 -0.1039
25629W        W39043   6.099  18.070   4.063 -0.3053  0.2490  0.0937
25630W        W39044  17.807   4.587  14.325 -0.0684 -0.1004  0.0717
25631W        W39045   5.593   4.406  12.686  0.1215  0.1674 -0.0463
25632W        W39046   6.318  12.223   3.110 -0.0733 -0.1487  0.1351
25633W        W39047  13.296   0.166   0.608  0.1317  0.0506 -0.0492
25634W        W39048  14.371  11.481   4.107 -0.0703 -0.2196 -0.1910
25635W        W39049  17.153   9.494   2.697 -0.3605 -0.1924  0.0479
25636W        W39050  13.969  17.974  11.437 -0.2506 -0.3798  0.1998
25637W        W39051   6.363   0.977  13.729  0.2166  0.0424 -0.0320
25638W        W39052   7.577  11.252  15.940 -0.1409  0.0849 -0.1885
25639W        W39053  13.252   4.437   0.867  0.2791 -0.1646  0.0636
25640W        W39054   8.968  16.741   3.227  0.3393 -0.3691 -0.1077
25641W        W39055  13.937  18.103   4.693  0.0125 -0.1943  0.0413
25642W        W39056  16.218  16.010  16.430  0.0646 -0.0172  0.1207
25643W        W39057  16.723   5.232   9.803 -0.1356 -0.0728  0.1560
25644W        W39058   3.084   7.327  10.642 -0.4334  0.4496 -0.2654
25645W        W39059   2.308  12.485   4.997 -0.3411  0.1052 -0.0767
25646W        W39060   3.055  11.665  11.938 -0.0440  0.0991 -0.2319
25647W        W39061  10.300   1.650  11.878  0.0245  0.1175 -0.2445
25648W        W39062  13.530  17.743   3.221  0.0602 -0.3237  0.0235
25649W        W39063   9.163   2.918   0.084 -0.1931  0.0628  0.3598
25650W        W39064  10.977   2.730   4.544  0.2114  0.0943 -0.2937
25651W        W39065  11.445   9.020   2.446  0.4102  0.1973  0.1660
25652W        W39066   2.033   9.934  14.540  0.0943  0.0186  0.0426
25653W        W39067   7.927   9.399   3.295 -0.1649 -0.2603  0.1114
25654W        W39068  17.412   7.890   5.304 -0.2011  0.0026 -0.0252
25655W        W39069  11.302   0.253   6.177 -0.0741 -0.2963 -0.1087
25656W        W39070   6.001   8.161  12.093  0.2439 -0.0977 -0.0232
25657W        W39071  13.555  15.343  11.320 -0.0876  0.1139 -0.0924
25658W        W39072   9.294  11.529  12.894 -0.1016 -0.0851  0.0230
25659W        W39073  14.336   2.034   5.154 -0.1209 -0.0515 -0.2619
25660W        W39074   4.006   1.363   4.084  0.0097  0.2258  0.0713
25661W        W39075   2.079  15.720   3.751 -0.2268 -0.0888 -0.0575
25662W        W39076   6.078  11.583   4.645 -0.3516 -0.1437 -0.3489
25663W        W39077   6.073  13.737  15.513 -0.0273  0.1759 -0.3098
25664W        W39078  16.183   2.728  12.339  0.0072 -0.1391  0.0742
25665W        W39079   2.390   5.430  13.327  0.1942  0.0519 -0.1543
25666W        W39080   4.723   6.855   1.962  0.1791  0.1470 -0.2267
25667W        W39081   1.449   2.469   2.412  0.1904 -0.1512 -0.0225
25668W        W39082   5.366  16.662   6.022 -0.2312 -0.2067 -0.0463
25669W        W39083   3.526  12.475   5.212  0.0391 -0.0011 -0.3908
25670W        W39084   6.878   6.663  14.247  0.2039 -0.3986 -0.2730
25671W        W39085  16.390   2.029  11.866  0.0793 -0.0002  0.3388
25672W        W39086  16.617  11.316   5.878 -0.3610 -0.1726 -0.1547
25673W        W39087  16.347  15.269   5.291  0.0196 -0.2090 -0.2624
25674W        W39088   5.424  14.720   4.299  0.0353  0.1666 -0.0660
25675W        W39089   5.370   2.764  12.229  0.2318 -0.0256 -0.1299
25676W        W39090   8.685  12.003  14.456  0.0194 -0.2384 -0.3293
25677W        W39091   2.339   1.795  14.661 -0.2991 -0.1672 -0.0605
25678W        W39092  12.276  13.827   3.367 -0.0107 -0.0559  0.0782
25679W        W39093  12.518   7.855   3.611 -0.0635 -0.0448 -0.1881
25680W        W39094  17.119   5.867   2.165  0.0282 -0.0056  0.5403
25681W        W39095  15.404  15.507   3.004  0.2213  0.3345 -0.0366
25682W        W39096   0.175  17.416  15.076  0.0959 -0.1786 -0.2673
25683W        W39097   9.659  15.180  11.419  0.0951  0.2899  0.0708
25684W        W39098   4.413  14.989   4.993  0.1416  0.0130 -0.0641
25685W        W39099  14.854  12.610   3.088  0.0070 -0.1741  0.0207
25686W        W39100  10.533  13.771  15.428 -0.1168 -0.2938 -0.0451
25687W        W39101   5.017   4.752   0.942  0.2030 -0.4197 -0.0985
25688W        W39102   6.328  15.384   4.447  0.1679  0.3367  0.1550
25689W        W39103   7.081   4.998  11.037  0.3638  0.3550 -0.0791
25690W        W39104  14.964  15.495   0.840 -0.0364 -0.0927  0.1673
25691W        W39105   6.019   9.434  11.805 -0.2151 -0.0826  0.3013
25692W        W39106  18.022   1.717   3.822  0.0308  0.0184 -0.0883
25693W        W39107   4.748  12.175  14.170  0.3017 -0.0308  0.1650
25694W        W39108   0.434   3.848  16.493  0.2980 -0.1026 -0.1486
25695W        W39109   4.986  17.939   2.189 -0.0166  0.3573 -0.2057
25696W        W39110   7.597  12.942   4.038 -0.0145 -0.1790 -0.1074
25697W        W39111  14.191  10.625  15.956  0.1062  0.1570  0.2533
25698W        W39112  10.512  11.447   5.426  0.2531  0.0897  0.0434
25699W        W39113   5.819  12.100   1.177  0.4441 -0.1012  0.1468
25700W        W39114  13.200  16.593   3.871  0.0934 -0.1286  0.0906
25701W        W39115   0.978   4.568  14.019 -0.1038  0.3040  0.2118
25702W        W39116   3.809  16.055   4.608  0.1544  0.0420  0.1711
25703W        W39117  17.218  11.979  12.823  0.1124 -0.2121  0.0872
25704W        W39118  10.598   5.344   3.043 -0.0053 -0.3779 -0.0814
25705W        W39119   6.565   5.679   2.808  0.1195  0.2084 -0.0022
25706W        W39120   1.925   6.948  16.051  0.2863 -0.1344 -0.2167
25707W        W39121   2.729   0.641  11.804  0.0436 -0.0518 -0.1376
25708W        W39122   0.457   4.733   1.163  0.1732  0.0204 -0.1327
25709W        W39123  15.062  16.327   2.353  0.1578 -0.0228  0.5035
25710W        W39124   4.257  15.804  13.985  0.1419  0.0170  0.2959
25711W        W39125  16.690  10.496   0.901  0.1243  0.0089 -0.0237
25712W        W39126   7.348  12.846   0.159 -0.0187 -0.1982  0.0865
25713W        W39127  13.507  11.133   2.168  0.1290 -0.0518 -0.0473
25714W        W39128   9.725  14.816   4.525  0.0691  0.0554 -0.1320
25715W        W39129   7.668  12.312  10.180 -0.3722  0.1158  0.2661
25716W        W39130   0.051   5.348  13.859  0.1351  0.0655  0.0217
25717W        W39131   1.924   1.796  16.228  0.1094 -0.0934 -0.2984
25718W        W39132  15.249   7.674   1.266  0.0616 -0.4087 -0.0991
25719W        W39133  15.535   6.482  15.706 -0.0869 -0.2844  0.0978
25720W        W39134   8.039   2.469   2.473 -0.3094  0.2139 -0.1219
25721W        W39135   8.762  14.998  14.304 -0.0406  0.0206 -0.1056
25722W        W39136   2.238  15.472  13.086 -0.0515 -0.3538  0.0645
25723W        W39137   3.199   4.786   1.747  0.0258 -0.1442 -0.0774
25724W        W39138   6.430  15.316  11.326  0.3163  0.1776  0.1199
25725W        W39139   5.994   1.403   6.073  0.1572  0.0072 -0.1434
25726W        W39140  12.801   7.033  15.914  0.2303 -0.0204  0.1030
25727W        W39141   6.514  11.837  11.798  0.0284  0.0595 -0.2240
25728W        W39142   6.187   7.102  15.886 -0.1510 -0.3114 -0.2413
25729W        W39143   0.375   8.345  11.944  0.1385 -0.1865 -0.1624
25730W        W39144  10.460   0.442  14.239 -0.2014 -0.1288  0.1008
25731W        W39145   0.056   1.827   0.102  0.0040 -0.0290 -0.0202
25732W        W39146   5.524   4.553  13.228  0.2823 -0.2282  0.1431
25733W        W39147   4.155   8.402  13.922 -0.0849 -0.0931 -0.1115
25734W        W39148  11.223   2.279  15.895  0.2305 -0.1191 -0.3138
25735W        W39149  12.747  17.722   3.974 -0.1528 -0.0345  0.3490
25736W        W39150  18.074   6.402  15.914  0.0854  0.3396 -0.0752
25737W        W39151   8.733   1.932  13.978 -0.0819  0.0219 -0.0893
25738W        W39152   4.884  14.466  12.992 -0.1390 -0.1847 -0.0618
25739W        W39153   3.908   0.099   2.561  0.1463  0.0022 -0.0303
25740W        W39154  10.733  17.389  13.244 -0.1042 -0.0784  0.1533
25741W        W39155  15.317   6.770  13.203  0.1233 -0.1423 -0.2089
25742W        W39156  15.578  16.650   3.940  0.2229  0.1734  0.1962
25743W        W39157  13.558   1.111  16.234 -0.1409 -0.2344 -0.0527
25744W        W39158   4.982  14.819   2.313  0.0494 -0.0388  0.2577
25745W        W39159  10.311   6.936   0.686  0.1209 -0.0777  0.2144
25746W        W39160  10.075   9.377   1.077  0.0135  0.2329 -0.4104
25747W        W39161   0.515   3.448   0.725 -0.0293 -0.0521 -0.0579
25748W        W39162  17.520   4.130   4.106 -0.0813  0.1827 -0.0330
25749W        W39163  14.157   5.499   3.710 -0.4280 -0.2046  0.3356
25750W        W39164   7.776   6.977   4.813 -0.3760 -0.2555 -0.2521
25751W        W39165   3.382  12.882  14.324 -0.1571 -0.0221 -0.2541
25752W        W39166   9.826  12.117  12.888 -0.0059  0.0561  0.0136
25753W        W39167   0.966   7.658   3.662  0.1647 -0.1677  0.4211
25754W        W39168  17.109  12.487  11.061  0.2736 -0.3675  0.2759
25755W        W39169   0.373  16.795  12.104  0.0126  0.1068  0.0883
25756W        W39170   1.291   5.779  11.017 -0.0176 -0.2770 -0.0892
25757W        W39171   4.854  16.722   0.346 -0.2521 -0.0048  0.2239
25758W        W39172  17.656  14.140  15.650 -0.0963  0.1120 -0.0705
25759W        W39173   0.648  12.297  14.009 -0.1789 -0.0311 -0.3285
25760W        W39174  14.067   3.036   2.641  0.0854 -0.3381  0.0674
25761W        W39175  13.921   3.184  12.841 -0.2377 -0.2208 -0.2321
25762W        W39176  12.183  11.448   2.238  0.0248  0.0475 -0.0882
25763W        W39177  12.607  16.457  12.546 -0.1307 -0.0129 -0.1335
25764W        W39178   0.467  13.489   3.543 -0.1536 -0.2905 -0.0531
25765W        W39179  12.384   4.297   5.032  0.0321  0.2348  0.0320
25766W        W39180   0.640   8.916   1.430  0.1666 -0.0608 -0.0456
25767W        W39181  13.173  15.579  14.808 -0.1272 -0.1883 -0.1515
25768W        W39182   7.896   4.716  15.404 -0.2277  0.1820 -0.0482
25769W        W39183  13.336   9.108   2.108 -0.0941  0.1989 -0.2671
25770W        W39184  11.664  10.949   0.138  0.2471  0.4760  0.2510
25771W        W39185   8.495  11.224   2.204 -0.2302 -0.2086 -0.2997
25772W        W39186  13.571   1.691  11.567 -0.3549 -0.2599  0.0439
25773W        W39187   2.820  14.128  15.354  0.0035 -0.2856 -0.0319
25774W        W39188  10.245  17.719  12.460  0.1788  0.1288  0.3823
25775W        W39189   3.284   8.000  11.349  0.2969  0.3838  0.0075
25776W        W39190  12.887  16.456  14.615  0.0035 -0.3747 -0.0209
25777W        W39191  18.181   0.047  11.425 -0.4905  0.1360  0.2275
25778W        W39192   0.314  15.282   6.185  0.0434  0.1028 -0.5294
25779W        W39193  13.983  16.188  11.324  0.0034 -0.3138  0.2515
25780W        W39194  14.482   4.798   2.964  0.0004  0.0490 -0.2139
25781W        W39195  16.107  18.264   4.334 -0.0324 -0.1250  0.0949
25782W        W39196  10.890  10.957   1.795 -0.2201 -0.1809 -0.1089
25783W        W39197   2.760  11.419  15.182  0.0087 -0.0744 -0.0859
25784W        W39198   4.002   3.072   1.114 -0.0202  0.1523 -0.1290
25785W        W39199  15.240  11.201  12.164 -0.1222 -0.2217 -0.4424
25786W        W39200   1.343  13.119   4.322 -0.1331  0.3069 -0.0271
25787W        W39201  16.956   9.198   0.925 -0.3558 -0.0846 -0.0233
25788W        W39202  15.204   2.916  15.355  0.0114  0.2303 -0.1610
25789W        W39203   4.567  11.752  15.860  0.0105  0.1272  0.4319
25790W        W39204  10.152  10.321  10.966  0.0977 -0.1038 -0.1528
25791W        W39205   4.237   7.221  10.773 -0.0170  0.0001  0.1545
25792W        W39206  17.486   7.936  12.190 -0.2273 -0.1466 -0.1908
25793W        W39207   5.861   2.889  11.913 -0.3152  0.1157  0.1460
25794W        W39208   6.441  12.135  16.365  0.4299 -0.0994 -0.0070
25795W        W39209  12.920  11.234  12.531 -0.3291 -0.0940 -0.2696
25796W        W39210  18.094   4.401   4.586  0.0363  0.0899 -0.0702
25797W        W39211   5.678   2.866   3.186 -0.1168  0.0060  0.1143
25798W        W39212  16.356   9.219  12.482 -0.1407 -0.0658  0.0058
25799W        W39213   2.946   5.052   3.702 -0.2138  0.0689  0.0573
25800W        W39214   2.128   4.753  11.976  0.3733 -0.2981 -0.0372
25801W        W39215   6.501  18.147   3.493  0.0769 -0.1704 -0.0802
25802W        W39216  13.542  11.094   1.469  0.0401 -0.0544 -0.0299
25803W        W39217   2.339   3.444   0.485 -0.0133 -0.1695  0.1185
25804W        W39218  11.112  16.261  13.986  0.2707 -0.1265  0.2309
25805W        W39219   7.039  10.226  13.610 -0.1736 -0.1968 -0.0261
25806W        W39220  12.866   5.645  14.171 -0.4100  0.0181 -0.2484
25807W        W39221   4.899   8.248  13.734 -0.1481  0.1274 -0.0529
25808W        W39222  12.008  10.501   2.502 -0.2354  0.0038  0.1588
25809W        W39223  15.282  16.216  11.247  0.1860  0.1741 -0.2465
25810W        W39224  12.859  15.379  10.569 -0.2470  0.0925  0.3835
25811W        W39225  16.933   9.648  15.948  0.0203  0.2207 -0.0413
25812W        W39226   5.463  16.553  12.283  0.2283 -0.0557  0.0254
25813W        W39227  10.062   1.652  13.051 -0.0555 -0.1979 -0.0493
25814W        W39228   6.051  11.374  16.145 -0.0961 -0.3620  0.0548
25815W        W39229   0.475   0.979  11.853  0.1178  0.1013 -0.2035
25816W        W39230   3.486  14.554   4.090 -0.2458  0.0494  0.0713
25817W        W39231   2.712  13.502   0.498 -0.3706  0.1285  0.0935
25818W        W39232   0.147   8.240  13.862  0.0125  0.0876 -0.0240
25819W        W39233   0.210  16.836   2.134  0.2538  0.0404  0.2490
25820W        W39234  18.276   2.972   4.333 -0.0332 -0.1656  0.0167
25821W        W39235   6.925   9.433   1.306  0.0333  0.0400  0.0609
25822W        W39236   2.606   5.375  15.326  0.0373  0.0889  0.0033
25823W        W39237   5.959   5.825  15.970 -0.0411 -0.1760 -0.0238
25824W        W39238  18.043   2.576  15.422 -0.2756  0.3160 -0.0779
25825W        W39239   1.097   2.442   1.592 -0.1701  0.1618 -0.4286
25826W        W39240   7.423  11.500   1.320 -0.0040  0.2983 -0.0696
25827W        W39241  13.785   7.859  14.254 -0.0894  0.0354  0.2282
25828W        W39242  14.705  11.401   3.683  0.2874  0.0194 -0.1328
25829W        W39243   5.400  15.486   0.106  0.1349 -0.3553  0.2464
25830W        W39244  17.025   8.221   3.061 -0.0067 -0.2992 -0.3233
25831W        W39245   7.234   3.753   0.099  0.0895 -0.3595 -0.2123
25832W        W39246  16.353  14.266   0.872  0.1138  0.0341 -0.1744
25833W        W39247   7.640   5.814  11.150  0.3101 -0.2875  0.2022
25834W        W39248   2.923  11.111  11.889  0.0398 -0.0695 -0.1288
25835W        W39249  11.511   8.944   1.449  0.2792  0.1794  0.3620
25836W        W39250   4.842   1.606   0.870 -0.0130  0.0564 -0.2028
25837W        W39251   5.558   8.980  13.755 -0.1981  0.0140  0.1146
25838W        W39252  14.794   9.966   3.532 -0.1040 -0.3030  0.1241
25839W        W39253   2.608  15.044  13.588  0.0196 -0.0040 -0.0247
25840W        W39254  11.323   4.524  14.030 -0.2110  0.1707 -0.0804
25841W        W39255   4.049  11.243   2.355  0.2452  0.0916 -0.1437
25842W        W39256  13.844   6.767  12.422  0.0090  0.1030  0.2114
25843W        W39257  17.042  14.420  11.988 -0.0092 -0.0567 -0.2887
25844W        W39258  17.271   9.081  15.410 -0.0973  0.0822  0.1011
25845W        W39259  10.839  12.603  13.124  0.1079  0.2459 -0.1446
25846W        W39260   6.104  17.559  10.802  0.1997  0.2856 -0.2985
25847W        W39261  14.919   0.349   1.811 -0.2590 -0.0833 -0.1095
25848W        W39262  15.984  13.513   4.010  0.0826  0.0788 -0.0960
25849W        W39263   6.359   1.336  13.355 -0.2115  0.3741  0.1820
25850W        W39264   0.458  17.791  15.359  0.0227 -0.2031  0.1789
25851W        W39265   5.738   0.755  15.657  0.1194  0.0911 -0.1792
25852W        W39266   0.314   8.202  11.495 -0.0379  0.4315  0.0847
25853W        W39267   0.822   1.185  13.683  0.1299 -0.1104 -0.0764
25854W        W39268   0.118  14.159  13.464  0.0821  0.1656  0.1250
25855W        W39269  12.464   5.802  10.288 -0.0610  0.0431 -0.0808
25856W        W39270   8.694   2.972  12.848  0.0180 -0.0927 -0.3863
25857W        W39271   1.111   5.257   1.460  0.0259 -0.1436  0.0297
25858W        W39272   8.834   0.757   5.331  0.5561 -0.0286 -0.1023
25859W        W39273   0.165   5.667   4.115  0.2270  0.3032  0.1039
25860W        W39274  16.037   0.968   4.490 -0.2674  0.0385 -0.1302
25861W        W39275   9.975   2.743   5.268 -0.2295  0.0172  0.1714
25862W        W39276   7.136   8.207   4.800 -0.1152  0.1458  0.3326
25863W        W39277   5.348   2.506  12.699 -0.0303 -0.0905  0.1376
25864W        W39278   7.002  14.743  12.702  0.0957  0.3012  0.2783
25865W        W39279  16.089  14.804  14.369  0.0791 -0.0488  0.0819
25866W        W39280   7.647  15.114  13.795 -0.1057  0.2967  0.0734
25867W        W39281   6.646  13.947  10.972 -0.1005  0.1880  0.3675
25868W        W39282   3.578   6.815   0.740  0.0001 -0.1361  0.0316
25869W        W39283  10.565  13.705  15.971 -0.2978 -0.0671  0.2558
25870W        W39284  14.632   5.006   1.110 -0.2291  0.1681  0.3503
25871W        W39285   8.392  12.465  12.914  0.0059  0.1077 -0.1299
25872W        W39286  11.612   5.868  14.731 -0.0664 -0.1493 -0.0508
25873W        W39287   1.286   7.650  15.959 -0.0169  0.0293 -0.2326
25874W        W39288   0.194   8.648  10.473 -0.1474 -0.1124 -0.1269
25875W        W39289  15.643   5.471  12.257 -0.2706 -0.1014  0.1028
25876W        W39290  17.772   4.148  12.574 -0.1105 -0.3104 -0.1714
25877W        W39291  11.223   4.643  16.540 -0.0383  0.3192 -0.3183
25878W        W39292  11.492  12.618   1.848  0.0389 -0.0512 -0.2601
25879W        W39293  12.673   3.563   2.760 -0.0934  0.0009  0.0935
25880W        W39294   0.404   3.211  14.770  0.2735  0.0652 -0.0312
25881W        W39295  11.221   6.832  14.876 -0.2062  0.0987 -0.0452
25882W        W39296   6.833   8.650   0.826 -0.0214 -0.0730 -0.0070
25883W        W39297  15.987   0.742   2.127  0.1772  0.0926  0.0816
25884W        W39298  15.652   3.259   3.858 -0.1280 -0.0788 -0.1359
25885W        W39299  15.823   4.049   2.711 -0.0431  0.0437  0.0857
25886W        W39300  15.942   5.279  14.704  0.0429 -0.0594 -0.0153
25887W        W39301   0.943   3.065   1.718 -0.0796 -0.1477  0.2604
25888W        W39302  13.009   4.934   3.080  0.3904 -0.2363  0.2849
25889W        W39303  16.827   4.028   2.893  0.0347  0.1757 -0.1493
25890W        W39304   8.567   1.600   3.849  0.0113 -0.1823 -0.0300
25891W        W39305  17.821   3.067   1.000  0.1752 -0.3385 -0.1088
25892W        W39306  12.443   6.372   4.703  0.1528  0.2703  0.1283
25893W        W39307  14.614   1.529   0.763  0.1901  0.5107 -0.1942
25894W        W39308  11.268   9.549   4.033  0.0263  0.1790 -0.0881
25895W        W39309   1.209   1.682   2.828  0.2432  0.1348  0.0500
25896W        W39310   8.652  17.056  11.806  0.1917  0.2009  0.1267
25897W        W39311  11.357  14.407   2.315 -0.1941  0.0885  0.0495
25898W        W39312  16.906  14.909  16.434  0.2312 -0.0682 -0.0953
25899W        W39313  13.638  17.014   1.184  0.2779 -0.0170  0.1565
25900W        W39314   8.102  16.948   0.294  0.1473  0.0431 -0.0008
25901W        W39315  11.497  12.320   4.831  0.0811 -0.2147  0.0631
25902W        W39316   0.548   1.015  15.570 -0.0510  0.1934  0.0935
25903W        W39317   3.140   0.856  16.097 -0.0021 -0.0820  0.3534
25904W        W39318  15.437   7.224   2.379 -0.1827  0.0791 -0.3788
25905W        W39319  15.740  12.037  13.178 -0.0231  0.2929 -0.1442
25906W        W39320   5.499   7.881   6.162 -0.0307  0.0903  0.3978
25907W        W39321   4.907   1.242  13.377 -0.1887 -0.2375  0.1482
25908W        W39322  12.431   0.610   2.269 -0.0355 -0.0159 -0.3468
25909W        W39323   8.353   7.773   2.250  0.0939  0.1876 -0.1219
25910W        W39324   3.161  10.647  11.976 -0.1100 -0.1276  0.1263
25911W        W39325   0.964  15.350  12.663 -0.5015 -0.0595 -0.0698
25912W        W39326   0.503  17.497  11.904  0.0695  0.2671 -0.0384
25913W        W39327   1.757  13.055   1.333 -0.0984  0.0777  0.0045
25914W        W39328  15.817   5.984  14.191  0.0082  0.1393  0.1212
25915W        W39329  12.188   3.429  16.296 -0.1993  0.0586 -0.2541
25916W        W39330  14.781   4.404  12.708  0.1406 -0.2820  0.1745
25917W        W39331  12.618   8.551  15.006  0.5794 -0.0613  0.1264
25918W        W39332   8.417  12.366  15.485 -0.2423  0.3218  0.1388
25919W        W39333   2.592  12.923   0.549  0.2139 -0.2379 -0.1324
25920W        W39334  10.013   6.668  12.594  0.2241  0.4946 -0.0817
25921W        W39335   2.339   8.477   1.266  0.2082 -0.3478 -0.1017
25922W        W39336  11.994  17.702  13.941 -0.1505  0.1922 -0.0444
25923W        W39337  10.700   3.963   5.081  0.1650  0.2093  0.1164
25924W        W39338  12.822   2.518   4.857 -0.3083  0.0510 -0.2622
25925W        W39339  11.645   1.662  12.114 -0.3572  0.0127  0.2898
25926W        W39340  18.113   0.899   1.787  0.0555 -0.0009  0.2736
25927W        W39341   9.324   4.392   6.409  0.1215  0.5068 -0.0628
25928W        W39342   3.330   0.434  10.752  0.0614 -0.2210  0.0136
25929W        W39343   8.314  11.276  12.361  0.0795 -0.4337 -0.2758
25930W        W39344  14.568   2.526  12.806  0.3653  0.0301 -0.2206
25931W        W39345   8.554   0.128   2.007 -0.0138 -0.4650 -0.0731
25932W        W39346   5.994   9.654   0.270  0.1261  0.1231  0.1440
25933W        W39347  13.247   3.893  15.864  0.1563 -0.0979 -0.0280
25934W        W39348   8.284   0.895  15.668 -0.0981 -0.1122  0.0539
25935W        W39349   1.267   4.508   5.188  0.1506 -0.2091  0.0407
25936W        W39350  13.115   3.663   5.663  0.2963  0.3794  0.0517
25937W        W39351  17.708   7.199  13.474  0.1825  0.0700  0.1600
25938W        W39352   3.555  16.733   5.026 -0.3604 -0.0651  0.1389
25939W        W39353   2.650  17.661  14.088 -0.0487 -0.1337  0.2662
25940W        W39354  11.530  12.177   6.374 -0.1395  0.1077 -0.2432
25941W        W39355  13.277  16.261   1.083  0.0496 -0.0853 -0.0387
25942W        W39356   3.270   3.259  14.871  0.0610 -0.0110  0.3701
25943W        W39357   9.869  11.460  12.037  0.1607 -0.1089 -0.2294
25944W        W39358  15.433   6.915  14.534 -0.1163  0.0071 -0.1900
25945W        W39359   9.668   8.609   6.664 -0.0047  0.1033  0.0956
25946W        W39360  16.280  16.694  11.510 -0.1001  0.2162  0.2280
25947W        W39361   9.543   1.642  12.998  0.1350 -0.0324  0.2210
25948W        W39362   4.939   1.038  15.094  0.0408  0.0810 -0.1553
25949W        W39363  18.048  11.149   0.184  0.2777 -0.1187  0.1426
25950W        W39364   0.901   1.200  14.256 -0.1502  0.1524  0.0337
25951W        W39365  16.049   3.701  12.413  0.2774 -0.0450  0.4272
25952W        W39366  12.488  11.847  15.274  0.0320 -0.1137 -0.0532
25953W        W39367   7.139  11.689   2.747 -0.2727  0.1603 -0.1133
25954W        W39368  13.075  15.863  12.017 -0.2974 -0.1721  0.0968
25955W        W39369  14.463   2.705  14.170  0.1710  0.2272  0.0228
25956W        W39370   5.986  16.356   1.110 -0.1183 -0.1333  0.2100
25957W        W39371   1.507   1.668   3.214  0.1161  0.0569 -0.0287
25958W        W39372   3.015  15.472   4.189  0.0712 -0.3915  0.1265
25959W        W39373  11.758   1.611  10.874  0.1223  0.0295  0.1619
25960W        W39374   6.766  11.930  12.261  0.3297  0.1604 -0.0159
25961W        W39375   9.313   8.141  16.223  0.3066  0.0202 -0.0638
25962W        W39376  12.141  11.391   3.672  0.0466  0.0787 -0.2303
25963W        W39377   1.013   8.941   2.945 -0.0109 -0.1098  0.0490
25964W        W39378   4.720   1.926  11.164 -0.0241  0.0032  0.0736
25965W        W39379   9.679   6.011   6.058  0.1883  0.2560  0.0099
25966W        W39380   4.125  12.169   1.716 -0.0929 -0.0406 -0.3226
25967W        W39381   2.891  12.970  13.548 -0.1679  0.1925  0.2303
25968W        W39382   6.813   9.387   4.353 -0.0536 -0.0321 -0.0617
25969W        W39383   1.908   2.896   0.370  0.0298 -0.1413  0.0549
25970W        W39384  12.421  17.242  13.319  0.0477  0.0729 -0.1259
25971W        W39385   3.581   7.074  13.275  0.0705  0.0753  0.4361
25972W        W39386  15.169   6.532  11.860 -0.0130 -0.2438  0.0059
25973W        W39387   1.614   2.304  12.736  0.1260 -0.0527 -0.1405
25974W        W39388  10.158  17.037  16.025  0.0374  0.0081 -0.0822
25975W        W39389   5.266  13.553  16.428  0.1060 -0.0615  0.0032
25976W        W39390   5.500   3.799   4.998 -0.0389  0.0721  0.2258
25977W        W39391  14.448  14.946  12.535  0.1517 -0.0075  0.0237
25978W        W39392  16.125   9.722   3.036 -0.0993 -0.2847  0.0397
25979W        W39393   5.440   1.739   4.093 -0.0628 -0.1101 -0.1583
25980W        W39394   9.588  11.893   2.906 -0.2126  0.2809  0.1736
25981W        W39395   7.819   7.391  14.698 -0.0139  0.0350 -0.0510
25982W        W39396   2.168   8.069  11.435  0.0562 -0.1459  0.0127
25983W        W39397  17.074   0.245  13.602 -0.0811 -0.4840  0.1257
25984W        W39398   7.380  17.326  13.386 -0.2451  0.2918 -0.1129
25985W        W39399   5.302  14.656   1.155 -0.2390 -0.1104  0.2313
25986W        W39400  13.080  11.677  10.465  0.1366  0.1398  0.1974
25987W        W39401  17.719  10.184   1.695 -0.1296  0.1028 -0.1163
25988W        W39402   0.889  17.059   2.790  0.1105  0.1172 -0.0004
25989W        W39403  12.970   0.130   3.117  0.0662 -0.0749  0.3418
25990W        W39404  15.464  17.696  12.844  0.0101 -0.4290 -0.1085
25991W        W39405  14.420  11.335   6.306 -0.3777  0.2160  0.1078
25992W        W39406  15.674  13.932   3.833 -0.0323  0.0784  0.0306
25993W        W39407   1.529  10.462  16.074 -0.1736 -0.2548 -0.2366
25994W        W39408   8.264  13.326  14.561 -0.0451  0.1471 -0.0021
25995W        W39409   9.714   7.646  14.085  0.2309  0.0650  0.0782
25996W        W39410  14.601  12.883   2.166  0.3284 -0.0553 -0.0096
25997W        W39411  14.781   9.208   4.078  0.1552  0.2995 -0.2805
25998W        W39412   7.723  12.399  16.163  0.1339 -0.3575 -0.3010
25999W        W39413   8.802  15.513  14.111 -0.0758 -0.1434 -0.0817
26000W        W39414  12.528  16.976   1.716 -0.0957 -0.1320  0.3987
26001W        W39415   6.613   8.114   3.487  0.0361  0.0932  0.0673
26002W        W39416   6.064  13.070  16.391 -0.0101 -0.1320 -0.0858
26003W        W39417  13.594   3.817   4.860  0.1260 -0.1219 -0.4105
26004W        W39418  14.472   4.342   2.041  0.0039  0.0932 -0.0185
26005W        W39419  16.520  11.390   3.143  0.0716 -0.1290  0.2230
26006W        W39420  16.268   3.432  10.140  0.0063 -0.1671  0.0222
26007W        W39421   8.368   1.316  16.093 -0.1322 -0.1890 -0.0579
26008W        W39422   8.430   6.973  10.576  0.3057  0.0300 -0.1459
26009W        W39423   7.854  16.501   4.759  0.0762 -0.0032 -0.0342
26010W        W39424   7.014  16.916  13.926  0.1231 -0.2403 -0.0220
26011W        W39425   3.664  13.227   2.303  0.2450  0.1209  0.0695
26012W        W39426  10.683  15.744   6.494 -0.0963 -0.2028  0.1920
26013W        W39427   6.922  15.003  14.350 -0.0840  0.0315 -0.1196
26014W        W39428   6.770  15.068  15.545  0.1129  0.4406 -0.3287
26015W        W39429   5.296  15.175   2.498 -0.4336 -0.0585  0.0318
26016W        W39430   5.740   0.246   5.777  0.1661 -0.0146 -0.3276
26017W        W39431   1.756  16.969  12.730 -0.1842 -0.3401 -0.2380
26018W        W39432  12.177  17.917  14.793 -0.0509 -0.1009 -0.1506
26019W        W39433   8.543  11.143   5.933  0.1601  0.0240  0.1372
26020W        W39434   6.504   2.210  15.506  0.0376  0.2675  0.0829
26021W        W39435   6.347  13.953   5.194 -0.2522 -0.0874 -0.0863
26022W        W39436  13.105   6.937  15.381  0.3495  0.1919  0.1364
26023W        W39437  14.657   9.517   5.257 -0.2288  0.0754 -0.4537
26024W        W39438   9.570   8.512   2.311 -0.1151  0.2637  0.2908
26025W        W39439  14.770  15.020  15.746  0.1491  0.0635 -0.3802
26026W        W39440   9.558  17.133   5.648  0.0097 -0.0995 -0.1306
26027W        W39441   8.247  16.229   1.524  0.0850  0.0646 -0.0438
26028W        W39442   3.755   8.579  11.229 -0.1610  0.1045 -0.1556
26029W        W39443   8.602  16.629  16.204 -0.1187 -0.0027  0.0582
26030W        W39444   3.356  17.022   1.456  0.3131 -0.0133  0.0883
26031W        W39445   5.487   7.729  10.384 -0.1934  0.0864 -0.2378
26032W        W39446  17.507   8.700   3.883  0.2023  0.1866 -0.0339
26033W        W39447   0.896   6.397  11.734 -0.2240 -0.0882 -0.1925
26034W        W39448  15.186  13.232   1.204 -0.0197 -0.2206  0.2864
26035W        W39449   3.550  16.001   5.784  0.2231  0.3123 -0.3362
26036W        W39450  11.685  13.671  14.412  0.1218  0.0588  0.0220
26037W        W39451  12.494   6.049   3.718  0.0956  0.1497  0.0626
26038W        W39452  15.237  14.268  14.961  0.0946 -0.1547  0.0190
26039W        W39453   7.902  10.192   5.780 -0.0370 -0.2941 -0.1233
26040W        W39454   8.921  18.122  13.873 -0.2172  0.1583 -0.1712
26041W        W39455  11.679   6.505  16.174 -0.1266  0.2557 -0.2661
26042W        W39456   9.234  12.436  15.129 -0.3022 -0.2646  0.0677
26043W        W39457   3.644  14.364   4.592  0.0214  0.0614 -0.1945
26044W        W39458  12.456   8.356  14.051 -0.0122 -0.0369 -0.3441
26045W        W39459   5.573  13.403   3.535 -0.1035  0.2228 -0.0268
26046W        W39460  14.100   6.460  10.564 -0.3034 -0.0875 -0.1496
26047W        W39461   2.084  11.599   2.521 -0.2333 -0.2497  0.1789
26048W        W39462  16.481   5.144  14.952 -0.0741  0.1009 -0.1791
26049W        W39463   5.170  15.086   3.053  0.1788 -0.1697 -0.0169
26050W        W39464  12.558   5.063  12.279 -0.0292 -0.0661 -0.0468
26051W        W39465   9.839   4.421   0.273  0.4408  0.1767  0.1100
26052W        W39466   2.335   2.982  15.493 -0.1234 -0.0277  0.2322
26053W        W39467  17.445   5.193   3.326 -0.0065 -0.0540 -0.1445
26054W        W39468  16.043   8.562  14.217  0.1694  0.1799  0.0353
26055W        W39469  17.149  15.422   5.170  0.1402 -0.5073  0.1664
26056W        W39470   9.772  10.539   2.743 -0.2260 -0.0845 -0.0767
26057W        W39471   1.068   4.539  10.783  0.1475 -0.2102  0.2883
26058W        W39472   3.853   1.208   0.567 -0.2293 -0.0818 -0.2979
26059W        W39473  14.922  17.959  14.945 -0.0105 -0.0626 -0.3673
26060W        W39474   5.685   0.692  11.828  0.1074 -0.1099  0.3907
26061W        W39475   1.948   0.790   0.597  0.1575  0.1408 -0.2268
26062W        W39476   8.661  14.425  15.774  0.0412  0.0094 -0.0615
26063W        W39477   4.654   3.640  15.353 -0.0878 -0.1184 -0.2327
26064W        W39478   0.842   6.784  10.345 -0.2672  0.1029 -0.0310
26065W        W39479   3.878   1.461   6.696 -0.1431  0.3462 -0.1097
26066W        W39480   7.896  10.894  13.785  0.0585  0.1574 -0.1621
26067W        W39481   1.277  13.380  14.188  0.0180  0.1490  0.3872
26068W        W39482  12.658  15.688   5.177  0.4251 -0.0923 -0.3562
26069W        W39483   1.105   4.725   2.038  0.3003 -0.0233 -0.2330
26070W        W39484  11.986   5.893   0.505 -0.0419  0.0870 -0.3261
26071W        W39485   2.338  10.970  15.518  0.3297 -0.0277  0.1449
26072W        W39486   1.790   6.110  11.459 -0.1026  0.2877 -0.1331
26073W        W39487   7.820  15.187  12.756 -0.2514 -0.1442 -0.1623
26074W        W39488   0.497  16.908  10.350 -0.1855  0.1468  0.0932
26075W        W39489   7.478  11.073  10.724  0.0216  0.3016 -0.0246
26076W        W39490  12.874   5.222   3.635 -0.1306 -0.1069 -0.2674
26077W        W39491   5.103  10.326   6.134  0.1119  0.0485 -0.3035
26078W        W39492   8.182   5.043  10.399 -0.0400  0.0272 -0.0417
26079W        W39493  18.104   0.515   5.245 -0.2941 -0.0542  0.1436
26080W        W39494   9.036  15.175  13.793 -0.0215 -0.1405  0.0942
26081W        W39495   7.066   0.556  16.227  0.2714 -0.1263 -0.0011
26082W        W39496   4.420  16.684  13.757  0.1159 -0.0226 -0.1002
26083W        W39497  18.041  14.403  11.162  0.2859 -0.3613 -0.1197
26084W        W39498  10.116   2.552  14.401  0.0333  0.0295  0.1126
26085W        W39499  10.112  15.209   2.242 -0.3048  0.0005 -0.0412
26086W        W39500  10.674  11.442   1.960 -0.2941 -0.0770  0.1837
26087W        W39501   0.245   3.999  14.081  0.0654 -0.0340  0.1659
26088W        W39502   6.123  12.113  12.051  0.1545 -0.0341  0.3266
26089W        W39503  11.590   2.080   3.016  0.0180  0.2290 -0.1496
26090W        W39504   3.044  16.606   6.283 -0.0180 -0.0501  0.0153
26091W        W39505   2.297   2.403   2.415 -0.0400  0.4259  0.1608
26092W        W39506   1.178   7.410  11.752  0.1036 -0.2198  0.2284
26093W        W39507  12.131   5.259   2.127  0.0820  0.0831 -0.0466
26094W        W39508  15.324   5.738  13.188 -0.2570  0.0017  0.3721
26095W        W39509   3.236   1.188  11.623 -0.1843  0.2895 -0.0330
26096W        W39510  18.087   5.290   4.083  0.3031 -0.0262 -0.1275
26097W        W39511   1.242  11.509   6.675 -0.0714  0.0384  0.2171
26098W        W39512  17.922   0.943  10.973  0.2198 -0.2328 -0.1640
26099W        W39513   8.864  11.449   3.693 -0.0410  0.0771  0.1098
26100W        W39514   3.866  17.413   3.189  0.2056  0.2369 -0.0429
26101W        W39515   0.365  17.855   4.635 -0.2689 -0.0213 -0.1093
26102W        W39516   4.447   0.823   1.109  0.0908  0.0700 -0.0269
26103W        W39517  17.536   4.283   1.480  0.0799 -0.4003 -0.1885
26104W        W39518  11.779  17.576   0.065  0.2614  0.1331 -0.1763
26105W        W39519   3.182  11.345   0.549 -0.2424  0.2168 -0.4545
26106W        W39520   0.463   5.221  13.470 -0.3428 -0.5903 -0.2725
26107W        W39521  18.115   3.034  10.753  0.0476  0.1650 -0.0856
26108W        W39522  11.002  15.351   1.643 -0.2183  0.2848  0.0371
26109W        W39523  17.457  12.141   3.104 -0.0537  0.2486 -0.5168
26110W        W39524   7.212   0.250  15.455 -0.1071 -0.0246 -0.2623
26111W        W39525  11.378  10.416   3.561  0.1562 -0.0466 -0.0428
26112W        W39526  14.611  10.076   3.023  0.1694  0.1504  0.2477
26113W        W39527  10.867  16.732   5.641  0.0044  0.2950 -0.0272
26114W        W39528  16.626   2.870  11.489 -0.2045  0.2063  0.2552
26115W        W39529  11.858  18.199  10.842 -0.0396  0.1379  0.1015
26116W        W39530  11.043   2.695  15.489  0.2691 -0.0999 -0.0554
26117W        W39531   8.101  16.280  10.326  0.1071 -0.1833 -0.3000
26118W        W39532   9.351   4.643  15.371  0.1627 -0.1136 -0.1658
26119W        W39533   3.779  12.565   0.804 -0.2720  0.0232 -0.1249
26120W        W39534  11.026   1.469   1.059 -0.0657 -0.0761 -0.3670
26121W        W39535  15.451  11.310  14.149  0.0312  0.3039 -0.1226
26122W        W39536   5.611  14.512   5.369 -0.0877 -0.1691 -0.3148
26123W        W39537   2.328  12.935  15.156  0.1272  0.0304 -0.1332
26124W        W39538  11.299   8.875  12.569 -0.2428 -0.0455 -0.2672
26125W        W39539  16.343  10.386   4.295 -0.0685  0.0072  0.0591
26126W        W39540  10.292  17.928  16.344  0.2148 -0.1783 -0.0902
26127W        W39541   3.637  10.996   3.112 -0.3375  0.0770  0.0817
26128W        W39542  14.480  12.340   2.324 -0.0136 -0.5634 -0.1765
26129W        W39543   7.464  13.259  13.853 -0.1859  0.2172  0.1134
26130W        W39544  15.547  13.511  15.365  0.0095 -0.0636 -0.2596
26131W        W39545   7.652   0.337   3.808 -0.1510  0.0193 -0.0419
26132W        W39546  11.817  16.019   4.975  0.0906 -0.2119 -0.0823
26133W        W39547   9.692  14.517  11.343  0.1937 -0.2745  0.0322
26134W        W39548   9.010   6.384  16.084  0.0631 -0.2562  0.0409
26135W        W39549   1.611  15.599   5.750  0.4771 -0.2706  0.2197
26136W        W39550   7.335   0.359  14.064 -0.1303  0.0650  0.0979
26137W        W39551   2.324  10.160  11.195  0.0276  0.0041  0.0300
26138W        W39552   5.549  12.733  10.282 -0.0753 -0.0834 -0.1736
26139W        W39553   1.445  16.660   4.035 -0.2164  0.0362 -0.2250
26140W        W39554  13.310  13.572   5.806  0.0434 -0.1063 -0.1698
26141W        W39555   6.529  11.693  14.631 -0.1628 -0.0600  0.0283
26142W        W39556  11.963   8.537   0.115 -0.3036  0.1557 -0.0047
26143W        W39557   7.756  16.153   1.746  0.1347  0.1144  0.0025
26144W        W39558  18.060  14.659  12.149  0.2939 -0.1884 -0.0157
26145W        W39559  12.479  14.737  16.510 -0.1820  0.0437 -0.2112
26146W        W39560  14.098  12.837  14.143 -0.1240  0.2130  0.2634
26147W        W39561  16.629   7.537  16.193  0.1166 -0.1747 -0.0892
26148W        W39562  11.562   5.706  13.205 -0.0906  0.0146 -0.0132
26149W        W39563   3.628  11.340  11.395 -0.0328  0.1991 -0.2309
26150W        W39564   2.106  10.756   4.553  0.1665  0.1147 -0.0068
26151W        W39565   7.582   5.443   5.193  0.2355  0.1639  0.0858
26152W        W39566  13.566   0.822   5.484 -0.4914  0.1280  0.3373
26153W        W39567  15.007   7.512  13.740  0.2621 -0.0994 -0.2094
26154W        W39568  13.675   4.893  11.598  0.1244  0.1104 -0.0573
26155W        W39569   8.913  14.024   2.196 -0.0532 -0.2368 -0.2824
26156W        W39570  14.471   9.252   0.401  0.0416  0.1039  0.3108
26157W        W39571   5.191  10.846  10.037 -0.0364  0.0549 -0.3014
26158W        W39572  15.229  13.455   6.078  0.0034  0.1473  0.0145
26159W        W39573   5.647  10.882   1.784  0.2204  0.2483 -0.0994
26160W        W39574   7.934  13.706   2.667 -0.0444 -0.5227  0.3266
26161W        W39575   7.986  13.725   3.678 -0.1325 -0.0404  0.2821
26162W        W39576  12.504   8.520   0.020  0.1978 -0.0200 -0.1339
26163W        W39577   5.486  10.837  15.543  0.0260 -0.0905  0.1444
26164W        W39578   7.620   4.000  13.564 -0.2532  0.1278  0.0022
26165W        W39579  15.905  16.077  10.221 -0.0069  0.1191  0.0211
26166W        W39580   7.098   7.796   5.135  0.3137  0.3490  0.2475
26167W        W39581   9.475  17.797   3.731  0.3079  0.1169  0.0958
26168W        W39582   7.710  10.102   4.409 -0.0627 -0.0655 -0.2477
26169W        W39583   1.314  15.240   4.364  0.3118  0.4268  0.0158
26170W        W39584   2.923  14.120   2.904 -0.1954  0.0265  0.1467
26171W        W39585  15.270  13.346   3.297 -0.2782 -0.0439  0.3100
26172W        W39586  12.941  12.033  13.901 -0.0836 -0.0978  0.2538
26173W        W39587   8.419  13.576  11.162 -0.2291  0.4141 -0.0219
26174W        W39588   0.059  17.899   2.954  0.2401  0.1131 -0.0687
26175W        W39589   6.438   7.652  10.662  0.0157  0.1599  0.0401
26176W        W39590  13.992   5.438  10.636 -0.0127 -0.1198 -0.1054
26177W        W39591  16.413   0.447   2.802  0.1419 -0.0192  0.1805
26178W        W39592  14.673  12.360  12.057  0.0183 -0.1382 -0.1848
26179W        W39593  14.320   6.944   4.983 -0.3260  0.0543  0.1070
26180W        W39594   3.014  15.721  12.729 -0.1764 -0.0516  0.0651
26181W        W39595   1.477  15.153  10.522  0.2467 -0.1112  0.1196
26182W        W39596  11.725  13.095   2.035  0.1057 -0.6540  0.1358
26183W        W39597  10.921   3.227  11.260 -0.1463 -0.3156  0.1563
26184W        W39598  17.394   5.002   1.774  0.0577 -0.3558 -0.0346
26185W        W39599  16.724   7.803   2.872  0.0334 -0.3126 -0.1015
26186W        W39600  11.860   4.169   0.817  0.0553 -0.1917 -0.0418
26187W        W39601  16.819   7.228   2.144  0.1905  0.0276  0.1678
26188W        W39602  15.323   6.776   3.606  0.1045 -0.0392 -0.0467
26189W        W39603  14.193  10.077  16.138 -0.2323  0.1045  0.0613
26190W        W39604   4.010  14.153   2.427 -0.1301 -0.2527 -0.1408
26191W        W39605  16.890   3.039  10.334 -0.1082 -0.0969  0.0407
26192W        W39606   4.748   7.516   2.316  0.1806  0.0427 -0.1824
26193W        W39607   3.005   5.622   2.146 -0.0880 -0.2366 -0.2644
26194W        W39608  16.849   9.975   4.111 -0.3499  0.2836 -0.1910
26195W        W39609   3.471   9.823  16.074 -0.1700 -0.0905  0.0783
26196W        W39610  17.831   6.014  10.414 -0.5030  0.1068 -0.1188
26197W        W39611   0.960   9.093   4.576  0.1213 -0.2307  0.3534
26198W        W39612  11.606  10.008   5.366 -0.1003  0.0101  0.2494
26199W        W39613  14.414   1.602   1.307  0.0778 -0.3409 -0.0738
26200W        W39614   0.189  12.556   1.138  0.1439  0.1482  0.1351
26201W        W39615   5.206  15.646   0.743 -0.0181  0.0114  0.2268
26202W        W39616   0.500  17.554   2.712  0.3932  0.0470 -0.1047
26203W        W39617   0.345   4.256   1.158 -0.2131  0.1257  0.2050
26204W        W39618   3.651  18.219   5.786  0.0950  0.3490 -0.0042
26205W        W39619   5.153   1.077  13.772 -0.1572  0.1938 -0.1266
26206W        W39620  12.862   1.596   1.936 -0.0197 -0.2692  0.1788
26207W        W39621   7.756   4.652   3.719  0.1722  0.1645  0.0493
26208W        W39622  12.116  18.223  13.812  0.1311 -0.0583 -0.3734
26209W        W39623   4.162   4.676  10.628  0.3067  0.1052 -0.0538
26210W        W39624  17.789   4.517  10.744 -0.0554  0.1043 -0.0248
26211W        W39625  14.354  10.114  10.412 -0.1647  0.0531 -0.0353
26212W        W39626   5.823  11.156   5.503  0.1959 -0.1245  0.3608
26213W        W39627   1.847   6.601  11.491  0.0749  0.0500 -0.1119
26214W        W39628   4.439  11.031  11.532 -0.1626 -0.1650  0.4550
26215W        W39629   3.411   8.926  11.508 -0.0513 -0.1496  0.1954
26216W        W39630   6.736  10.859   3.638  0.3080  0.2634  0.3701
26217W        W39631   8.050   8.681  16.092 -0.1363 -0.3912 -0.2811
26218W        W39632   4.753   7.472   1.418  0.1185 -0.0398 -0.2637
26219W        W39633  14.204  13.714  11.899 -0.1859 -0.1434  0.1793
26220W        W39634   8.942   0.258  15.168 -0.0793  0.2097  0.1319
26221W        W39635  13.932   7.242  15.304 -0.1558  0.1931 -0.1019
26222W        W39636   3.903   3.945  13.369  0.1269 -0.2638  0.0071
26223W        W39637   7.180   6.418  12.622  0.1503  0.3504 -0.5908
26224W        W39638   4.264  13.299  11.247 -0.2133  0.1406  0.1848
26225W        W39639   7.031  17.976   0.013 -0.2848 -0.1840 -0.1065
26226W        W39640  12.265  11.326  15.043  0.4052  0.1427 -0.2124
26227W        W39641  13.014  11.911   0.425 -0.1105 -0.0021  0.3177
26228W        W39642  12.590   9.925  14.563 -0.0766  0.1625  0.2388
26229W        W39643  13.490  18.278   5.018  0.1474 -0.4164  0.1003
26230W        W39644   8.356  16.850   5.345 -0.0815 -0.1437 -0.1140
26231W        W39645   5.425  15.207   3.833  0.2649 -0.1648  0.2006
26232W        W39646   8.822   0.293   1.378 -0.3203  0.1056 -0.2502
26233W        W39647   2.083  16.297   0.249 -0.0159  0.1453  0.2599
26234W        W39648  13.181   7.481  11.578  0.1049 -0.0810  0.0075
26235W        W39649   9.537   5.734   2.030 -0.2433 -0.0370 -0.2297
26236W        W39650  17.875   2.715  11.526 -0.3652  0.2010  0.1291
26237W        W39651  13.211   0.549   0.288  0.0028 -0.1769 -0.1689
26238W        W39652  15.802  14.165   2.631  0.1851  0.1035 -0.0585
26239W        W39653  14.204   7.708  14.873 -0.2308 -0.0404 -0.0867
26240W        W39654  13.530   3.227   1.115  0.0175  0.2256 -0.1960
26241W        W39655   0.258  13.054   1.223  0.0166  0.0840 -0.0611
26242W        W39656   7.101  15.832   2.472 -0.1098 -0.0453  0.1221
26243W        W39657  16.014  14.474   4.481  0.1497 -0.0186 -0.1556
26244W        W39658   4.976  11.686  16.331 -0.3099  0.0021 -0.0108
26245W        W39659   2.964  11.382   2.445  0.0340 -0.0605 -0.3890
26246W        W39660   0.010  17.680  11.908 -0.0299  0.2055  0.0261
26247W        W39661  13.057  15.035  15.842 -0.0110  0.2972  0.0820
26248W        W39662   1.370  11.520   0.210  0.3877  0.1002  0.2047
26249W        W39663   0.524  13.508  10.020 -0.1340 -0.0400  0.2001
26250W        W39664   7.321   7.057  15.443  0.0245  0.1502  0.0891
26251W        W39665   1.775   6.511   5.608 -0.1288  0.1960 -0.1731
26252W        W39666  13.964  12.177  15.266 -0.2354  0.0213  0.1886
26253W        W39667   1.531  13.552  11.656  0.0911  0.0246 -0.1097
26254W        W39668  12.615  15.169   0.486 -0.0424  0.0983  0.0065
26255W        W39669  13.060   9.123   1.222 -0.0230 -0.0368 -0.0934
26256W        W39670   9.951   7.575  12.855  0.5256  0.0379 -0.2701
26257W        W39671   1.607   1.635   1.919  0.1738 -0.0151 -0.3075
26258W        W39672   6.797   9.854   2.402  0.0417  0.0120  0.0734
26259W        W39673   3.594  16.320  14.333  0.0172 -0.1857 -0.0292
26260W        W39674   9.314   5.548  10.626 -0.2706  0.1170  0.1024
26261W        W39675   8.325  18.071  16.371  0.1723  0.0062  0.1578
26262W        W39676   4.843  16.946   6.100 -0.1023 -0.0318  0.2907
26263W        W39677   9.240  14.461   3.913 -0.0428  0.0217  0.1740
26264W        W39678  11.757   9.121  15.478  0.1566 -0.1386  0.0889
26265W        W39679   1.535  16.187   1.954  0.0526 -0.1849 -0.1229
26266W        W39680  13.009   3.895  14.186 -0.0287 -0.2115 -0.2236
26267W        W39681   6.582   8.518   1.272 -0.3049  0.1518 -0.4006
26268W        W39682  16.946   4.298  11.985  0.0216  0.2702  0.2653
26269W        W39683  17.411  18.086  13.809  0.0078 -0.0083 -0.0074
26270W        W39684  15.802   4.691   0.601 -0.0614 -0.0567  0.1618
26271W        W39685   4.477  16.450  15.173 -0.2010  0.4474 -0.1115
26272W        W39686  10.586  11.637  16.322  0.0840  0.0164  0.0193
26273W        W39687  17.694  11.434  12.447 -0.1080  0.0650 -0.4345
26274W        W39688  13.739   0.304   4.738  0.1960  0.1076 -0.1459
26275W        W39689  17.523  15.680  10.587 -0.3176  0.1413  0.0431
26276W        W39690   2.358   2.572  16.531  0.1429  0.0291  0.1889
26277W        W39691   4.704   4.799  12.680 -0.1570  0.2044  0.0734
26278W        W39692  13.745   4.383  10.745  0.2120 -0.0824 -0.3487
26279W        W39693  14.138   1.565   1.705 -0.2366 -0.0726  0.0645
26280W        W39694  15.345  12.423  13.562  0.3794  0.1543 -0.2433
26281W        W39695   8.637   6.162   3.172 -0.1968 -0.1716 -0.0081
26282W        W39696  11.957  14.588  14.031  0.0354 -0.1703 -0.0309
26283W        W39697  17.219   7.901  11.383 -0.3185 -0.1179 -0.0814
26284W        W39698   6.762  10.610  15.248  0.1905  0.2571 -0.1209
26285W        W39699   9.706  14.974  16.186 -0.0102 -0.2049 -0.0294
26286W        W39700   8.735   4.872   1.602  0.1419  0.3534 -0.0437
26287W        W39701   3.444   2.849   5.596  0.0376  0.0913  0.1381
26288W        W39702   2.667  15.082   2.552 -0.1265  0.1515  0.0825
26289W        W39703  12.291   1.852   4.668 -0.0019 -0.0840 -0.1875
26290W        W39704   5.587   2.579  15.816  0.3461 -0.0774  0.0154
26291W        W39705   7.711   4.163  10.437  0.2877  0.2900 -0.1470
26292W        W39706   6.274  17.809  14.468  0.0978  0.0629 -0.1115
26293W        W39707   6.059  11.929  12.700 -0.5891 -0.3121  0.2103
26294W        W39708   9.651   4.055   2.359  0.0241 -0.0515 -0.1307
26295W        W39709  14.613  12.598   5.437 -0.0126  0.0267 -0.2223
26296W        W39710   2.717   4.453  13.119  0.2397 -0.0991  0.2153
26297W        W39711  11.361  11.556   4.152 -0.0062 -0.0178 -0.1426
26298W        W39712   1.485  11.670  12.320 -0.0925  0.2116  0.1722
26299W        W39713  15.378   9.418  13.338 -0.0015 -0.2750 -0.0988
26300W        W39714  10.476   0.943   2.843 -0.3037 -0.3245 -0.2604
26301W        W39715   6.738   8.983   3.393  0.0242  0.1119 -0.2457
26302W        W39716  12.923  16.449   1.456  0.3571  0.0767 -0.0436
26303W        W39717  15.758   0.557  13.829  0.2105  0.0200  0.1007
26304W        W39718  14.600   2.791  15.480  0.2765 -0.0289 -0.0172
26305W        W39719  10.401   7.277  11.198 -0.0371 -0.0304  0.2371
26306W        W39720   0.324   7.051  14.831  0.0972  0.1226  0.0463
26307W        W39721  13.132   1.251  15.384  0.1028 -0.0399  0.0509
26308W        W39722  17.858  15.196  12.213 -0.1906  0.2049 -0.2725
26309W        W39723   4.490  13.324   5.626  0.2457  0.0880 -0.2198
26310W        W39724   9.854   2.159   3.380 -0.0803  0.1053  0.1466
26311W        W39725   9.905  16.275   1.884 -0.1340  0.1472  0.1128
26312W        W39726   6.667  14.290   5.429 -0.2803 -0.1050 -0.1487
26313W        W39727   1.842   7.773   2.002 -0.0582 -0.0763  0.1878
26314W        W39728  18.132  16.529  13.503 -0.0659 -0.0333  0.0011
26315W        W39729   2.154   2.031   6.427  0.1813  0.0522  0.1397
26316W        W39730   4.399  13.428  15.740  0.0981  0.2948 -0.1016
26317W        W39731  11.297   8.051  13.373  0.1794  0.1155  0.3045
26318W        W39732  16.048   3.206  12.491  0.0707  0.0514  0.1056
26319W        W39733   3.337   7.244   3.591  0.5762 -0.3592 -0.0357
26320W        W39734   4.584  14.801  10.893  0.0021 -0.3552 -0.1162
26321W        W39735   4.434   5.991   2.909  0.0338 -0.0136  0.0969
26322W        W39736   8.628  16.014  11.318  0.1268  0.3052  0.1801
26323W        W39737  15.681  16.220   5.687  0.1408 -0.1194 -0.1572
26324W        W39738  10.472   0.301   4.269 -0.2490  0.1101 -0.0535
26325W        W39739   1.893   9.674   1.891 -0.2827  0.0820 -0.2458
26326W        W39740  16.325   0.590   3.824  0.0529  0.2368  0.0361
26327W        W39741   9.252   7.055  12.999 -0.1002 -0.0332 -0.2688
26328W        W39742   8.252   6.204   3.504  0.2643  0.0920  0.0080
26329W        W39743   4.575   5.759   6.363 -0.0402 -0.2566  0.2313
26330W        W39744  14.048  15.102  14.692  0.2014  0.0529 -0.1171
26331W        W39745   4.006   3.999  12.288 -0.0820 -0.1524  0.1539
26332W        W39746  17.264   5.413  11.040 -0.3401  0.0324 -0.1567
26333W        W39747  10.656   0.434  15.257  0.3232  0.1666 -0.0644
26334W        W39748  16.489   9.242   3.749  0.1215 -0.4286  0.3173
26335W        W39749  15.579  15.456  16.423 -0.1305 -0.5421  0.2682
26336W        W39750  17.510  14.878   3.934  0.1497 -0.0840 -0.2091
26337W        W39751   1.476  11.712  11.302 -0.2997  0.0560 -0.0673
26338W        W39752  14.764   2.595   3.002 -0.0031  0.1076  0.0083
26339W        W39753   1.433   5.351   3.672  0.0830  0.0336  0.0291
26340W        W39754   7.252  14.429  15.777  0.1020  0.0631 -0.2618
26341W        W39755   7.464  11.756  13.115 -0.0457 -0.1434 -0.1488
26342W        W39756  12.159   1.534   5.285  0.1131  0.1048  0.3166
26343W        W39757   4.530   5.413  10.695 -0.0837 -0.0872  0.1923
26344W        W39758  11.320  12.955   3.065 -0.0368  0.0550  0.2134
26345W        W39759   8.586  10.117   0.242 -0.5314 -0.0511 -0.1830
26346W        W39760   4.304  11.249  14.558 -0.1120 -0.1520 -0.0693
26347W        W39761   2.613  16.905  15.739  0.2583 -0.0858  0.1508
26348W        W39762  12.082  15.648  11.847  0.0612  0.1341 -0.3706
26349W        W39763  13.069   8.176   1.974  0.0177  0.1789 -0.1350
26350W        W39764   1.831  14.008   6.504  0.0301  0.2105  0.1784
26351W        W39765   9.001   3.486  14.733  0.1155 -0.3891 -0.0454
26352W        W39766   9.484   9.151   5.124  0.2751  0.2601  0.2086
26353W        W39767   0.808  14.778  16.372  0.0965 -0.1356  0.1330
26354W        W39768  18.035  13.058   1.204  0.1947  0.1263 -0.2760
26355W        W39769   2.894  16.418  12.236  0.1671 -0.0442  0.1854
26356W        W39770   2.140   9.738   5.465 -0.0055 -0.0514 -0.3098
26357W        W39771  14.463  15.913   1.603  0.0968 -0.2794 -0.0027
26358W        W39772  16.050  10.493   5.225 -0.4622 -0.1051  0.2274
26359W        W39773  12.764  10.483   0.420  0.0741 -0.1697 -0.0486
26360W        W39774   9.565   3.776   3.351  0.2826  0.2265 -0.0227
26361W        W39775   7.589   9.644  11.928  0.2336 -0.1104  0.0427
26362W        W39776  17.193  17.466   2.171 -0.0970  0.2078 -0.1184
26363W        W39777  11.928   2.480   3.889 -0.1826  0.2193  0.1564
26364W        W39778   6.380  10.535   1.529 -0.0843 -0.1250  0.1279
26365W        W39779  10.320   5.318   4.360  0.1945 -0.2585 -0.1536
26366W        W39780   7.424  12.536   5.523 -0.0914  0.0899  0.0241
26367W        W39781  16.436  17.020   3.199  0.0511  0.0154  0.2914
26368W        W39782   8.446  17.132   1.415  0.3099 -0.0038 -0.0907
26369W        W39783   0.032   9.555   1.546 -0.2831  0.0061  0.2054
26370W        W39784   7.828  11.299  12.580  0.3570 -0.1402 -0.2725
26371W        W39785  15.002  11.029  12.588 -0.0205  0.2066 -0.2847
26372W        W39786   2.887  17.598  12.796 -0.0029  0.0724 -0.2135
26373W        W39787   5.808  14.429   2.835 -0.0186 -0.1027  0.2645
26374W        W39788   2.807   8.282  14.514 -0.4986 -0.2796 -0.1345
26375W        W39789  17.682   0.853  13.474 -0.2435  0.1498 -0.0495
26376W        W39790   4.539   0.279   5.355 -0.4026  0.2650  0.2936
26377W        W39791  11.138  14.894   1.474 -0.2478  0.0536  0.5349
26378W        W39792   7.877   0.720   1.174  0.1129  0.0052 -0.1953
26379W        W39793  10.336  17.456  16.200  0.1011 -0.0834  0.5229
26380W        W39794  13.359   4.983   0.045  0.0742  0.0017 -0.0293
26381W        W39795   5.048  11.187   5.353  0.0948 -0.1312  0.2322
26382W        W39796   7.816  14.252   5.326  0.0583  0.0897  0.0889
26383W        W39797  16.095   0.462  15.452  0.1904 -0.0709 -0.0086
26384W        W39798  16.115  16.439  15.435  0.0772  0.3300 -0.2698
26385W        W39799  12.764   3.179  12.046 -0.1147 -0.0395  0.4492
26386W        W39800  13.543   1.647  10.991 -0.0902  0.2366  0.0572
26387W        W39801  11.860   8.276  14.263 -0.1785 -0.0025 -0.3369
26388W        W39802  14.406   4.721  13.636 -0.0821 -0.0098  0.0843
26389W        W39803  11.031   8.546   5.274  0.0388 -0.1253 -0.1759
26390W        W39804   9.967   5.401  15.236 -0.3753 -0.1783  0.0383
26391W        W39805   0.235   9.094   1.658  0.1385 -0.0439 -0.1998
26392W        W39806  16.679  18.143  13.789  0.1272 -0.3934 -0.0295
26393W        W39807   6.955   7.237  11.981 -0.0309  0.3694  0.2289
26394W        W39808   3.232  17.242  12.219  0.1081  0.0584 -0.0097
26395W        W39809  17.994   3.971   1.340 -0.2641  0.2708 -0.2256
26396W        W39810  13.790   9.513   0.964 -0.0272  0.2963 -0.1316
26397W        W39811   7.727  15.138   6.552 -0.2448 -0.1232 -0.0671
26398W        W39812   7.177   8.822   3.273  0.1696  0.2541  0.1370
26399W        W39813   4.676  13.602   2.354 -0.0633  0.0717  0.4467
26400W        W39814   8.448   6.346  13.876  0.0991 -0.3406  0.1782
26401W        W39815  10.661   4.677   3.500  0.2137  0.2970 -0.1148
26402W        W39816   2.543  17.827  16.080  0.1931 -0.4375 -0.2760
26403W        W39817   2.778   5.465   3.382  0.0829  0.0205 -0.3304
26404W        W39818  12.945   6.377   4.627  0.3233  0.2277 -0.2055
26405W        W39819  13.002  10.784  14.291 -0.0777  0.1302 -0.0277
26406W        W39820  14.069  15.983   0.591 -0.1679 -0.2339 -0.0235
26407W        W39821  11.063  13.071  13.106  0.0193 -0.0012 -0.0021
26408W        W39822  11.640   9.347   1.929 -0.1005  0.0920 -0.1494
26409W        W39823   3.854  14.622  16.161  0.2713  0.2697 -0.0760
26410W        W39824  14.913   4.257  10.468 -0.0326 -0.3142  0.1215
26411W        W39825  17.107  17.687   5.451 -0.2881 -0.1083  0.0679
26412W        W39826   3.027  10.987   0.903  0.0386  0.0468  0.2957
26413W        W39827  14.235  10.392   0.366 -0.1907  0.0803  0.1496
26414W        W39828  17.024   3.149  12.819  0.0372 -0.0002  0.0847
26415W        W39829  11.313   8.555  11.497 -0.1738 -0.0195 -0.0990
26416W        W39830  18.219  15.128   0.926 -0.0274 -0.5020  0.0136
26417W        W39831  13.427   4.473   4.750 -0.1358  0.0798 -0.0947
26418W        W39832   2.868   2.257  12.778  0.0842 -0.1957 -0.2233
26419W        W39833  12.469   9.308   4.580  0.2980  0.2804 -0.2517
26420W        W39834  11.718   1.545   1.848 -0.0004 -0.0702 -0.2245
26421W        W39835   9.335  14.511   1.936 -0.0341 -0.0053 -0.1917
26422W        W39836  16.270   1.229  15.353  0.1298 -0.0254  0.3021
26423W        W39837   5.401   5.671  14.674  0.0211 -0.0675 -0.1380
26424W        W39838   5.979   5.473   3.471  0.0236  0.0871  0.0074
26425W        W39839  17.920  15.536  11.843  0.0182 -0.0149 -0.1995
26426W        W39840  12.362   9.927   4.967 -0.0759  0.1530 -0.2213
26427W        W39841  17.101   7.277   5.185  0.1247  0.1136  0.3583
26428W        W39842   4.497  13.118   2.517 -0.0006  0.2021  0.0422
26429W        W39843   0.046   7.382   1.480 -0.2083 -0.2150 -0.2206
26430W        W39844   2.495  10.606  14.163 -0.1984 -0.1119 -0.0202
26431W        W39845  14.101   6.052   2.363 -0.1167  0.0927 -0.0212
26432W        W39846  10.125  17.587  15.674  0.0455  0.0128 -0.0198
26433W        W39847   1.382   8.431   2.436  0.1001  0.0804  0.0190
26434W        W39848   5.538  15.729   5.874 -0.0544 -0.1334  0.0589
26435W        W39849   0.722   1.661  13.912  0.1051  0.2615  0.2215
26436W        W39850  10.429   1.606   1.067  0.5098 -0.0072 -0.0868
26437W        W39851   5.837  11.192  11.574 -0.0210  0.0850  0.0150
26438W        W39852   0.253  14.725   5.632  0.0599  0.0028  0.1477
26439W        W39853  16.493  10.392  11.230 -0.0498 -0.2241 -0.1966
26440W        W39854  16.602  17.921   5.528  0.0863 -0.2356  0.0206
26441W        W39855   2.673   5.833  13.334 -0.0918 -0.2460 -0.1658
26442W        W39856   0.794  13.717   3.859 -0.0016 -0.1975  0.2419
26443W        W39857  12.746  17.779   1.376 -0.1070  0.2487  0.3407
26444W        W39858  12.412  11.975   4.986 -0.0969 -0.3220  0.2464
26445W        W39859  15.394   7.512  11.313 -0.0246  0.2646  0.1308
26446W        W39860  17.607   9.093  13.159  0.1923 -0.1999  0.0597
26447W        W39861  11.836  14.512  15.155 -0.0495  0.2343 -0.0158
26448W        W39862  12.255  16.970   5.017  0.2640  0.3233 -0.1495
26449W        W39863  16.598   5.153   5.611 -0.0252  0.2574 -0.1003
26450W        W39864  13.399   5.788   0.586  0.0858  0.0268 -0.3304
26451W        W39865   1.910   0.003   5.006  0.0553 -0.1680  0.0440
26452W        W39866   6.622   6.034  10.396 -0.0710 -0.1735  0.2675
26453W        W39867   2.192   7.559  13.775 -0.1238  0.3084 -0.1106
26454W        W39868   4.729  11.100  11.960 -0.2619  0.0001  0.0294
26455W        W39869   6.378   3.145   1.904  0.2681  0.0662  0.2816
26456W        W39870   7.490   4.813  15.112 -0.2451  0.0639 -0.0757
26457W        W39871   9.893   2.822  15.414 -0.0118 -0.2057 -0.0171
26458W        W39872   0.544  16.648   4.243  0.3133  0.1736 -0.2495
26459W        W39873   8.349   4.304   3.917 -0.1435  0.0193  0.1368
26460W        W39874  10.735  13.099  12.740 -0.0713 -0.0643 -0.1400
26461W        W39875  14.558  10.400  16.468  0.0152 -0.1751  0.0928
26462W        W39876   9.177   5.724   3.893  0.1328  0.0753  0.3547
26463W        W39877   4.409   0.770  14.455 -0.4189  0.1826  0.0424
26464W        W39878   0.940   6.411   2.130 -0.1033  0.0010  0.0629
26465W        W39879  10.606  15.170   2.961  0.1596 -0.0054 -0.1175
26466W        W39880  12.544  14.520   3.474 -0.0485 -0.0046 -0.0966
26467W        W39881   1.887   4.710   2.569 -0.2326 -0.0370  0.3771
26468W        W39882  17.270  17.563  14.363 -0.2200 -0.0662 -0.2319
26469W        W39883  11.663   3.289  16.115  0.2475 -0.1672 -0.0451
26470W        W39884  15.052  11.765  15.489  0.0867  0.0448  0.1269
26471W        W39885  17.345   0.819  16.262 -0.1003  0.0673  0.2299
26472W        W39886  15.142   9.384  14.700 -0.0864 -0.2622 -0.1012
26473W        W39887  17.276   3.810   4.934  0.4381 -0.2089  0.0357
26474W        W39888   3.430  16.431   4.161  0.2008  0.1352 -0.0331
26475W        W39889   1.677  12.632  12.212 -0.0506 -0.2010 -0.3180
26476W        W39890  16.061   9.442   4.577  0.0376 -0.1108  0.0594
26477W        W39891   3.011   6.949   4.530 -0.0321  0.2378  0.2584
26478W        W39892   3.253   3.388  12.362 -0.2646  0.1173  0.0227
26479W        W39893   5.478   4.903   5.125  0.0821 -0.2552  0.2204
26480W        W39894  11.209   4.306  10.414  0.1166 -0.2855  0.0742
26481W        W39895  13.977  15.694  11.328  0.0996  0.4292  0.0204
26482W        W39896   5.401   6.959   3.025 -0.0303 -0.2530  0.3001
26483W        W39897  12.648   3.996   4.367  0.2188 -0.1702 -0.1013
26484W        W39898   0.257  10.870   1.257  0.0418  0.0433 -0.0267
26485W        W39899  14.784  14.034   5.646  0.1295 -0.0114  0.3189
26486W        W39900  14.182  15.107   0.168 -0.2827  0.2788  0.1336
26487W        W39901  17.540  11.229  15.650 -0.0754 -0.3278 -0.0510
26488W        W39902   5.774  15.948   2.451 -0.3992  0.2482  0.0616
26489W        W39903  12.359   7.603  16.493  0.0459 -0.2374  0.0026
26490W        W39904   6.940  12.673  12.091  0.1867 -0.2073 -0.1237
26491W        W39905  12.816   0.748   4.386  0.1069 -0.2209  0.2095
26492W        W39906   8.883   4.108   3.835  0.1293 -0.0795  0.2253
26493W        W39907  11.980  10.305   5.132  0.0088  0.2024  0.0392
26494W        W39908   5.487  13.147  12.949  0.0513  0.1054  0.1867
26495W        W39909   4.583   7.230  16.270 -0.0663 -0.3277  0.2859
26496W        W39910   6.508  10.038   3.956  0.2116 -0.2996 -0.0570
26497W        W39911   0.126   4.219  14.527  0.1419  0.0103  0.5162
26498W        W39912  15.389  13.199   0.273 -0.0251 -0.0976  0.3521
26499W        W39913  12.513   6.587  10.947 -0.0253 -0.1658  0.1627
26500W        W39914  14.149   1.163   4.547  0.0294 -0.1943  0.0569
26501W        W39915  12.996   1.892   0.699 -0.0720  0.2104  0.1706
26502W        W39916  17.019  15.062   3.792 -0.0390  0.4648  0.2225
26503W        W39917  18.112  15.164   0.407 -0.0855 -0.1115 -0.1959
26504W        W39918  15.185   0.273   2.393  0.1437  0.1690  0.4055
26505W        W39919  13.044  17.743  10.831 -0.3611  0.0187  0.1297
26506W        W39920  16.452  11.154   3.638 -0.3009 -0.4004 -0.0580
26507W        W39921   5.583  15.949  13.611 -0.0532 -0.1402  0.3118
26508W        W39922  16.553   9.281   1.203 -0.0623 -0.3130 -0.0774
26509W        W39923   9.989  16.503   3.178  0.2939 -0.3245  0.0963
26510W        W39924   4.044   4.218   2.101 -0.2435 -0.0631 -0.1595
26511W        W39925  12.325   6.877  15.741 -0.2986  0.1341 -0.0689
26512W        W39926   7.016   3.397  11.407  0.2126  0.0428  0.0184
26513W        W39927  16.750  17.757   3.020 -0.1698  0.0921 -0.0289
26514W        W39928   0.831  14.432  15.052  0.1073  0.0371 -0.1475
26515W        W39929   7.287   6.594  10.856  0.2016  0.1637 -0.2198
26516W        W39930   8.848   2.635  15.267 -0.0729  0.2042  0.0522
26517W        W39931   5.098   6.049  10.001 -0.0580 -0.1287 -0.0252
26518W        W39932   7.657  17.732   1.373  0.0599  0.0811  0.0326
26519W        W39933   8.407  11.896   3.741  0.0406 -0.2073 -0.0056
26520W        W39934  15.871   1.975  14.365  0.2284  0.0546  0.0856
26521W        W39935   7.071   8.659  11.737  0.1281  0.0546  0.2159
26522W        W39936  10.368  10.979   3.253 -0.1421  0.0649 -0.2031
26523W        W39937   3.264   1.203   1.444  0.0849 -0.1176  0.1973
26524W        W39938  16.839  12.104  11.195  0.0790  0.0931  0.1413
26525W        W39939   3.165   7.904   1.286  0.1904 -0.0234  0.0084
26526W        W39940   3.608  12.492   2.798 -0.0187  0.0486 -0.2141
26527W        W39941   5.383   0.883  13.370 -0.0627  0.0479 -0.1690
26528W        W39942   7.439  14.562  16.287  0.1634 -0.0718 -0.0161
26529W        W39943   1.305  15.230  12.150 -0.1719 -0.1071  0.0611
26530W        W39944   6.611   3.642  13.315 -0.1493  0.2905  0.0237
26531W        W39945  14.413   8.353   1.137 -0.1028  0.2233 -0.0857
26532W        W39946   1.754   0.436  14.522  0.0022 -0.3991 -0.1867
26533W        W39947   4.954   9.497  15.550  0.1606 -0.3326  0.2201
26534W        W39948  18.066  17.281   0.476 -0.1906  0.2524 -0.3801
26535W        W39949   2.183   5.211  12.023 -0.1824 -0.2618 -0.1026
26536W        W39950   5.871   6.339  12.007  0.2309  0.0970 -0.0541
26537W        W39951   9.846  14.261   4.511  0.1033 -0.1617  0.1403
26538W        W39952   5.975   6.216  16.451 -0.2449  0.0566 -0.1085
26539W        W39953   2.698   7.032   0.455  0.0756 -0.0162  0.1279
26540W        W39954   2.458   9.693  14.926  0.0859 -0.3369  0.1651
26541W        W39955   4.092   6.308  12.012 -0.0791 -0.1721 -0.0137
26542W        W39956  11.032   2.392  13.272  0.0275  0.1604 -0.1014
26543W        W39957   3.402   6.003   3.684 -0.0009 -0.0703 -0.1537
26544W        W39958  15.980  11.496   2.088  0.0637  0.0350 -0.0362
26545W        W39959   4.593  17.916  10.954 -0.0346  0.0376 -0.0623
26546W        W39960   1.879  10.073   2.588 -0.1324 -0.1878  0.0414
26547W        W39961   5.403   5.754   4.739 -0.1145  0.1931 -0.2286
26548W        W39962  11.611   4.836   0.201 -0.1249  0.1859 -0.2813
26549W        W39963   2.711  16.717  14.103  0.1022 -0.1190  0.2012
26550W        W39964  10.680  16.580  12.863  0.0246 -0.1637  0.0072
26551W        W39965  11.108  16.355   5.022 -0.1726  0.3126 -0.2665
26552W        W39966   2.158  10.054   3.598  0.1334 -0.0630  0.1111
26553W        W39967  10.772  14.640   3.482 -0.0136 -0.1089 -0.0452
26554W        W39968  11.958   0.487   3.503  0.1484  0.1494  0.0065
26555W        W39969   7.999  12.934  11.781  0.1307 -0.2265  0.2061
26556W        W39970  14.742  14.556  14.460 -0.3007  0.1828 -0.0831
26557W        W39971  12.334  13.572  11.300  0.4036  0.0135 -0.3183
26558W        W39972   1.086  13.018   6.836  0.1646 -0.2487  0.2747
26559W        W39973  12.172  12.658   5.407  0.2053  0.2996  0.0283
26560W        W39974   1.714   5.797  14.800  0.1567  0.0122  0.1160
26561W        W39975   4.805  13.618   0.089  0.0186 -0.0738 -0.2782
26562W        W39976  10.944   6.931   0.139  0.0769 -0.1313  0.3148
26563W        W39977   8.886   3.043  15.676 -0.1827 -0.2094 -0.1861
26564W        W39978   0.215   5.746  10.529 -0.0240  0.1658  0.5301
26565W        W39979   3.011   0.900   5.907 -0.1159 -0.2465 -0.2442
26566W        W39980   0.673  11.908  12.588  0.0588 -0.1505  0.2209
26567W        W39981  13.519   4.822  14.037 -0.0546  0.1147  0.0794
26568W        W39982  10.100   2.194  13.930  0.2259  0.1313  0.1334
26569W        W39983  11.145   5.170   2.233 -0.0347 -0.2255 -0.1486
26570W        W39984  12.438  10.732  14.462  0.0217  0.0260  0.1977
26571W        W39985  13.182   3.904   3.957 -0.4407 -0.2719  0.0004
26572W        W39986  17.489   7.130  15.426  0.0328 -0.0863  0.1351
26573W        W39987   9.253  11.525  12.099  0.0102  0.3797  0.2707
26574W        W39988  15.539  11.450   0.006  0.1459 -0.2589 -0.1536
26575W        W39989  18.083  11.267  16.184 -0.3416  0.0445 -0.1577
26576W        W39990   3.625  17.454   2.320 -0.1139 -0.0625 -0.1576
26577W        W39991  17.600  13.332  12.774  0.0569  0.0617  0.1757
26578W        W39992  14.353   0.194   2.379  0.1066 -0.3016  0.0468
26579W        W39993  15.213  14.567  13.497  0.1298 -0.1288  0.1305
26580W        W39994   2.413  11.832  13.076  0.1099 -0.3960  0.0135
26581W        W39995  11.795  12.769   4.965 -0.0342  0.1957  0.4940
26582W        W39996   7.635   0.904   3.357  0.1380  0.2088 -0.1218
26583W        W39997  14.686  10.667  15.819 -0.1740 -0.4472 -0.1464
26584W        W39998   3.571   9.260   3.335  0.3504  0.2420 -0.1841
26585W        W39999   3.882  13.392  11.602  0.2597 -0.2100  0.0310
26586W        W40000  14.385  14.188   2.350 -0.2678 -0.1310  0.2268
26587W        W40001  15.774  14.788  13.352 -0.0300  0.3460 -0.0836
26588W        W40002   5.444   2.321  11.369  0.1054  0.0405 -0.1825
26589W        W40003   5.864  13.377  14.635  0.1825  0.1416  0.0705
26590W        W40004  15.058   6.277  11.455 -0.0306  0.1874  0.0187
26591W        W40005  10.660  14.204   2.693 -0.1701  0.1741  0.1508
26592W        W40006   4.470   1.004   6.150  0.2005  0.3062 -0.1369
26593W        W40007   8.833  12.819  15.744  0.2748  0.0174 -0.2477
26594W        W40008   3.436  15.820   4.782  0.5404  0.0488 -0.3561
26595W        W40009   2.712   4.075   9.866 -0.1881  0.1159 -0.3243
26596W        W40010  16.430   3.395  15.226  0.1296  0.1041 -0.0496
26597W        W40011   1.151  13.102  11.657 -0.0337  0.3175  0.1305
26598W        W40012   4.873   1.991  14.069  0.2033 -0.1497 -0.0023
26599W        W40013   0.157   1.414   4.857  0.1569  0.1379 -0.2040
26600W        W40014  13.127  14.192   2.715  0.3071 -0.0344  0.2523
26601W        W40015  16.370  18.163  15.568 -0.2746  0.1794  0.0604
26602W        W40016  17.677   1.886  12.622 -0.1070 -0.2080 -0.0900
26603W        W40017  15.746   2.062  12.445  0.3292  0.1226  0.1382
26604W        W40018  12.928  14.405  14.995 -0.4010 -0.1817  0.1168
26605W        W40019   6.330   7.888   5.894  0.1271 -0.0310  0.1712
26606W        W40020  14.655  10.469  13.535 -0.2022 -0.1342 -0.1311
26607W        W40021  12.630   8.455  11.786  0.2929 -0.0153 -0.1558
26608W        W40022   6.743  13.887   3.366 -0.0319 -0.1448  0.0556
26609W        W40023   3.018   1.302  16.307 -0.1523 -0.3444 -0.2470
26610W        W40024   2.159  13.604   5.218 -0.0419  0.0421 -0.0084
26611W        W40025   1.992   8.879   2.481 -0.2875  0.0441  0.1838
26612W        W40026  17.903   3.221   4.076  0.0928 -0.3894 -0.0141
26613W        W40027  11.511  17.852  13.232  0.0426 -0.0881  0.0910
26614W        W40028   7.546   2.436  15.594  0.2173 -0.1621  0.2441
26615W        W40029  12.931   2.939   3.826  0.2014 -0.2624 -0.1176
26616W        W40030  17.134  17.851   1.908 -0.0915 -0.1171 -0.1243
26617W        W40031   4.566  11.016   5.497  0.1160 -0.0721  0.0096
26618W        W40032   7.763   8.952   3.035 -0.2031 -0.1674  0.1448
26619W        W40033   3.310  10.679  15.221  0.1378 -0.1813  0.1445
26620W        W40034  10.062  12.819  11.726 -0.3883  0.0997 -0.0050
26621W        W40035  10.780   7.358  16.457  0.1120  0.0879 -0.2198
26622W        W40036   2.494   0.862   1.924 -0.0344 -0.4200  0.1252
26623W        W40037   6.323  10.379  15.885  0.2986 -0.1207  0.3605
26624W        W40038   7.101   5.382  12.717 -0.3296 -0.2539 -0.1472
26625W        W40039  14.758  12.019   2.528 -0.0381  0.3239 -0.4296
26626W        W40040   9.497   8.639   9.927  0.1105  0.0646 -0.2243
26627W        W40041  10.658   6.645  12.262 -0.1215 -0.1679 -0.2134
26628W        W40042  11.656   7.674   1.930  0.0690 -0.0257 -0.2405
26629W        W40043   8.360   6.349  11.304 -0.0867  0.0096  0.0516
26630W        W40044   1.738  17.843  13.707  0.0241 -0.1713 -0.0723
26631W        W40045  12.429   8.808   4.168  0.0102  0.0467  0.4464
26632W        W40046   3.451   6.763  16.447 -0.0601 -0.0875 -0.0810
26633W        W40047  10.799   0.663   2.441  0.0975 -0.0668 -0.0520
26634W        W40048   8.941   6.225  11.970 -0.0788  0.0813  0.0193
26635W        W40049   6.932   8.933   4.140  0.0870 -0.1306 -0.1939
26636W        W40050  15.074  14.419   5.749  0.3231 -0.1615  0.2592
26637W        W40051   4.422  14.693   5.934  0.2382  0.3638 -0.1621
26638W        W40052  15.570   0.690   2.500 -0.0964  0.1648 -0.0068
26639W        W40053   2.158   8.035  13.812 -0.3252 -0.0387 -0.2168
26640W        W40054   1.413  11.191   0.695 -0.0847  0.3459 -0.3682
26641W        W40055  11.567  18.006   4.377 -0.0178 -0.1015 -0.1066
26642W        W40056  11.869   1.945   6.079  0.1073 -0.2176 -0.0412
26643W        W40057   8.304  13.623  16.099  0.1108 -0.1866 -0.0533
26644W        W40058  11.998   9.608   0.072  0.0929 -0.0427  0.1175
26645W        W40059   7.278   5.855   5.125 -0.2114  0.0517  0.1025
26646W        W40060   8.647  15.297   6.129 -0.0681 -0.3201  0.2312
26647W        W40061   1.205  15.686  14.675  0.0132  0.0650  0.0642
26648W        W40062  16.290   0.716   4.854  0.0825  0.2538 -0.1779
26649W        W40063   0.212   0.970   5.229  0.1675  0.2558 -0.1683
26650W        W40064  17.456  18.138  10.383  0.1430 -0.1841 -0.0214
26651W        W40065  12.884   7.022   4.034  0.3068  0.0662  0.1057
26652W        W40066  14.717  12.997  16.155  0.2314  0.2895  0.2233
26653W        W40067   7.951  16.446  13.162  0.0931 -0.0194 -0.4138
26654W        W40068  17.671  10.732  14.894 -0.2098  0.0295 -0.1345
26655W        W40069  12.247  18.029   1.497 -0.1669 -0.0946 -0.1162
26656W        W40070   7.511   1.589  13.247 -0.1028  0.1485 -0.0286
26657W        W40071  13.083  13.215   3.325 -0.0239  0.2018 -0.3155
26658W        W40072  13.132   2.235   5.186  0.1237 -0.1941  0.0669
26659W        W40073   7.221  14.230   0.680 -0.2058  0.0209  0.1351
26660W        W40074  15.615   4.785   2.079  0.0182  0.4824 -0.1158
26661W        W40075   4.570   8.778   3.981 -0.0201  0.1057 -0.2874
26662W        W40076   5.500   1.360  13.502 -0.1042 -0.1242  0.2220
26663W        W40077  11.652   5.391  12.704 -0.1132 -0.0918 -0.4642
26664W        W40078  14.322  11.486   2.699  0.0212  0.0811  0.0413
26665W        W40079   0.696  17.093  13.056 -0.0059  0.0125 -0.2195
26666W        W40080   7.040   9.154  16.209  0.0736  0.1832  0.1471
26667W        W40081   7.199   7.652  11.373  0.0374 -0.1165  0.1660
26668W        W40082   6.307   0.368  13.970 -0.2473 -0.3459  0.3630
26669W        W40083   9.138  12.580  10.132  0.0381 -0.1360 -0.0983
26670W        W40084   1.668   9.591   2.366 -0.1868 -0.3089  0.0307
26671W        W40085   8.739  17.240  15.679 -0.0724 -0.2256 -0.0501
26672W        W40086   2.477   2.014   1.134 -0.1656 -0.1338  0.0049
26673W        W40087  17.093   6.528  13.619 -0.2815 -0.0954  0.0465
26674W        W40088  16.879  17.561  10.585 -0.1650  0.2183 -0.0811
26675W        W40089  17.978  10.395   3.156  0.0826 -0.1344 -0.2598
26676W        W40090   3.668   3.469   1.163  0.2078  0.2120  0.3232
26677W        W40091  17.302  11.055   5.433  0.1040 -0.2698  0.2837
26678W        W40092  13.404   2.011  15.088  0.1489 -0.0547 -0.2652
26679W        W40093   3.652  14.054  15.303 -0.0358 -0.1478 -0.0128
26680W        W40094   1.083  11.545  12.559  0.0394  0.0539 -0.1138
26681W        W40095  14.765  10.970  12.179 -0.1665  0.3665 -0.0715
26682W        W40096   4.859   9.863   0.823 -0.0609  0.1417 -0.0480
26683W        W40097   6.645  12.048  11.299 -0.0806  0.1888  0.0578
26684W        W40098  14.384  12.015   1.118 -0.0507  0.1704 -0.2806
26685W        W40099  10.721  15.345  12.222 -0.1236  0.0753  0.3016
26686W        W40100  10.094  10.341   4.564 -0.0365  0.3320  0.0330
26687W        W40101   3.889   7.717  14.545 -0.0737  0.0167 -0.2459
26688W        W40102   9.168  14.714  14.044 -0.0880  0.2226  0.0589
26689W        W40103   7.561  17.784   2.154  0.0657 -0.0712 -0.0136
26690W        W40104  15.470  17.828   2.434 -0.1558 -0.1747  0.0074
26691W        W40105  15.053   3.111   5.694 -0.0826  0.1174  0.1383
26692W        W40106   8.220  15.113   1.720 -0.1245 -0.1448  0.0632
26693W        W40107  13.185  14.975   2.110 -0.0012  0.1740  0.0801
26694W        W40108   6.034  13.485   9.958  0.0753  0.0038 -0.1153
26695W        W40109  16.720  14.355   2.167 -0.2329  0.2274  0.1102
26696W        W40110  11.942   4.258  15.136 -0.0458  0.1454 -0.1113
26697W        W40111   3.582   1.838   5.670 -0.0740  0.2137  0.0824
26698W        W40112   1.045   4.346   4.061  0.0776  0.0271  0.2718
26699W        W40113   0.172   9.043  13.328 -0.3981 -0.0179 -0.1017
26700W        W40114  12.726   9.592   2.825  0.1788  0.1006 -0.1805
26701W        W40115  11.547  12.202  13.393 -0.2090  0.0055  0.2023
26702W        W40116  16.465  11.678  14.102  0.0036 -0.0099 -0.1598
26703W        W40117   6.909   6.892   5.047  0.0955 -0.1900 -0.2284
26704W        W40118  16.158   2.538  15.418  0.2684  0.0289  0.1731
26705W        W40119   3.548   5.340  10.674 -0.3124  0.3362 -0.2199
26706W        W40120  17.188   2.181   2.752 -0.0178 -0.1310 -0.1138
26707W        W40121   1.970  17.393   3.159 -0.0574 -0.1637  0.3277
26708W        W40122  13.513   0.671   5.006  0.2036 -0.0740  0.1444
26709W        W40123  11.117   2.841  14.648  0.0216  0.1839 -0.0216
26710W        W40124   9.908  12.172  10.891  0.2817 -0.0472 -0.0756
26711W        W40125  10.025  13.627   1.248 -0.1525  0.1446  0.0428
26712W        W40126   2.045   3.705  15.983 -0.0544  0.1009 -0.0535
26713W        W40127   9.764  11.013  13.027 -0.0340  0.1717 -0.1537
26714W        W40128  13.545   4.575   9.875  0.0935  0.2174  0.3052
26715W        W40129   8.201  16.418  15.868  0.0261  0.1716  0.0964
26716W        W40130   9.315  16.811   5.918  0.2069  0.0964  0.0407
26717W        W40131   2.081  12.013  15.634 -0.1021  0.3133  0.1876
26718W        W40132  12.004   5.389   6.582  0.1729  0.1615  0.0274
26719W        W40133   9.036  10.844  10.433 -0.1854  0.1869  0.2492
26720W        W40134   4.351  13.999  12.379 -0.3718 -0.0066 -0.1402
26721W        W40135   9.173   4.359   4.630 -0.0425 -0.1330  0.2933
26722W        W40136   8.740  15.661   3.967 -0.3615 -0.0721  0.2143
26723W        W40137  14.508   4.107  13.430  0.0805 -0.0563  0.1442
26724W        W40138  16.829   1.235  11.881 -0.1285  0.1266 -0.0724
26725W        W40139  13.953   2.025   2.906  0.0754  0.0520  0.1224
26726W        W40140   4.974   9.275   5.766  0.1747  0.2697  0.0743
26727W        W40141   6.774  16.557   2.890 -0.0706 -0.0562 -0.0179
26728W        W40142   6.498   5.462  11.331  0.4869 -0.3158 -0.0585
26729W        W40143   4.721   0.261  13.139 -0.2413  0.0891 -0.1749
26730W        W40144  15.647   6.906  13.975 -0.1905  0.2656 -0.2016
26731W        W40145   1.167   7.292  15.041  0.0139 -0.1514  0.1825
26732W        W40146   5.807   6.214   4.703  0.1581  0.4197  0.1406
26733W        W40147   2.075  15.246  14.419  0.2206 -0.1482 -0.0744
26734W        W40148   6.276   2.290  13.466  0.3687 -0.0061  0.2638
26735W        W40149  17.430   4.239  13.097  0.0591  0.0303 -0.1650
26736W        W40150  13.789   3.601  10.291 -0.0562 -0.0512  0.0627
26737W        W40151   9.522   5.175  16.183 -0.0596  0.1336 -0.4383
26738W        W40152   1.774   7.011  10.547 -0.3151 -0.1751  0.1789
26739W        W40153   6.032   6.122  13.961  0.0533 -0.0060 -0.0856
26740W        W40154   8.955   8.847  10.212  0.0155 -0.0178  0.0210
26741W        W40155   0.682   7.178  15.174  0.0568 -0.3311 -0.0413
26742W        W40156   1.807   7.399  10.958 -0.0531  0.1161 -0.0047
26743W        W40157   4.462   8.301  11.199 -0.1028  0.0450 -0.1125
26744W        W40158  13.023   6.165   2.473  0.0898 -0.2700  0.2512
26745W        W40159  12.492   8.148  10.911  0.0623  0.0389  0.2142
26746W        W40160  13.447   8.564  15.596 -0.1208  0.1784  0.0120
26747W        W40161  12.574   1.073  11.871  0.2160  0.0609  0.0313
26748W        W40162   9.878   9.732  15.007  0.1402 -0.3680 -0.0100
26749W        W40163  11.355   8.628   4.193 -0.0881 -0.3893  0.2770
26750W        W40164  17.438   4.342  14.639 -0.1181  0.1187  0.0174
26751W        W40165   4.482   7.499  13.760  0.0807  0.1714  0.2471
26752W        W40166   3.543  17.843   5.487  0.3125  0.1171  0.1432
26753W        W40167   6.539  15.998  10.706  0.1497 -0.0419 -0.1653
26754W        W40168   9.248  12.825  15.462 -0.1535  0.1749 -0.3086
26755W        W40169  17.409  13.926   4.882  0.2105  0.1015 -0.1277
26756W        W40170   0.023   7.983  15.043 -0.2967  0.3232 -0.1622
26757W        W40171  15.837   8.465  10.668 -0.1230  0.1969  0.1858
26758W        W40172  11.641   4.585   4.616  0.1309 -0.1745 -0.1406
26759W        W40173   1.381   1.813  15.051 -0.3709  0.1403 -0.0112
26760W        W40174   0.998  12.985  15.890 -0.1223 -0.0751 -0.0126
26761W        W40175  15.829   1.605   3.662  0.0428 -0.0947 -0.1728
26762W        W40176   1.615   1.349   5.415 -0.0397  0.1938 -0.0168
26763W        W40177   8.965  11.589  14.635  0.1285 -0.2035 -0.0647
26764W        W40178  17.786   4.574   4.093 -0.0614 -0.1915  0.1463
26765W        W40179   2.695  14.439  12.882  0.0601  0.0149  0.1521
26766W        W40180  17.921  12.365  12.311 -0.0065 -0.4398  0.4271
26767W        W40181   6.424   3.767  12.679  0.0651  0.3902 -0.0329
26768W        W40182  15.334  13.846   2.948  0.0106  0.1985 -0.0273
26769W        W40183  13.068  10.474  12.003  0.0749 -0.0563  0.3904
26770W        W40184   3.212  10.139   6.843  0.1682 -0.1868 -0.2686
26771W        W40185   0.551   1.498   1.040  0.0255  0.0871 -0.2892
26772W        W40186  10.850   8.691  11.704  0.1954 -0.1895 -0.0987
26773W        W40187  13.453  14.849  10.531 -0.0621 -0.2853  0.2151
26774W        W40188   9.518   7.151   1.738  0.2742  0.1024  0.1149
26775W        W40189  12.630   9.461  12.469 -0.1789  0.0601 -0.1890
26776W        W40190  17.019  12.833   5.739 -0.2516  0.3377 -0.1259
26777W        W40191  10.920   0.552   5.395 -0.1198  0.0909  0.1491
26778W        W40192   7.682   5.066  14.705  0.1431 -0.1208 -0.0444
26779W        W40193  13.955   2.133  13.343  0.0420  0.0404  0.3139
26780W        W40194  15.854   5.162   5.047 -0.1988 -0.0667  0.1048
26781W        W40195  15.847  16.598  12.474  0.0633  0.1764 -0.0699
26782W        W40196  10.523  10.105  14.562 -0.1386 -0.1453 -0.0881
26783W        W40197   5.482  15.412  11.119 -0.0073  0.2020  0.0478
26784W        W40198  15.823   3.045   2.271 -0.1584  0.0247  0.1602
26785W        W40199  15.959   0.388   5.877 -0.0590  0.2562 -0.2309
26786W        W40200  15.693  11.346   0.975 -0.0145  0.0504  0.0390
26787W        W40201   0.159  13.439   4.801 -0.2163  0.1635  0.0346
26788W        W40202  11.242   0.869   3.486 -0.0242 -0.0171 -0.0671
26789W        W40203   5.414  13.036   4.406 -0.0664  0.2635  0.1674
26790W        W40204   4.429   5.806   9.848  0.1498 -0.4453  0.0066
26791W        W40205   5.435  10.089  11.297 -0.2212 -0.0288 -0.0852
26792W        W40206   6.752   3.193  14.988 -0.2365 -0.2949  0.0127
26793W        W40207   8.691   4.302  15.826 -0.1342  0.0138  0.2364
26794W        W40208   0.556   4.130   2.916  0.0492 -0.1515  0.0536
26795W        W40209  17.481  15.831  12.973 -0.0128  0.1453  0.0608
26796W        W40210   1.129  11.493   2.498  0.2670 -0.1572 -0.1787
26797W        W40211   5.056   7.526  11.337 -0.0109  0.0979  0.4673
26798W        W40212  10.271   3.505   0.836 -0.0709 -0.3823 -0.3875
26799W        W40213  10.932  12.628  16.244  0.2595  0.2629 -0.1454
26800W        W40214  15.462   6.721  15.249  0.1995 -0.1175  0.1368
26801W        W40215  10.546  10.841  13.069  0.2487 -0.0494  0.0484
26802W        W40216   7.051  17.643   1.225 -0.1379  0.0157  0.1444
26803W        W40217   8.607   9.028  14.204 -0.1584  0.1686  0.0796
26804W        W40218   5.390  15.218   0.523 -0.2114  0.0041 -0.0334
26805W        W40219   6.127  10.197   1.168  0.2038 -0.2650  0.0091
26806W        W40220   6.430  13.968  12.947 -0.0376 -0.0897 -0.0301
26807W        W40221   6.679   1.717  13.562  0.1524  0.1952 -0.0192
26808W        W40222   2.837  15.330   5.554  0.0493  0.0795 -0.2831
26809W        W40223  12.898   0.961   0.679  0.0184 -0.0213 -0.0037
26810W        W40224  13.305   6.033  11.600  0.0180  0.0631  0.2219
26811W        W40225   8.080  12.025  13.250 -0.2353  0.0042 -0.0212
26812W        W40226  17.513   9.941  15.141  0.4892  0.0107  0.1398
26813W        W40227  11.939   4.309  16.172 -0.1443 -0.1877  0.3984
26814W        W40228  17.979   0.582  10.637  0.0250 -0.0544 -0.3438
26815W        W40229  16.127   5.590  12.903  0.2427 -0.0613  0.3763
26816W        W40230  15.118   5.682  12.320  0.0794 -0.0159 -0.0923
26817W        W40231  11.080   5.899   1.628 -0.2143  0.1362 -0.2624
26818W        W40232   5.778  12.342  10.888 -0.4095 -0.0995 -0.3104
26819W        W40233   7.484  18.157   5.307  0.1678  0.2887  0.2447
26820W        W40234   4.370   5.032  14.722  0.1448 -0.1624 -0.0354
26821W        W40235   0.870   8.258  12.770 -0.1057 -0.0611 -0.0811
26822W        W40236  15.184  12.445   4.706  0.3760 -0.0208  0.0866
26823W        W40237   3.259  16.771  12.383  0.0635 -0.0447  0.2531
26824W        W40238   5.248   1.255  12.463  0.2781 -0.1963  0.0902
26825W        W40239   9.063   1.754   6.139  0.3503  0.0214 -0.0221
26826W        W40240  11.688  17.856   6.414 -0.2151  0.0066 -0.0497
26827W        W40241  10.502   4.282  11.772  0.1452  0.1778  0.0904
26828W        W40242   2.624  18.017   4.311  0.2457  0.2037 -0.0044
26829W        W40243  13.778  12.487  11.955  0.2456  0.2358  0.3121
26830W        W40244  17.667  16.026  12.512  0.1535  0.0143  0.0692
26831W        W40245   9.043   2.924  11.138  0.0584  0.4143  0.0446
26832W        W40246  14.080   8.765   1.039 -0.1189 -0.5277  0.0271
26833W        W40247  11.488   9.752  12.968 -0.0409 -0.1024 -0.3862
26834W        W40248  17.577   3.842   0.271  0.4021 -0.0397 -0.1169
26835W        W40249   6.711  16.128   0.456  0.2248  0.2244  0.2987
26836W        W40250   6.622   6.606   1.666  0.1107  0.1993 -0.0442
26837W        W40251   2.604  17.462   0.302 -0.1243  0.0799  0.1953
26838W        W40252  11.415  13.179   6.479  0.1826 -0.1058  0.1313
26839W        W40253  10.855   5.765   3.285  0.0249 -0.0163 -0.2875
26840W        W40254  16.289   9.214   5.841  0.0131 -0.3222 -0.3901
26841W        W40255   2.829   4.234   1.049  0.0787 -0.3084 -0.0839
26842W        W40256   7.738  12.265   3.103 -0.0587  0.3394 -0.2695
26843W        W40257  11.925   6.967   1.256 -0.0942  0.1866  0.2805
26844W        W40258   6.935  15.963  15.675  0.1386 -0.0579  0.1312
26845W        W40259   2.690   9.396  16.463  0.3937 -0.2413  0.4181
26846W        W40260  11.970  15.365  10.884  0.0586 -0.0878 -0.1350
26847W        W40261   7.086  11.412  13.129  0.2453  0.2826  0.2674
26848W        W40262   6.979   6.096   5.661  0.0980  0.0801  0.1491
26849W        W40263  14.917  14.498   1.743  0.1927  0.2111  0.0375
26850W        W40264  11.267  15.726  15.256 -0.1169  0.1640  0.0559
26851W        W40265   6.237   2.702   1.797 -0.0287 -0.0875  0.2948
26852W        W40266   6.383   9.906  12.247  0.1127 -0.1742 -0.3133
26853W        W40267   7.886   2.016  10.728  0.1656 -0.0980 -0.0740
26854W        W40268   3.028   2.405  15.940 -0.0843  0.2453  0.3150
26855W        W40269  14.832   1.509  15.971 -0.4044 -0.3091  0.0009
26856W        W40270  17.465  11.066   4.377 -0.1090  0.1449  0.0577
26857W        W40271  11.025  16.398   6.057 -0.3180  0.3153  0.2730
26858W        W40272   4.435   8.798  13.110  0.0278 -0.0455  0.1696
26859W        W40273  13.942   0.960  15.614 -0.0611  0.1641 -0.1865
26860W        W40274   5.011  17.042   6.909  0.2375 -0.0523  0.2138
26861W        W40275  11.051   4.758  16.055 -0.1443 -0.1089 -0.0119
26862W        W40276   2.151   5.801   1.258  0.2369 -0.0341 -0.2277
26863W        W40277  16.304   0.060  11.772 -0.4877  0.2571  0.0079
26864W        W40278  14.073  15.678  15.833 -0.3576  0.0442 -0.1406
26865W        W40279   9.447   3.108  15.436 -0.0246  0.1953 -0.2337
26866W        W40280   2.845   3.065  14.333 -0.1693 -0.0936  0.0856
26867W        W40281   5.140  10.451  15.339 -0.3915 -0.3058 -0.0371
26868W        W40282   5.280  16.473   3.701  0.1298  0.3751 -0.0975
26869W        W40283  13.508   2.136  13.613  0.0729 -0.1334  0.0054
26870W        W40284  15.409   7.207  10.479 -0.1910  0.0772  0.0970
26871W        W40285   5.336  14.294   0.646  0.2121  0.1342  0.1103
26872W        W40286   8.869  15.122   5.007 -0.3127  0.0334  0.0555
26873W        W40287   0.168   2.264   6.365 -0.1717  0.1544  0.0576
26874W        W40288  16.645  10.000  12.095 -0.1189  0.3296  0.4813
26875W        W40289   3.105   5.088   2.249 -0.0933  0.0586  0.1321
26876W        W40290  10.110  15.669   0.753 -0.0234  0.0701  0.0930
26877W        W40291  11.938   7.518  13.510  0.0427 -0.1956  0.0513
26878W        W40292  17.861   6.324  11.684 -0.1763 -0.0162  0.0276
26879W        W40293  10.882  17.959   3.540  0.0811 -0.2403 -0.0717
26880W        W40294  11.654  11.760  12.833 -0.0739  0.0711  0.0271
26881W        W40295   0.404  13.740  14.257 -0.2699 -0.1265  0.1834
26882W        W40296   1.893  18.284   5.533  0.0488 -0.0334 -0.1859
26883W        W40297   8.830   1.065  14.618 -0.0686  0.0132 -0.0137
26884W        W40298  11.146  13.339   2.575 -0.0103  0.2086 -0.0380
26885W        W40299  13.457   3.519   3.887 -0.0211 -0.0749  0.2792
26886W        W40300   7.584   2.567   1.275 -0.0397 -0.1115  0.0025
26887W        W40301  15.131   0.575   4.544  0.2695  0.1671  0.2109
26888W        W40302   0.322   0.683  13.053 -0.0250 -0.0633 -0.2069
26889W        W40303   7.397   7.382  14.412 -0.0110 -0.2389  0.1551
26890W        W40304   9.895  16.967   0.779  0.1139 -0.2398  0.1871
26891W        W40305   0.869   3.717   2.642  0.2825  0.1099  0.1316
26892W        W40306  11.273  17.401   1.932  0.2946 -0.2411 -0.3618
26893W        W40307  14.092  15.747   3.319  0.0417 -0.1018 -0.2847
26894W        W40308   9.575   7.886   3.152  0.1164 -0.1464  0.2082
26895W        W40309   7.477   2.838   4.439 -0.2287  0.1056 -0.0964
26896W        W40310   6.233  14.617   3.618  0.1270 -0.3414  0.2198
26897W        W40311   1.267   6.067  11.474  0.2321 -0.0067 -0.2675
26898W        W40312   5.478   3.957   1.316 -0.0555  0.3851  0.0245
26899W        W40313  11.669   8.536   3.365  0.0556 -0.1178 -0.0089
26900W        W40314  16.168   0.413  12.642  0.0011 -0.0156  0.1605
26901W        W40315  11.732   1.978  13.109  0.3481 -0.0717  0.0967
26902W        W40316   6.604   1.344  15.290 -0.0283  0.0874  0.2266
26903W        W40317   9.539  15.583   4.264  0.0489 -0.0256 -0.3010
26904W        W40318   4.353  15.978  15.308  0.0079 -0.0624 -0.1216
26905W        W40319   9.758   8.953  11.769  0.2881  0.0822  0.0875
26906W        W40320  17.556   1.947   1.291 -0.1020 -0.2071  0.3454
26907W        W40321   2.758   7.709   0.016  0.4460  0.2704  0.0686
26908W        W40322   8.295   2.062  13.498 -0.1369  0.0736  0.3109
26909W        W40323   7.946   8.054   4.135  0.1279 -0.0681  0.0893
26910W        W40324  15.113  16.948  13.468 -0.1850  0.0560  0.1867
26911W        W40325   8.589   4.884   0.515 -0.1827 -0.2877  0.3985
26912W        W40326   8.576  15.435   1.684  0.1088 -0.3594 -0.2176
26913W        W40327   4.943   3.648  12.033 -0.1455 -0.2517 -0.0247
26914W        W40328  14.749   2.511  11.383 -0.1298  0.3612  0.1882
26915W        W40329   5.598   4.126  11.842 -0.2213 -0.0145 -0.0806
26916W        W40330  14.780   2.532  13.827 -0.1511 -0.4240  0.1321
26917W        W40331   8.403   7.677  14.704 -0.2262 -0.3722  0.1223
26918W        W40332   4.285  14.443   0.079  0.2465  0.0894 -0.2985
26919W        W40333  14.846  18.163   4.935 -0.0242 -0.2145 -0.0028
26920W        W40334  14.867  11.174  15.340 -0.0874  0.3097  0.0359
26921W        W40335   0.535  10.619  15.639  0.0587 -0.1635 -0.1087
26922W        W40336   1.730  15.892   3.408 -0.0112 -0.0830  0.0468
26923W        W40337  14.873   0.600  10.901 -0.1000 -0.6188  0.1940
26924W        W40338   3.497  15.532   2.436 -0.0505 -0.0046 -0.0894
26925W        W40339   8.299  15.956  13.372  0.0391  0.0225  0.1870
26926W        W40340  13.902  15.059  14.179 -0.3497  0.1737 -0.2020
26927W        W40341   8.638  14.197  12.727 -0.3691 -0.0552  0.0530
26928W        W40342  10.242   7.980   5.098 -0.2047 -0.1803  0.1258
26929W        W40343  10.452  13.047   0.100 -0.0592 -0.1391 -0.0670
26930W        W40344   0.314  16.676  14.625  0.1182 -0.0014 -0.1377
26931W        W40345  12.656   6.020  11.822  0.2685  0.0365 -0.1399
26932W        W40346   6.978   5.424  12.223  0.1608 -0.3196  0.1992
26933W        W40347   0.067  14.733   5.181  0.3649  0.1122 -0.0193
26934W        W40348   5.388   8.002  12.166  0.1762 -0.0669 -0.1787
26935W        W40349   1.090   3.734  10.404 -0.2609  0.1953  0.0294
26936W        W40350  15.824  11.528   3.635  0.0132 -0.0978  0.0999
26937W        W40351   1.758  11.889  13.615  0.1662 -0.0430  0.3716
26938W        W40352   7.520  13.543  11.275 -0.0609  0.3406 -0.0793
26939W        W40353  17.882   9.133   3.787  0.1549  0.1390  0.0648
26940W        W40354  16.258   2.794   3.188  0.2524  0.1019  0.1301
26941W        W40355  15.158  14.263  11.140  0.4597  0.2952  0.1415
26942W        W40356   9.696  10.969  16.480  0.5056  0.1294 -0.1837
26943W        W40357  10.081  11.649  10.893 -0.0019  0.2965 -0.5163
26944W        W40358  10.727   2.061  12.934 -0.2744 -0.2860 -0.3350
26945W        W40359   6.619   9.027  13.674 -0.0168 -0.0308 -0.1160
26946W        W40360  13.293  16.753  11.160  0.1811 -0.1371 -0.0622
26947W        W40361  13.970  17.319  14.006 -0.3420 -0.0144 -0.3137
26948W        W40362  18.027   9.678  10.578 -0.0631 -0.0301 -0.2887
26949W        W40363   1.934   2.883  12.516 -0.2200 -0.1643 -0.0893
26950W        W40364   4.423   7.398   4.387  0.0487  0.0307 -0.0387
26951W        W40365   9.189   1.899  13.693 -0.1690  0.0422 -0.1889
26952W        W40366   4.889  15.165   0.304 -0.0402 -0.0297  0.1842
26953W        W40367   5.946  16.007   5.766 -0.1858 -0.6769  0.0023
26954W        W40368  13.188   4.847   4.472 -0.1495 -0.2811 -0.2273
26955W        W40369  17.966   9.413  13.310 -0.1108  0.2220  0.0444
26956W        W40370   0.786  10.268  16.111  0.1245 -0.0028 -0.0872
26957W        W40371  10.676  11.593   1.038  0.0466 -0.0847 -0.0492
26958W        W40372  14.470   0.851  13.552 -0.3560  0.0476 -0.2258
26959W        W40373   6.288   2.398  12.422  0.1490  0.1151  0.3200
26960W        W40374   1.113   0.049  12.987  0.1534  0.0083  0.0920
26961W        W40375   3.428  11.805   1.883 -0.0941 -0.1281  0.0235
26962W        W40376   0.760   9.295  13.007  0.1034  0.0260  0.1728
26963W        W40377   0.880   7.080   1.433 -0.0041 -0.0645 -0.1478
26964W        W40378  14.418  16.910  13.133 -0.1899  0.0205 -0.1413
26965W        W40379  13.175   4.890  13.684  0.0322  0.2364  0.0307
26966W        W40380  14.150  12.755  16.320  0.0508 -0.2841 -0.1362
26967W        W40381   5.828   0.465  12.289  0.4372  0.1155  0.1995
26968W        W40382   7.368  17.534   3.689 -0.1244  0.3235 -0.1686
26969W        W40383   9.338   3.900   4.207 -0.3852 -0.0210 -0.1984
26970W        W40384   5.877   8.315   0.632 -0.1317 -0.2612  0.0112
26971W        W40385   8.758  14.154  15.372  0.2606  0.1951 -0.0709
26972W        W40386  17.091   4.054  14.963 -0.0167 -0.3032 -0.0669
26973W        W40387  11.305   8.301   1.661  0.1484 -0.1732 -0.0850
26974W        W40388   8.916   5.583  12.748 -0.0522 -0.1131 -0.2783
26975W        W40389  15.533   3.573  14.664 -0.1149 -0.0171 -0.0514
26976W        W40390  10.021   4.951   2.738 -0.0371 -0.2157  0.0446
26977W        W40391  15.811   9.812   2.644 -0.4139 -0.2326  0.1222
26978W        W40392   7.633  13.567  12.182 -0.1518 -0.2571 -0.1893
26979W        W40393   0.176  10.889   0.071 -0.0083  0.2661 -0.0262
26980W        W40394  16.969  14.425   6.090  0.1832 -0.0237 -0.1929
26981W        W40395   5.594  17.322   4.183 -0.3700 -0.3013 -0.1507
26982W        W40396   3.170   2.419   3.927  0.1271  0.1198  0.2271
26983W        W40397   3.649   6.498  11.320  0.1211 -0.0531  0.1368
26984W        W40398  11.365   6.877   5.485 -0.0037 -0.3148  0.1008
26985W        W40399   3.280   2.067   4.290  0.3529  0.4575  0.0132
26986W        W40400  11.789  16.345   2.904 -0.0938 -0.1345  0.0434
26987W        W40401   4.445  11.002  13.395 -0.0335 -0.1759 -0.3044
26988W        W40402  15.484  10.784   0.487 -0.2448 -0.0795  0.0404
26989W        W40403  17.750  11.850   4.394  0.2308 -0.2697 -0.2025
26990W        W40404   3.434  17.276  16.204 -0.1345  0.0890  0.0087
26991W        W40405   6.259  12.622   5.001  0.0537 -0.0789  0.1448
26992W        W40406  12.889  11.130  10.151  0.0793  0.1134 -0.0252
26993W        W40407   1.732   4.258  12.714  0.1754  0.0228 -0.1040
26994W        W40408   7.834   8.258  13.451  0.0031  0.1369  0.0006
26995W        W40409  15.127   1.073  14.998 -0.0382 -0.1611 -0.0849
26996W        W40410   3.270   7.075   2.513 -0.2048  0.0556  0.0784
26997W        W40411   4.641   4.399  16.279 -0.0540  0.0071  0.0528
26998W        W40412   9.473   7.719  16.485  0.0034 -0.0738  0.0005
26999W        W40413  16.475   1.876  10.070  0.0826  0.2575 -0.1710
27000W        W40414   2.703   9.078  10.145 -0.0358  0.2218  0.0289
27001W        W40415   6.317  16.737   2.839 -0.2182  0.0960  0.0307
27002W        W40416   9.154   9.225  10.492 -0.3621 -0.1416 -0.2652
27003W        W40417   4.570   7.966  14.951 -0.2956 -0.0632  0.2371
27004W        W40418   7.867  13.965  13.236 -0.2768  0.0158  0.2670
27005W        W40419   5.356   9.421   2.359 -0.1309 -0.0188 -0.1309
27006W        W40420   8.726  17.105   3.573 -0.3865  0.0999  0.1355
27007W        W40421  18.046   3.068  15.980  0.1794 -0.0043 -0.0370
27008W        W40422   3.829   8.687  12.858 -0.2555 -0.0112 -0.2201
27009W        W40423   7.820   6.069   3.309 -0.1223 -0.3849 -0.0761
27010W        W40424  15.227  12.308  15.630  0.1775 -0.1602  0.1310
27011W        W40425   4.611   6.981   2.483 -0.3251  0.2873 -0.1179
27012W        W40426  13.912   1.586   1.262  0.1340  0.0992 -0.1071
27013W        W40427  12.599   0.387   0.112 -0.1310  0.1787 -0.2056
27014W        W40428  13.618   6.922  11.928  0.1700 -0.0304 -0.0528
27015W        W40429   1.239   8.429  11.396 -0.4049  0.1075  0.1061
27016W        W40430   5.773   5.235   0.848  0.0530 -0.0632  0.1544
27017W        W40431  17.363  10.455  16.261  0.0681 -0.0911 -0.2871
27018W        W40432  15.721   2.928  14.014  0.0833  0.2268 -0.1297
27019W        W40433  12.550   5.373   5.821  0.0740  0.0711  0.1513
27020W        W40434  14.357   4.817  14.168  0.1080 -0.1793  0.1060
27021W        W40435  14.560  14.587   3.869 -0.4061  0.2994 -0.1822
27022W        W40436  14.096   8.819  12.984 -0.1290 -0.0136  0.0551
27023W        W40437  12.913  16.911   0.743  0.2827  0.0468 -0.0717
27024W        W40438   0.822   7.946   0.023  0.0231  0.2795  0.2604
27025W        W40439  15.254   1.446  10.163 -0.0559 -0.3854  0.0820
27026W        W40440  13.939   7.243  13.009 -0.1071 -0.0713  0.0791
27027W        W40441  11.885  18.140  16.557 -0.1411 -0.1325  0.1451
27028W        W40442   6.373  16.695  15.925 -0.1089 -0.1956 -0.1152
27029W        W40443  16.693   5.079   2.601  0.3879  0.0683 -0.1358
27030W        W40444   8.401  14.581  11.634 -0.0457 -0.0041  0.1089
27031W        W40445   1.141   7.590   5.033  0.2024  0.0524 -0.2833
27032W        W40446  17.185  15.450   2.557 -0.2391  0.1274  0.1097
27033W        W40447   2.291  18.206  13.809  0.0356  0.0692 -0.0165
27034W        W40448  14.442  11.903   6.223 -0.1878  0.0527 -0.0777
27035W        W40449   6.945  18.131  15.206 -0.0891 -0.2158 -0.0692
27036W        W40450   8.155   4.747  12.930 -0.0006  0.1581  0.0768
27037W        W40451  13.740  13.636  14.589 -0.1002  0.1872  0.0581
27038W        W40452  17.186   3.030  15.229  0.0215 -0.1028  0.1147
27039W        W40453  12.196  16.179  11.694 -0.0079  0.0690 -0.1247
27040W        W40454  14.785   2.798   4.009 -0.0868  0.1134 -0.2545
27041W        W40455   7.627   7.504  13.596  0.3235 -0.0286  0.0898
27042W        W40456  13.819   6.009  11.305  0.4225  0.2153 -0.1816
27043W        W40457   9.671  13.258   4.460  0.4977 -0.2477 -0.2284
27044W        W40458   3.106  17.006   1.978 -0.1710 -0.1642 -0.0091
27045W        W40459   2.027   3.307  15.690 -0.1415 -0.0480  0.2563
27046W        W40460   7.877   6.207   1.714  0.3246  0.0080  0.2590
27047W        W40461  15.252   5.131  12.136 -0.1436 -0.4503 -0.0192
27048W        W40462   0.606  15.406  13.898 -0.0321 -0.0186 -0.1160
27049W        W40463   2.026   0.420   3.394 -0.0361  0.2057 -0.2779
27050W        W40464   7.548  11.322   0.301  0.0235 -0.1458  0.1828
27051W        W40465   4.655   8.367  14.662 -0.2630  0.0961  0.0589
27052W        W40466   4.769   5.151   4.980 -0.1182 -0.1836  0.1377
27053W        W40467   9.853   2.849   0.164 -0.1862  0.0325 -0.0879
27054W        W40468   8.359   0.448  14.040 -0.0335  0.1491  0.2807
27055W        W40469  10.918   6.170   3.553  0.0459 -0.0274 -0.1829
27056W        W40470  11.728   9.701   4.296  0.1070  0.1696 -0.2083
27057W        W40471   7.027  15.582   2.910  0.2359  0.3313  0.0788
27058W        W40472  13.929  17.193  13.133  0.1188 -0.0322  0.1675
27059W        W40473   2.756  10.653  15.296  0.2911  0.0219 -0.0648
27060W        W40474   7.387  17.987   3.383  0.3987 -0.1091  0.1513
27061W        W40475   8.612  14.585  15.198  0.4125  0.1824  0.3075
27062W        W40476   0.296   2.049  13.024 -0.2297  0.1989  0.2677
27063W        W40477  18.080   8.044   4.593 -0.3910 -0.1235 -0.1880
27064W        W40478  14.200   9.959  11.997 -0.1521 -0.2943  0.0674
27065W        W40479  12.226  10.912  10.903 -0.0001 -0.0150 -0.0441
27066W        W40480  14.110   3.530   5.664  0.2081  0.0561  0.0016
27067W        W40481   3.753  11.943  14.301  0.1383  0.0887  0.0996
27068W        W40482  11.960   2.658   2.149  0.3170 -0.0940  0.2660
27069W        W40483   4.649   5.355  15.279 -0.0921 -0.0480 -0.3541
27070W        W40484  10.691  13.520   3.948  0.0625  0.0899  0.0212
27071W        W40485   1.266   7.871  11.600 -0.0812 -0.1748  0.0107
27072W        W40486  17.154  14.375  13.058  0.0990 -0.0137 -0.1415
27073W        W40487  17.586   6.754  12.835 -0.0030 -0.0395  0.1067
27074W        W40488  14.535  18.042  12.214  0.0951  0.1936 -0.1800
27075W        W40489   4.401  14.608   3.997  0.1312  0.0598  0.0232
27076W        W40490  14.689   7.060   0.618 -0.0005 -0.1996 -0.2526
27077W        W40491  10.708   9.633  10.594  0.2535  0.1090  0.0272
27078W        W40492   0.857   6.188   2.976  0.3006  0.2475  0.1589
27079W        W40493   4.067   5.441  13.569 -0.0234 -0.0067  0.0269
27080W        W40494  10.496   2.824  14.250  0.2607 -0.3369 -0.0137
27081W        W40495  18.261  13.179  11.035  0.2039 -0.1508  0.2390
27082W        W40496   7.758   9.039   1.822  0.0350  0.1666 -0.0387
27083W        W40497   6.347   8.248   4.901 -0.0157  0.0864 -0.1657
27084W        W40498   3.099  13.559   2.018  0.0241 -0.3185 -0.2522
27085W        W40499  16.776   0.733  11.840  0.0195  0.0729  0.0838
27086W        W40500   4.751  11.613   3.736 -0.3084  0.0090 -0.1777
27087W        W40501   2.156  16.891   3.361  0.0248  0.1631  0.2204
27088W        W40502  12.312   1.365  15.431 -0.0281 -0.1887  0.0091
27089W        W40503   8.475  12.389   2.428  0.2970 -0.1556 -0.0325
27090W        W40504  14.774   5.996   2.389 -0.1828  0.4641  0.1218
27091W        W40505  13.053  15.492  13.107 -0.0366 -0.3395  0.1983
27092W        W40506   2.189  16.608  14.050 -0.1768  0.1269  0.3112
27093W        W40507   9.741   6.408  12.029 -0.0345 -0.2470 -0.1475
27094W        W40508   8.547  13.434  13.387  0.1373 -0.2205  0.2066
27095W        W40509   5.701  12.292   0.530 -0.1586 -0.1773  0.1962
27096W        W40510   3.517  15.580  15.454  0.1345  0.1078  0.0215
27097W        W40511   3.782  11.432  12.824 -0.0267 -0.0233 -0.0284
27098W        W40512   6.607  11.269   0.387  0.1696 -0.1148 -0.1219
27099W        W40513   4.976   9.895  12.514 -0.0826 -0.1645  0.1318
27100W        W40514   3.276  13.149  13.345  0.0235 -0.1985  0.2748
27101W        W40515   7.505  17.644  11.747 -0.1982  0.1497 -0.0475
27102W        W40516   3.347   3.681   5.178 -0.0969 -0.1395  0.2285
27103W        W40517   0.614  11.278  14.892 -0.0657  0.0261  0.2772
27104W        W40518  15.953  10.643  16.306 -0.2894 -0.1108 -0.1948
27105W        W40519   0.508   3.461  11.275  0.2785 -0.2477 -0.2595
27106W        W40520  16.499  13.432   3.080  0.2718 -0.1083 -0.2718
27107W        W40521  14.368  14.455   5.064 -0.0463 -0.1672 -0.1446
27108W        W40522  16.544  11.324  16.087 -0.2504  0.1101 -0.0376
27109W        W40523   2.756  14.955   5.911 -0.1283  0.0311 -0.1555
27110W        W40524   5.312   0.821  14.248  0.0087  0.0045 -0.1780
27111W        W40525  12.238  10.370   4.706 -0.1149 -0.0439 -0.1707
27112W        W40526  16.565  17.501   5.309 -0.2362  0.0211  0.0394
27113W        W40527   9.553   8.921  12.632 -0.0792 -0.0339 -0.0179
27114W        W40528   8.428  16.811  12.516  0.3894  0.1309  0.0838
27115W        W40529   4.659  13.524  13.021  0.0280 -0.0189 -0.2886
27116W        W40530   7.654   6.584   4.467  0.0461  0.0646 -0.1371
27117W        W40531  10.393  16.902   0.816 -0.0692 -0.0852 -0.1143
27118W        W40532  12.187   7.098   3.533 -0.2162  0.1159  0.0482
27119W        W40533   3.765  10.807  11.959 -0.1518  0.3063 -0.2835
27120W        W40534   4.057   8.874   2.182 -0.0310 -0.1461  0.1937
27121W        W40535  15.472   8.430  14.513  0.1270  0.0556 -0.0855
27122W        W40536   8.370   2.391  14.336  0.0517  0.0380 -0.0417
27123W        W40537   2.236  10.649  11.477 -0.1757  0.0891  0.1688
27124W        W40538  11.012  12.392   4.703  0.2604  0.2897  0.1514
27125W        W40539  13.982   9.855   0.060  0.1371  0.0432  0.3372
27126W        W40540  15.050  10.046   2.299 -0.1302 -0.0453 -0.1216
27127W        W40541   8.170  15.940  15.735 -0.0662 -0.3000 -0.1338
27128W        W40542   2.544  14.114   2.598  0.3855 -0.2784 -0.0395
27129W        W40543   1.471   1.017   1.944  0.1233 -0.1008 -0.1206
27130W        W40544   5.261  17.764  13.868 -0.0562 -0.1213 -0.4879
27131W        W40545   1.228   6.317   5.450 -0.1352  0.2639  0.1350
27132W        W40546   9.410  10.490  10.638  0.1014  0.4953  0.0889
27133W        W40547  17.258   4.403  11.488  0.4165  0.3035  0.1886
27134W        W40548   2.480  10.432   4.786 -0.2660 -0.1422  0.0941
27135W        W40549   7.680   9.066  15.400  0.0672 -0.1482  0.1156
27136W        W40550   9.926  15.333   4.552 -0.1109  0.3120 -0.1681
27137W        W40551   5.196  12.389  15.708 -0.0370 -0.0122 -0.1353
27138W        W40552  17.857   5.564  12.735  0.0472  0.4501  0.1113
27139W        W40553  16.535  12.663   1.993  0.0921  0.2074 -0.1606
27140W        W40554  17.271   0.745   0.175  0.1080 -0.0534  0.0703
27141W        W40555   6.969   6.430  11.230  0.1200  0.5150  0.0576
27142W        W40556  17.287   3.044   2.295  0.0697  0.0408  0.1444
27143W        W40557  10.073   6.364   5.745  0.0357 -0.2467 -0.2279
27144W        W40558   6.839   7.400   2.043  0.1564 -0.0184 -0.0917
27145W        W40559   5.820  14.696   0.452  0.1182  0.4543 -0.0142
27146W        W40560  11.685  14.224  12.166 -0.2178  0.0375 -0.0497
27147W        W40561  13.288   1.836  12.611 -0.3862 -0.2062 -0.3138
27148W        W40562   3.125  10.395   5.448 -0.3016  0.0313  0.1024
27149W        W40563  15.684  16.040  16.147 -0.0928 -0.2054  0.2009
27150W        W40564  13.686   4.174   1.284 -0.0619 -0.0975  0.2219
27151W        W40565   8.051   0.501  15.899 -0.0372  0.1698  0.0867
27152W        W40566   5.253   5.536  10.069  0.0733 -0.2411  0.1105
27153W        W40567   5.896  14.930  15.126  0.0818  0.0013  0.0881
27154W        W40568   2.063   6.767   4.788  0.0396 -0.2669 -0.3078
27155W        W40569   2.731  12.256  14.732  0.1573 -0.1694  0.2161
27156W        W40570   6.836   8.506   2.109 -0.0912 -0.0001  0.2128
27157W        W40571   2.877   4.726   0.966  0.1667  0.0465 -0.1059
27158W        W40572   4.340   4.307   4.311  0.1445  0.1118  0.2149
27159W        W40573  14.943  14.393   3.624 -0.6164 -0.2569  0.1369
27160W        W40574  16.575   7.367   5.218 -0.0897 -0.0896 -0.1939
27161W        W40575  17.829  14.340  11.662  0.0064 -0.0803 -0.3464
27162W        W40576   7.937  16.230   1.101 -0.2887 -0.0992  0.0878
27163W        W40577   0.063   9.617   5.803  0.1952  0.0582 -0.1454
27164W        W40578   9.558  10.602   1.750  0.1188  0.0694  0.1425
27165W        W40579  18.048  15.710   0.241 -0.1443 -0.2322 -0.2028
27166W        W40580  10.308  12.038   4.214  0.0482  0.0566 -0.0957
27167W        W40581  10.721   7.833   5.025  0.1482 -0.1858 -0.0564
27168W        W40582  16.932   7.154  10.895 -0.2066  0.4860  0.1679
27169W        W40583  16.653   3.839  13.535 -0.1751  0.1151  0.0862
27170W        W40584   8.340   9.565  15.734 -0.2910 -0.0457 -0.0773
27171W        W40585   1.347   7.637  13.472  0.1472 -0.1644 -0.2530
27172W        W40586  10.919   9.198   0.624 -0.0765  0.0495 -0.0403
27173W        W40587   7.140   3.639   4.138  0.1665  0.0104 -0.0179
27174W        W40588   6.104   5.082  15.431 -0.0310 -0.0001 -0.0279
27175W        W40589   1.797   0.876  16.443 -0.1121  0.0858  0.2145
27176W        W40590  15.128   4.804  13.434 -0.3910 -0.0383  0.0899
27177W        W40591  10.010  16.184   5.709  0.0743  0.0893 -0.0973
27178W        W40592   7.142  10.990   5.228  0.3006 -0.0701  0.2660
27179W        W40593   9.007   4.573  10.538 -0.0286  0.1151 -0.0001
27180W        W40594  16.755   8.630  10.785  0.1511 -0.1283  0.0902
27181W        W40595   6.888  11.088  15.997  0.1986 -0.4152  0.1971
27182W        W40596  17.975   0.294   3.469  0.3880 -0.0312 -0.1158
27183W        W40597  14.938  13.980  12.786  0.0144 -0.1616 -0.1974
27184W        W40598  10.570   7.766   2.185  0.2071  0.0687 -0.3522
27185W        W40599  13.335   4.696  10.698 -0.1348  0.1393  0.0686
27186W        W40600   7.177  14.511   5.365 -0.1752  0.2427 -0.1603
27187W        W40601  17.793   2.033   2.552 -0.2573 -0.0455 -0.0429
27188W        W40602  13.028  12.434   2.522  0.0295  0.1410 -0.3204
27189W        W40603  14.702  11.927  11.245 -0.1928 -0.3563  0.0440
27190W        W40604  17.944  11.524  14.022 -0.2278  0.2142  0.2508
27191W        W40605   6.832   4.013   0.230 -0.5451 -0.3522 -0.1608
27192W        W40606   8.257   3.632  16.249 -0.3721 -0.1746  0.2492
27193W        W40607   7.514  17.918  13.276  0.0541 -0.3452 -0.1152
27194W        W40608   9.851  13.855   0.364  0.1188 -0.2436  0.2329
27195W        W40609  15.878   2.638  15.018  0.2269  0.0435  0.2698
27196W        W40610  13.234   8.599   4.940  0.1479  0.2608 -0.2950
27197W        W40611   5.474  13.123   6.530  0.1504 -0.0775 -0.2251
27198W        W40612   7.108   3.624  12.822 -0.2206  0.0554  0.0661
27199W        W40613   0.628  15.887   0.498  0.0457 -0.1786  0.0896
27200W        W40614   4.885   4.384  11.384 -0.0380  0.1809  0.0706
27201W        W40615  14.624   2.251   0.148  0.2784 -0.3674  0.1275
27202W        W40616  14.353  17.890   3.212  0.0726 -0.0846 -0.4108
27203W        W40617   6.423   1.501  12.886 -0.0426 -0.1987 -0.0274
27204W        W40618  12.580   1.384  11.031  0.1502  0.0449  0.0824
27205W        W40619  10.459   0.867   0.555  0.2498 -0.1458  0.0184
27206W        W40620   1.218   8.442  13.604  0.4226  0.0125  0.0233
27207W        W40621  10.132   7.692   5.443 -0.1107 -0.0892  0.0838
27208W        W40622   2.729   2.053  13.212 -0.3097 -0.0298  0.1653
27209W        W40623  15.579   5.306   0.682  0.3901 -0.0686 -0.1117
27210W        W40624   9.232  13.743   3.027  0.2324  0.1443 -0.2309
27211W        W40625  11.708  13.873   4.477 -0.0818 -0.0743 -0.0858
27212W        W40626   3.377   3.250  11.849 -0.0661  0.0344  0.2122
27213W        W40627  15.417  13.981  15.310  0.0509  0.3331  0.2463
27214W        W40628   3.985   2.410   3.234 -0.0306  0.1592  0.0061
27215W        W40629   3.006   9.148   4.466  0.1364  0.1735 -0.0040
27216W        W40630  10.840  10.703  13.542  0.0356  0.1109 -0.0307
27217W        W40631  12.643  14.073  14.209 -0.1397  0.0156  0.1613
27218W        W40632   3.612   5.810  14.427 -0.3491  0.0890 -0.1025
27219W        W40633  16.363  16.043   4.852 -0.0771 -0.2603  0.0203
27220W        W40634   8.088   0.299   4.505 -0.0700 -0.1536  0.2888
27221W        W40635   6.974   8.944  15.255 -0.3478  0.0425 -0.1480
27222W        W40636  15.474   0.096  15.194 -0.0326  0.0097 -0.0059
27223W        W40637   2.760  12.446   3.917  0.0807  0.2048 -0.1656
27224W        W40638   1.137   9.978  15.971 -0.0614 -0.1362  0.0301
27225W        W40639  15.978  12.348  12.351 -0.0227  0.0096 -0.0729
27226W        W40640   5.387   9.829  15.386 -0.0307  0.0232 -0.0421
27227W        W40641  13.868  17.456  15.798 -0.0959 -0.3524 -0.2190
27228W        W40642   7.246   7.562   2.944  0.0329  0.0886 -0.1454
27229W        W40643   8.879   3.366   1.147 -0.0418  0.4857  0.4941
27230W        W40644  12.720  13.895  16.424  0.2584 -0.0905 -0.1913
27231W        W40645   2.073   5.665   2.285 -0.0904 -0.1515 -0.0548
27232W        W40646  12.738   5.201  13.912 -0.0128 -0.0557 -0.2479
27233W        W40647  14.445  13.401   0.380  0.1058  0.3142  0.1039
27234W        W40648  11.587   8.478  13.344 -0.1798 -0.0587 -0.1889
27235W        W40649   9.508  10.664  14.809 -0.1850  0.0129  0.0132
27236W        W40650   4.474   8.728   2.464  0.3686  0.3509 -0.1167
27237W        W40651   2.876  10.394  16.296  0.3298  0.0100 -0.1518
27238W        W40652  13.211   3.009   0.425 -0.0321 -0.0757  0.3937
27239W        W40653  17.808  10.936   4.822  0.3882  0.0399 -0.1285
27240W        W40654  16.591   1.343  16.540  0.2330  0.2094 -0.1043
27241W        W40655   8.542  17.850  12.559  0.0563 -0.1107  0.1933
27242W        W40656  17.514  10.424  12.544  0.2517 -0.0757 -0.1677
27243W        W40657  14.377  15.352  15.541 -0.0892  0.1937 -0.0734
27244W        W40658   7.126  12.057  10.985  0.1943 -0.1252 -0.0979
27245W        W40659  13.802  11.886  14.668  0.2966  0.2506 -0.2217
27246W        W40660   4.919  12.800  11.448  0.1055  0.0161 -0.1531
27247W        W40661  10.325   0.746   1.055  0.3322 -0.1006  0.1066
27248W        W40662   1.942   3.780   3.622  0.1410  0.1131  0.1939
27249W        W40663  16.834  11.314  14.317 -0.3028 -0.3578  0.1213
27250W        W40664  14.073   4.651   2.659  0.4860  0.2500  0.0569
27251W        W40665  11.332  17.129  15.429  0.0382  0.1977  0.0440
27252W        W40666   7.662   6.555   1.415 -0.2273 -0.2615  0.0805
27253W        W40667   1.890  14.392   3.200 -0.3395 -0.2064  0.0909
27254W        W40668   9.326  14.300   5.350 -0.0545  0.2701 -0.0346
27255W        W40669  13.565  17.468  15.424  0.0273  0.0668  0.2603
27256W        W40670   7.074  16.472  12.131 -0.0022  0.2228  0.0835
27257W        W40671  13.214  12.653  14.527  0.1985 -0.0054  0.1063
27258W        W40672   4.865   8.338  10.883 -0.1295  0.2383 -0.0299
27259W        W40673   7.911   3.710  15.386  0.0808  0.1594 -0.2976
27260W        W40674  11.984  16.165  16.155 -0.0767  0.1807  0.0838
27261W        W40675  17.236   7.555   0.888 -0.1424 -0.1553 -0.2259
27262W        W40676   1.095   2.247   3.988 -0.0335 -0.0598  0.0116
27263W        W40677   6.398  12.548  14.624 -0.0079  0.0493 -0.0062
27264W        W40678  10.591  17.533   5.392  0.0041  0.0913  0.1715
27265W        W40679   9.822   8.114  11.103  0.2589 -0.1011 -0.1067
27266W        W40680   3.993  15.596  15.237 -0.1976 -0.0561 -0.1374
27267W        W40681   8.615   8.480   2.008  0.1733 -0.1043 -0.0116
27268W        W40682   4.703  11.751  12.568 -0.0013 -0.2370 -0.0163
27269W        W40683   9.389  16.121   1.207 -0.2239 -0.0067  0.2940
27270W        W40684  18.029  12.497  13.658 -0.0546  0.1146 -0.2785
27271W        W40685   4.837   7.857  15.425 -0.0707  0.1706  0.0931
27272W        W40686   0.952  16.297   4.315  0.0329 -0.0176  0.0245
27273W        W40687   7.195  13.248  12.080 -0.0971 -0.1133  0.0501
27274W        W40688   9.422   7.314   3.579 -0.0213 -0.0661  0.0690
27275W        W40689  15.965  12.347   0.836 -0.2579  0.2143 -0.1451
27276W        W40690   7.649  16.441   2.962  0.0040  0.1392  0.1046
27277W        W40691   1.521  15.374  10.982 -0.1604  0.1146  0.1855
27278W        W40692  14.137  16.354   0.932 -0.1387 -0.1213 -0.1938
27279W        W40693   4.941   3.523   0.803  0.0891  0.1682  0.0252
27280W        W40694   4.997   1.483   1.421 -0.2437  0.1108  0.0134
27281W        W40695   3.128  16.370  14.011 -0.2607  0.2625  0.0362
27282W        W40696  15.297  13.781   1.165 -0.1050  0.1191  0.0502
27283W        W40697   1.088   1.901   4.391 -0.0079  0.2018  0.1226
27284W        W40698   6.060  16.066   0.608  0.2504  0.2898 -0.0717
27285W        W40699   3.556  16.445   0.696  0.0346  0.2801 -0.1098
27286W        W40700  13.887  12.915   1.730 -0.0840  0.0576 -0.4036
27287W        W40701  15.650   8.359  15.794 -0.1868  0.1897  0.2037
27288W        W40702   7.636   9.016  16.103  0.0153  0.0747  0.0231
27289W        W40703  13.887   8.348  14.710 -0.0218  0.1711 -0.2553
27290W        W40704  15.494  12.656   5.131  0.1538 -0.0228  0.0834
27291W        W40705  15.843  15.282  15.315  0.3412 -0.0037 -0.2074
27292W        W40706   5.587  16.018   4.428 -0.0024 -0.2176 -0.0410
27293W        W40707   2.038   0.590   4.322 -0.4346  0.2424 -0.2737
27294W        W40708   2.900  13.932   3.580 -0.1764  0.3227 -0.1868
27295W        W40709   8.743   0.343   3.654  0.2590 -0.1469 -0.2638
27296W        W40710  10.241  13.099  10.409  0.0663 -0.0901 -0.1919
27297W        W40711   1.275   3.626  13.282  0.0135  0.0089  0.1745
27298W        W40712  14.116   2.549  14.656 -0.1774 -0.0205 -0.2674
27299W        W40713  14.946   5.532   2.465  0.2569 -0.1705 -0.0812
27300W        W40714   0.245   0.585   4.153 -0.3712  0.1946 -0.1268
27301W        W40715   7.163  14.915   1.425 -0.2071 -0.2637 -0.7587
27302W        W40716   1.820  15.160   5.976  0.2033  0.3042  0.1253
27303W        W40717  17.053  16.058   2.780  0.0702  0.1729 -0.1447
27304W        W40718   0.294   4.193   9.817 -0.1543 -0.1850 -0.3721
27305W        W40719   7.211  15.247  12.797  0.1488 -0.2172 -0.0481
27306W        W40720   3.431   3.971  15.634  0.0030 -0.2552 -0.2039
27307W        W40721   1.806  12.590   4.886 -0.2515 -0.1662  0.2638
27308W        W40722   5.929  14.357  16.414 -0.0780 -0.2523  0.2621
27309W        W40723   4.354   6.047  12.423 -0.3180  0.1107  0.3044
27310W        W40724   6.574   2.035   6.046  0.0148  0.1113 -0.2465
27311W        W40725   1.119  12.682   2.844  0.1485 -0.0697  0.0154
27312W        W40726   1.625  16.447  14.949  0.0437  0.0778 -0.2303
27313W        W40727  10.014   7.135   1.655  0.0929 -0.0069 -0.1070
27314W        W40728  16.258  16.911  13.576  0.1512 -0.0296 -0.1812
27315W        W40729  10.874   7.421   1.579  0.0985 -0.0505 -0.0535
27316W        W40730  17.045   7.614  10.157 -0.2190 -0.4602  0.2847
27317W        W40731  16.803  10.879   3.324  0.0612 -0.0587 -0.1718
27318W        W40732  16.831   9.794  14.404 -0.3009 -0.2294  0.2578
27319W        W40733  16.786  11.265  13.383  0.2875 -0.1731 -0.0373
27320W        W40734   9.429   2.155   4.803  0.2230  0.2286  0.2170
27321W        W40735  13.103  10.333  12.530  0.1393 -0.1007 -0.2546
27322W        W40736   7.623  15.727   0.371 -0.0021 -0.0681  0.0318
27323W        W40737   0.293   0.176  12.553 -0.0634  0.1633  0.1897
27324W        W40738  12.943   7.849   3.351  0.2419 -0.0961  0.4386
27325W        W40739   7.666  18.115  12.810  0.0580 -0.2165 -0.1295
27326W        W40740  10.624   8.388  12.076 -0.0276  0.2012  0.1087
27327W        W40741   5.498   4.044  13.166 -0.3168 -0.1560 -0.1746
27328W        W40742  10.905   1.232   3.039 -0.0259 -0.0885  0.2069
27329W        W40743  10.301   9.788  13.718  0.1514  0.0725 -0.1600
27330W        W40744   8.113   9.251   4.771  0.1281 -0.3905 -0.2256
27331W        W40745  12.431   9.618   5.357 -0.2567 -0.1280  0.0880
27332W        W40746   0.509  12.355  11.934  0.2215 -0.5333  0.1565
27333W        W40747   8.884  10.969   3.617 -0.1134  0.1898 -0.1272
27334W        W40748  12.822   3.946  12.412  0.1450  0.0923 -0.0733
27335W        W40749  14.760  17.736   1.992 -0.0213  0.3487 -0.1392
27336W        W40750  17.987   0.826   3.497  0.0234  0.0100  0.0226
27337W        W40751  14.887  11.191  14.821  0.1380  0.0688  0.3735
27338W        W40752   5.548   9.815  10.855  0.2270  0.0923  0.0472
27339W        W40753   9.036  13.708  13.354  0.2597 -0.0391  0.2137
27340W        W40754   7.972   5.946  15.162  0.1136 -0.1041  0.1209
27341W        W40755  14.432   6.485   4.112 -0.2325  0.0219 -0.0854
27342W        W40756   3.264   6.346  11.663  0.0355 -0.2334  0.0004
27343W        W40757  14.266   8.154   2.009  0.1504  0.0057 -0.1536
27344W        W40758  13.048  13.202  15.222  0.0195  0.1514 -0.0014
27345W        W40759   6.692  14.938   1.551  0.2607  0.2089 -0.2007
27346W        W40760  13.033  13.747  13.590  0.1171 -0.1405  0.1790
27347W        W40761   4.300   9.352   2.043 -0.0932 -0.1541 -0.0567
27348W        W40762  16.378   6.843  14.358 -0.1645 -0.0236 -0.1467
27349W        W40763  15.633  13.155   3.615 -0.0619 -0.1779  0.1765
27350W        W40764  13.063  16.100  12.815  0.0809 -0.1983 -0.3609
27351W        W40765   9.708  18.104   5.655 -0.2955 -0.0872  0.0803
27352W        W40766   9.045  16.268  11.428 -0.1490  0.1485  0.1035
27353W        W40767  13.819  11.425   0.615 -0.1686  0.1039 -0.0432
27354W        W40768  16.189   7.019  11.617 -0.1408  0.1238 -0.2620
27355W        W40769   5.939  13.863   4.715 -0.0561 -0.0511  0.0340
27356W        W40770   9.391  14.057   4.632  0.1478  0.2047  0.5034
27357W        W40771  14.759   3.295  15.018  0.1061  0.1519 -0.0120
27358W        W40772  15.308   0.585  15.171 -0.3175 -0.2404  0.2115
27359W        W40773  11.266   0.391  12.103 -0.0174  0.3237 -0.2444
27360W        W40774   2.024  16.338   3.394  0.1688 -0.2741 -0.2833
27361W        W40775   7.848   4.390   2.686 -0.1846  0.1265 -0.1353
27362W        W40776   5.513  10.182   3.060  0.1528 -0.0633 -0.0948
27363W        W40777   6.269   5.437  16.000 -0.3978  0.1403  0.2133
27364W        W40778  12.891   9.438  16.311 -0.2702  0.0324 -0.0593
27365W        W40779   1.872   2.379   0.193 -0.1320 -0.3881  0.3966
27366W        W40780  15.147  17.591   1.532  0.2707  0.1242 -0.1472
27367W        W40781   5.949   4.538   6.086  0.0929  0.2648  0.0451
27368W        W40782  15.291  11.219   6.186  0.0434  0.1198  0.1750
27369W        W40783  16.173  17.179   9.958 -0.2467  0.1640 -0.2013
27370W        W40784  14.569  12.274  12.513  0.0172  0.0227 -0.0323
27371W        W40785  12.184   6.796  13.152  0.1724  0.1659 -0.0279
27372W        W40786   1.036   8.677  11.019 -0.0280  0.1857 -0.0647
27373W        W40787   6.931  14.179  12.753  0.2349 -0.0895 -0.3809
27374W        W40788   5.153   1.183   9.976 -0.1294  0.0962 -0.1942
27375W        W40789   6.269   0.640   3.099  0.3416  0.1862 -0.0610
27376W        W40790  13.494  13.070  14.371 -0.0171 -0.2171  0.2583
27377W        W40791  13.444  11.781   5.057  0.0309 -0.2102  0.0260
27378W        W40792  17.924  18.171  13.683 -0.1032 -0.0123 -0.1018
27379W        W40793   5.572   6.051  15.117  0.2410  0.2144 -0.4445
27380W        W40794   8.939  13.136   3.813 -0.3490 -0.0149  0.2679
27381W        W40795  17.300  11.934   4.039  0.0694 -0.2102  0.0113
27382W        W40796  17.778   0.207   2.315  0.2651  0.0816 -0.4041
27383W        W40797  17.511  10.659   0.285 -0.1519 -0.1177 -0.0421
27384W        W40798   9.514  10.933   3.005  0.2760 -0.1637  0.3943
27385W        W40799  12.512  16.193  16.427  0.1495 -0.1015  0.0735
27386W        W40800   3.310   1.889   3.402 -0.0600 -0.0546 -0.2025
27387W        W40801  14.772   7.540   3.098  0.1223 -0.2742 -0.1907
27388W        W40802  15.205   6.384  10.896 -0.0127  0.1003  0.0308
27389W        W40803  16.384   9.648   4.970  0.0952 -0.0246 -0.4765
27390W        W40804  14.159  16.200   6.014  0.1204  0.2827  0.1601
27391W        W40805  15.159  14.628  12.968 -0.2644  0.1967  0.0261
27392W        W40806  15.346  16.794   0.351 -0.0527  0.4708  0.1153
27393W        W40807   1.122   6.491  14.055 -0.4764  0.3291  0.4411
27394W        W40808  14.921  16.200  16.202  0.0358 -0.0257  0.1859
27395W        W40809   2.097   9.300   2.243  0.0471  0.0040  0.0699
27396W        W40810   1.098  15.099   0.145 -0.0047  0.1124  0.2238
27397W        W40811   3.524   4.367   1.954 -0.0132 -0.0223 -0.1661
27398W        W40812  16.867  14.804   4.215 -0.0932 -0.1079  0.0292
27399W        W40813   7.408   7.021  12.888  0.3400  0.1306  0.1093
27400W        W40814   6.677  13.343   4.575  0.0427 -0.0850 -0.3277
27401W        W40815   6.167  12.236  15.922 -0.0976  0.1264  0.2171
27402W        W40816  10.685   1.034   4.735 -0.4488  0.2280 -0.1535
27403W        W40817   2.865  16.766   4.279 -0.0859 -0.1140 -0.0482
27404W        W40818  12.064   8.426   5.011 -0.2595  0.1659 -0.1925
27405W        W40819   8.877  15.867  11.709  0.0011 -0.1428 -0.0899
27406W        W40820   9.492  10.982   2.030  0.1478  0.0553  0.1404
27407W        W40821   8.568   1.459   0.745  0.2745  0.1452 -0.2360
27408W        W40822   1.113  13.356  15.593  0.2688  0.0391 -0.1382
27409W        W40823   3.315  17.545  11.235  0.1066  0.0377 -0.1999
27410W        W40824   9.657  13.540   2.980 -0.0840  0.5223 -0.0601
27411W        W40825   8.703   6.439   4.212 -0.0997 -0.0659 -0.0824
27412W        W40826  14.400   9.191  12.524  0.2551 -0.0108  0.0689
27413W        W40827  18.074   5.912  11.860 -0.0718  0.0989 -0.2206
27414W        W40828  16.787  11.529  11.060 -0.1844  0.1086  0.0258
27415W        W40829  10.474   8.778  12.513 -0.1101  0.1797 -0.1558
27416W        W40830  16.215  10.506   2.962  0.0276 -0.1213 -0.0352
27417W        W40831   5.719   7.036  13.587 -0.1985  0.2456 -0.4295
27418W        W40832   0.776  15.323  15.687  0.0127 -0.0514 -0.0719
27419W        W40833  13.436  11.887   1.038 -0.0016  0.1564 -0.0825
27420W        W40834  11.699   7.198   3.942  0.1435 -0.0116  0.3211
27421W        W40835   9.251   7.335  13.951  0.1478 -0.1349  0.1867
27422W        W40836   8.990  17.220   2.349 -0.1253 -0.0616 -0.0412
27423W        W40837   8.397  11.996   0.234 -0.2287  0.0911  0.0295
27424W        W40838  15.630  15.884  11.385  0.1198 -0.1730 -0.1117
27425W        W40839  14.209   8.835   1.901 -0.1789  0.1360  0.0625
27426W        W40840  15.092   7.482  14.536  0.0882 -0.0106  0.3583
27427W        W40841   7.918  10.977   0.220  0.0833  0.2554  0.0386
27428W        W40842  14.452   8.236  12.988  0.0664 -0.0001  0.4386
27429W        W40843  12.208   6.596   0.539 -0.2732 -0.1140 -0.0637
27430W        W40844   7.214   7.783   3.419 -0.1069  0.2259  0.3293
27431W        W40845  12.716  10.095  11.623 -0.0144 -0.1683 -0.1698
27432W        W40846   2.808   2.587   0.488  0.0277  0.0497  0.2870
27433W        W40847  12.724  17.009   4.617  0.1913  0.1809 -0.0242
27434W        W40848   5.708  11.404  16.527 -0.2594  0.0381  0.1229
27435W        W40849   0.314   7.124  13.461  0.1215 -0.2108  0.0263
27436W        W40850   9.309  13.093  15.852 -0.0265 -0.0189  0.3212
27437W        W40851   4.363  10.663  15.963  0.1339 -0.1423 -0.0992
27438W        W40852  14.856  16.816  13.873 -0.1587 -0.0396  0.0003
27439W        W40853   6.286   9.399   2.887  0.1946  0.3773 -0.0825
27440W        W40854   8.957   2.240  10.499 -0.1914 -0.0236 -0.1567
27441W        W40855  12.151  15.445  15.572 -0.0280  0.3838  0.0174
27442W        W40856   1.630   4.624  13.107  0.3186  0.0060 -0.1858
27443W        W40857   0.223  18.226   2.142  0.2566  0.1798 -0.2705
27444W        W40858   1.919  12.760  13.623 -0.1447 -0.1707 -0.3240
27445W        W40859   1.643   9.546   5.352  0.2087 -0.1949  0.1581
27446W        W40860   6.206  15.207  15.483 -0.2185  0.2350  0.2091
27447W        W40861  14.981   9.239   4.622 -0.1912  0.0143  0.0740
27448W        W40862   1.050   2.068  12.495 -0.1501  0.2698  0.0488
27449W        W40863   4.405   2.025   4.487  0.2735  0.1266  0.1655
27450W        W40864  14.245   5.836  16.099  0.1042  0.0269  0.1949
27451W        W40865   6.113   2.042   4.899  0.1139  0.1780 -0.1121
27452W        W40866  14.082   3.934   2.064 -0.0621  0.4328 -0.1479
27453W        W40867   8.109   2.772   0.068  0.0227 -0.0962 -0.0666
27454W        W40868   2.285   5.186   3.360  0.2964 -0.1303  0.0785
27455W        W40869   2.046  15.982   1.804  0.4450  0.2625  0.3403
27456W        W40870  12.154   6.149   2.677  0.1193 -0.2175 -0.1310
27457W        W40871  17.339  16.067  14.493 -0.0806  0.0648  0.0605
27458W        W40872   3.152   9.509   1.053  0.1198  0.1348  0.1663
27459W        W40873   9.625  16.617   0.414  0.0957 -0.0089  0.1106
27460W        W40874   1.707   0.937  14.786 -0.0146 -0.0137  0.1846
27461W        W40875   7.667  15.568  15.020  0.2971  0.2371  0.0669
27462W        W40876   7.582  13.305  11.704 -0.1296  0.1510  0.1351
27463W        W40877   4.823  16.008  11.892 -0.2325 -0.2564  0.0825
27464W        W40878   0.003  10.621  11.854  0.0282 -0.0387  0.3338
27465W        W40879  16.532   2.842  14.664  0.0348  0.0925 -0.1504
27466W        W40880   1.494  17.949   2.722 -0.0737 -0.0552 -0.3276
27467W        W40881  14.546   1.047  15.180 -0.1277 -0.0693  0.2696
27468W        W40882   5.764   3.229  13.405  0.2197  0.6592  0.0010
27469W        W40883  13.537  14.987  14.928  0.0304  0.2390  0.0651
27470W        W40884   5.921  10.860   5.968  0.0259 -0.0684  0.3931
27471W        W40885  12.310  11.406  15.582  0.1552  0.3727 -0.0284
27472W        W40886  11.095  16.177  14.810  0.0283 -0.3322 -0.1808
27473W        W40887   2.817   9.160  11.992  0.1721 -0.0373 -0.2111
27474W        W40888   5.896  16.986  15.089  0.1071  0.0254 -0.1803
27475W        W40889  16.000  10.217  12.690 -0.0080 -0.2868  0.1454
27476W        W40890   2.339   6.999  12.331  0.1729 -0.1433 -0.0047
27477W        W40891   6.808  15.269   5.357 -0.0511 -0.1571 -0.1924
27478W        W40892  11.301  15.159   3.273  0.0512 -0.1322 -0.0311
27479W        W40893  10.396   5.699  15.248  0.0607 -0.1776  0.0461
27480W        W40894  12.201   7.260   2.505 -0.1610 -0.0988  0.0425
27481W        W40895   6.398  11.626  12.378 -0.0023 -0.0391 -0.1315
27482W        W40896  14.687   2.929  11.806 -0.0757  0.2372 -0.2999
27483W        W40897   1.467  14.302   5.112 -0.2311 -0.1290  0.1211
27484W        W40898   5.493  12.659  13.070  0.0161 -0.2816 -0.0808
27485W        W40899  13.073  18.284   5.298  0.4059  0.2298  0.1951
27486W        W40900   8.149   1.124  11.155 -0.0895 -0.0389  0.1450
27487W        W40901   8.876   4.516   2.585 -0.1053  0.1502 -0.1838
27488W        W40902   0.979   6.224   4.003 -0.0107 -0.0740  0.0112
27489W        W40903  16.964   7.212  11.777 -0.1490  0.0633 -0.1589
27490W        W40904   2.234  10.870  14.514 -0.0995  0.1782  0.3185
27491W        W40905  14.286  13.117  14.652 -0.0620 -0.0827 -0.2152
27492W        W40906  13.944  13.284  14.276  0.4820 -0.1887  0.1451
27493W        W40907   3.701   6.393   1.601 -0.0520 -0.2923  0.0387
27494W        W40908   9.684  10.454  13.492 -0.0117  0.2310 -0.0612
27495W        W40909   4.239   0.755   5.029 -0.0069 -0.2056  0.0711
27496W        W40910   7.965   4.822   2.928 -0.0595 -0.1739 -0.1084
27497W        W40911  15.918   2.122   1.636  0.3897  0.2114 -0.1242
27498W        W40912   8.739  17.355  15.119 -0.0923 -0.1500 -0.0009
27499W        W40913   4.792   3.145  14.544  0.0146 -0.3541 -0.0315
27500W        W40914  15.323   8.991   0.367  0.0735  0.1431  0.2768
27501W        W40915   6.011   1.911   1.622  0.2692 -0.1320  0.1774
27502W        W40916   4.300  10.726   1.156 -0.1625 -0.0456  0.4915
27503W        W40917   8.272  17.299  12.563  0.1509 -0.1165 -0.1930
27504W        W40918   9.177  10.496  11.326  0.0922 -0.2177 -0.0454
27505W        W40919  12.795  15.005   3.481  0.3120  0.4302  0.1160
27506W        W40920   4.983   8.747  13.620 -0.3085  0.0459 -0.1774
27507W        W40921   8.444   9.601   5.034  0.0314 -0.2180  0.0875
27508W        W40922   4.109   1.532  14.621 -0.0864  0.2319  0.0564
27509W        W40923  14.031  14.340  13.643  0.3750  0.2848 -0.0303
27510W        W40924   6.273  14.841  11.260 -0.0323 -0.0242 -0.0782
27511W        W40925   3.181   8.321   4.289 -0.0819 -0.1354  0.1928
27512W        W40926  11.812   1.597  13.936 -0.0293  0.1471 -0.0740
27513W        W40927   6.386   8.605  10.781 -0.0799 -0.0668  0.1086
27514W        W40928  14.012  11.405   2.217  0.0545  0.2193 -0.0314
27515W        W40929   6.840  12.498  14.904  0.2456 -0.1795 -0.2767
27516W        W40930   8.957   8.974  12.767 -0.3182 -0.4349 -0.0898
27517W        W40931  15.217   5.008   1.360  0.1971 -0.3209 -0.1921
27518W        W40932   8.300   5.509   2.744 -0.0816 -0.2034  0.1358
27519W        W40933   7.685   8.469   1.737 -0.0625  0.2712 -0.0344
27520W        W40934  15.683   0.870  14.849  0.1618  0.1154 -0.0487
27521W        W40935  17.065  16.452  15.377 -0.1410  0.0444  0.4678
27522W        W40936  11.976  13.504   2.009  0.0333  0.3164  0.1437
27523W        W40937  17.395   2.311  12.553 -0.0129  0.0587  0.3072
27524W        W40938   8.052   5.458  13.586 -0.0899 -0.0789 -0.1851
27525W        W40939   7.679  15.076  15.228 -0.0738  0.1531  0.0637
27526W        W40940   0.073   5.579  15.887  0.0282  0.3444 -0.2879
27527W        W40941   8.153   9.558   1.300  0.1221 -0.1299  0.0722
27528W        W40942   5.440   6.257  11.588  0.0615 -0.0526  0.0169
27529W        W40943   3.006  14.405  11.668 -0.4347  0.0556  0.1065
27530W        W40944  16.132  14.794  13.877  0.1434  0.0743 -0.1943
27531W        W40945   8.217  16.423   4.352  0.1995  0.1857 -0.0276
27532W        W40946  10.857   8.870   4.939 -0.0970  0.1334 -0.1779
27533W        W40947   2.374   1.186   5.999 -0.1419  0.1563 -0.1818
27534W        W40948   4.842   5.494   4.173  0.2267  0.0355 -0.2692
27535W        W40949   2.984   9.210  15.507  0.3857  0.3350 -0.0050
27536W        W40950  13.343   8.265  15.956 -0.0973  0.0407 -0.1123
27537W        W40951   6.279  10.236  15.228 -0.0147  0.2209  0.0320
27538W        W40952  10.650  12.892  15.449  0.3129 -0.0459 -0.2047
27539W        W40953  10.774  13.092   1.309  0.0807  0.1388  0.0148
27540W        W40954   8.499   1.621   1.952  0.5470 -0.0845  0.1359
27541W        W40955   3.588  16.780   2.903 -0.2743  0.3502  0.1859
27542W        W40956  16.905  11.761   3.262 -0.2035 -0.0835  0.1513
27543W        W40957   2.256   4.500  11.514  0.1650  0.3082 -0.1297
27544W        W40958   7.586   0.796  14.155 -0.0134 -0.1035 -0.1898
27545W        W40959  11.263  10.844   5.599 -0.1868  0.1007 -0.0379
27546W        W40960  13.055  12.826  12.634 -0.1683 -0.2104  0.0198
27547W        W40961   8.313   3.047   1.768 -0.1257  0.1738  0.3147
27548W        W40962   7.127   2.304  10.417  0.0589  0.5076 -0.0205
27549W        W40963   6.877   2.121  11.680  0.1387  0.1274 -0.1416
27550W        W40964   8.562   2.927   0.129 -0.0364  0.1902 -0.3606
27551W        W40965  15.345  13.994   5.430  0.0546  0.1340 -0.3978
27552W        W40966  17.010   1.884   1.586  0.0086  0.2296  0.0130
27553W        W40967   0.566   6.103   1.973  0.1216  0.0953  0.1216
27554W        W40968  17.947   3.395   4.547 -0.1022  0.1750 -0.2570
27555W        W40969  16.483  15.698   3.171 -0.0879  0.3594 -0.1400
27556W        W40970  10.627   0.431   1.872  0.3066 -0.0881 -0.0474
27557W        W40971  17.377  12.427  15.466  0.0748 -0.0767 -0.1907
27558W        W40972   5.395   9.177   5.352  0.0437 -0.2386  0.2152
27559W        W40973  11.462   6.517  11.962  0.0094  0.1038  0.0157
27560W        W40974  15.665   8.176  13.028  0.1048 -0.0084 -0.1052
27561W        W40975   2.744  17.269   5.671  0.5525 -0.2230 -0.0112
27562W        W40976   5.269   2.819  14.467  0.0086  0.1030  0.0166
27563W        W40977   6.054   0.050   1.119 -0.0497  0.0921 -0.2060
27564W        W40978   9.067   0.416   0.234 -0.2494  0.1834  0.0720
27565W        W40979   6.380   2.436   5.166 -0.0445  0.1807 -0.0609
27566W        W40980  17.091   9.487   4.361  0.3092 -0.1836 -0.1260
27567W        W40981  11.148  16.234  13.497 -0.1511 -0.2196  0.0057
27568W        W40982   0.822   5.911   4.723  0.1977  0.0585 -0.0154
27569W        W40983   5.136  12.134  15.271  0.2167  0.3348  0.0788
27570W        W40984  12.433  14.430  13.932 -0.3836  0.0486 -0.0298
27571W        W40985  10.470   8.507   2.645 -0.2552 -0.3916 -0.0134
27572W        W40986  16.489   6.478   0.941 -0.0392  0.0872 -0.2625
27573W        W40987  12.337   9.045   1.353 -0.2357 -0.0981 -0.0310
27574W        W40988   7.800   6.612   1.981 -0.0517  0.1732  0.1458
27575W        W40989   3.956   4.240   3.412 -0.0587  0.0322  0.2229
27576W        W40990   4.332   0.754   3.719 -0.1187  0.3366  0.1033
27577W        W40991  14.686   7.728  14.666  0.0319  0.2015 -0.0333
27578W        W40992   7.847  13.734  11.683  0.0241  0.2753  0.5129
27579W        W40993  11.525  16.232   4.577  0.1111 -0.1684 -0.1399
27580W        W40994  17.152   5.576   5.329  0.0160  0.0648  0.0612
27581W        W40995  12.049  17.058  15.762 -0.0989 -0.2526  0.1668
27582W        W40996   2.569  13.436   5.853  0.1160 -0.1589  0.0301
27583W        W40997   3.733  15.167   2.802 -0.1510 -0.3156  0.0243
27584W        W40998  13.233   9.951  10.882  0.2255 -0.1534 -0.1537
27585W        W40999   5.564   1.051   3.362  0.1687 -0.1087  0.1147
27586W        W41000   1.379   7.833  12.957 -0.1301 -0.0802 -0.1315
27587W        W41001  10.949   3.275  14.028 -0.0385 -0.0891  0.0254
27588W        W41002   9.652  14.066   6.027 -0.0452  0.0925 -0.1800
27589W        W41003   3.073   0.109   1.137 -0.0235 -0.0208  0.2263
27590W        W41004   7.472  12.192   5.851  0.3987 -0.0047  0.0723
27591W        W41005   7.976  10.610  16.399  0.1127 -0.0916 -0.0385
27592W        W41006   3.065  10.931  12.816  0.1304  0.3367 -0.0503
27593W        W41007  10.812  15.179   3.475  0.0531  0.0281 -0.2538
27594W        W41008   6.616   7.265   0.109  0.1228 -0.2929 -0.0294
27595W        W41009   7.210   1.906   0.826 -0.0483 -0.3072  0.0976
27596W        W41010   8.149  12.046  13.824  0.2574  0.2660  0.0585
27597W        W41011   6.178   7.039   0.098 -0.0322  0.2979 -0.1663
27598W        W41012  12.944   4.584   1.238 -0.0011 -0.1131 -0.1489
27599W        W41013   5.073   5.132   1.906 -0.2803 -0.1272 -0.3256
27600W        W41014   2.244   6.340   0.396  0.2214 -0.0202 -0.2525
27601W        W41015   9.515   4.668  12.173 -0.3715  0.1943  0.2004
27602W        W41016  10.876   3.802   3.135 -0.0007 -0.3788 -0.2427
27603W        W41017  13.934   4.234  11.685  0.0331  0.1933  0.4583
27604W        W41018   3.804   1.775  15.838 -0.0001 -0.1425  0.0062
27605W        W41019  13.991   2.782  14.124 -0.3351  0.0086  0.2564
27606W        W41020   7.370   7.548   2.058  0.0865  0.1597  0.0920
27607W        W41021   1.372   5.809  12.428  0.2661 -0.0541  0.0250
27608W        W41022   0.390   3.948   3.362 -0.1225  0.1387 -0.2754
27609W        W41023  17.755   3.325  12.134 -0.2559  0.0867 -0.2344
27610W        W41024   2.665   2.653  11.413  0.1945 -0.3773  0.3382
27611W        W41025   4.743  10.383   0.835 -0.0359  0.1579  0.0471
27612W        W41026  10.521  13.216   2.671  0.0725 -0.3200 -0.0273
27613W        W41027   5.344  11.849   0.464  0.0371 -0.5961  0.1643
27614W        W41028  14.951   0.816  15.403  0.0457 -0.1194  0.2191
27615W        W41029  15.772   5.734  10.513  0.1229 -0.0907  0.3486
27616W        W41030   4.277   1.151   4.592  0.1810  0.1622 -0.1326
27617W        W41031  17.238  16.700   5.329  0.0340  0.0738 -0.3544
27618W        W41032  17.390  12.869   0.569 -0.2778 -0.1298  0.0316
27619W        W41033   7.472  14.490  11.689  0.3180 -0.3174 -0.0951
27620W        W41034  15.427   1.671  13.125 -0.0774  0.0221  0.0153
27621W        W41035  14.674   5.247  12.332  0.0822 -0.2779  0.0679
27622W        W41036   2.984  12.885  11.576  0.0956 -0.1800  0.0937
27623W        W41037  15.239  12.916   5.994  0.0090  0.3271 -0.0745
27624W        W41038   9.536  17.474   1.574  0.1656  0.1244 -0.2225
27625W        W41039  15.956   8.105   3.685  0.0169 -0.0669 -0.0603
27626W        W41040   7.820   8.580  12.906  0.3845 -0.2144 -0.0998
27627W        W41041  15.127   3.105  14.696 -0.2273 -0.0518 -0.1082
27628W        W41042   1.348   8.124   5.723 -0.0615  0.0404  0.1299
27629W        W41043  13.858   2.109  16.163 -0.1574  0.4897 -0.0144
27630W        W41044   6.967   8.980   2.422 -0.2414 -0.2005  0.0885
27631W        W41045  16.786  17.904  15.907  0.0493  0.2110 -0.0161
27632W        W41046  15.045   7.826   4.439  0.0567  0.1274  0.0438
27633W        W41047  13.269  11.253   4.934  0.0156 -0.2550  0.0341
27634W        W41048   9.680  13.233  15.547 -0.3630  0.2004 -0.2259
27635W        W41049   8.184   1.585   6.059  0.1131 -0.0475 -0.0005
27636W        W41050  10.220   7.999  11.494  0.1284 -0.3998  0.1828
27637W        W41051  13.152   3.756  15.312 -0.0059 -0.0107 -0.0170
27638W        W41052   6.652  11.131   4.275  0.0306 -0.0190 -0.2737
27639W        W41053   5.497  11.056  13.922  0.1731  0.1910 -0.1033
27640W        W41054   7.630  10.773  14.809 -0.2061  0.0109 -0.0311
27641W        W41055  15.920   6.016  11.483 -0.1244 -0.1010  0.0538
27642W        W41056   7.730   3.662   0.492 -0.1054 -0.3150 -0.3009
27643W        W41057  15.172  12.822  16.053 -0.1978  0.0366 -0.1173
27644W        W41058   2.691  14.316   0.499 -0.0983 -0.4036 -0.2173
27645W        W41059   3.401   1.370   4.648  0.0180  0.2131  0.0103
27646W        W41060  15.592   6.060   4.494 -0.0740  0.1698  0.1082
27647W        W41061   1.854  16.961  11.764  0.0288 -0.0066  0.1032
27648W        W41062   2.194   2.055   0.669 -0.2786  0.3500 -0.2360
27649W        W41063  18.032   8.493  13.758  0.2901  0.1600  0.1297
27650W        W41064  13.364   3.997   5.399  0.0071  0.2018  0.0914
27651W        W41065   6.168  12.799   2.411 -0.1662  0.1493  0.2240
27652W        W41066   7.134   3.363  14.683 -0.0481  0.1618  0.2500
27653W        W41067   3.261   6.651   2.803 -0.2149  0.1077 -0.2686
27654W        W41068   9.937  10.800  13.863 -0.1096 -0.0769  0.2085
27655W        W41069  14.812  15.003   0.811  0.3962 -0.0094 -0.1657
27656W        W41070  11.899   7.405   6.007  0.0849 -0.1764  0.3709
27657W        W41071   4.333  14.267  15.007 -0.2420 -0.3007 -0.0677
27658W        W41072  10.636  16.202  14.248 -0.3180 -0.0036 -0.3321
27659W        W41073   5.283  14.293  15.389  0.1594  0.1188 -0.2689
27660W        W41074  14.153  15.385  13.945 -0.2025  0.1089  0.2160
27661W        W41075  15.390   1.495   6.066 -0.3566  0.0353 -0.0655
27662W        W41076   7.034   7.085   1.747 -0.0688  0.1360  0.1680
27663W        W41077  15.541   2.446   1.476 -0.2068 -0.3006 -0.2512
27664W        W41078   9.010   3.813  15.173  0.2932 -0.1534 -0.0973
27665W        W41079   3.595  12.931  13.036  0.0891 -0.0811  0.1102
27666W        W41080   4.489  12.575  13.119  0.0415 -0.0563  0.0232
27667W        W41081  15.803   5.444  15.815  0.0456 -0.1935 -0.0875
27668W        W41082  15.938  12.957  15.834 -0.0661 -0.1394  0.0077
27669W        W41083   5.898   4.931  11.962 -0.1198 -0.2720  0.0134
27670W        W41084   0.871   9.886   3.162  0.0670  0.0961 -0.2367
27671W        W41085  16.376   3.440   1.659 -0.0026 -0.0749 -0.1498
27672W        W41086  16.838  10.012   5.133 -0.0042 -0.0979  0.2081
27673W        W41087  18.063  17.052   2.409  0.1007  0.1111  0.2755
27674W        W41088  16.032   4.474   1.031  0.0726 -0.0576 -0.0514
27675W        W41089   5.779  17.548  15.226  0.0222  0.0370 -0.0515
27676W        W41090   1.892   4.069   1.762 -0.1622 -0.0329  0.1842
27677W        W41091   8.230  11.675  16.424 -0.1212 -0.0430  0.2665
27678W        W41092   7.136   3.290  15.823  0.1060  0.1007 -0.0454
27679W        W41093   1.869  17.335   0.971 -0.0660 -0.1300 -0.3289
27680W        W41094  15.224   6.896  16.211  0.2046 -0.1625  0.1490
27681W        W41095  18.244   8.498  14.256  0.0160  0.0443 -0.3965
27682W        W41096  12.168   1.637   5.851 -0.0783 -0.2755 -0.0657
27683W        W41097   5.224   9.856  14.484 -0.0112 -0.0291  0.0321
27684W        W41098   9.110  10.430  10.231  0.0676  0.2335 -0.0420
27685W        W41099  12.783  14.670  14.216 -0.1527 -0.0472 -0.1820
27686W        W41100  12.283   2.328   3.460  0.0529 -0.1998 -0.3196
27687W        W41101  16.758  12.349  12.017 -0.0082 -0.0909  0.0734
27688W        W41102   5.870  15.366   2.423  0.4741 -0.1296  0.1636
27689W        W41103  13.724   0.330  11.406 -0.1076  0.0882 -0.1982
27690W        W41104  12.169   5.332   3.299 -0.0271  0.1009 -0.2863
27691W        W41105  14.846  15.498  15.575  0.2415  0.1395  0.0046
27692W        W41106   2.049  12.165  12.793  0.3278 -0.0782 -0.3372
27693W        W41107  17.080   5.795   9.850 -0.0343 -0.1020 -0.2136
27694W        W41108  15.973  12.679   5.518  0.0459  0.0962 -0.0716
27695W        W41109   0.919   0.713  13.897  0.0142 -0.2013 -0.2721
27696W        W41110   1.031  15.384  15.175 -0.1020 -0.3721  0.2391
27697W        W41111  12.988   6.508  12.338 -0.4046 -0.0901 -0.2236
27698W        W41112   1.545  15.913   3.865 -0.0647 -0.2459  0.2794
27699W        W41113   5.448   6.174  14.607  0.2141  0.0915  0.1134
27700W        W41114  15.310   2.538  14.104 -0.0255  0.2967  0.2764
27701W        W41115  15.335  16.280   0.343  0.2069 -0.0808  0.0788
27702W        W41116   0.646  16.878  13.551 -0.1545 -0.0880 -0.0769
27703W        W41117   1.721  18.158   6.088 -0.1022 -0.1721 -0.2665
27704W        W41118   2.641   6.736   1.735  0.1955 -0.0571  0.2612
27705W        W41119   0.518  16.613  15.385 -0.0300  0.1513 -0.3177
27706W        W41120   1.033  11.829  12.980  0.2388  0.1004 -0.2328
27707W        W41121  15.378   9.276  14.261 -0.2398  0.0794  0.1665
27708W        W41122   4.976   6.178  11.054 -0.3212  0.2888 -0.1050
27709W        W41123  13.331   0.234  15.658  0.2363 -0.2401  0.0829
27710W        W41124  10.492   4.086   5.950 -0.0880 -0.2985 -0.1448
27711W        W41125   1.956  10.138   2.053  0.0525 -0.0307 -0.0001
27712W        W41126  11.536   6.517  11.163  0.1276  0.0530 -0.2307
27713W        W41127  12.797  12.693   4.718  0.2650 -0.1316  0.0124
27714W        W41128   1.003   0.139   3.649  0.0447  0.2350 -0.1673
27715W        W41129   8.013  17.152  16.241 -0.0350  0.0349  0.2758
27716W        W41130  17.448   9.496  15.618 -0.1654  0.1469  0.1978
27717W        W41131   3.425   0.551   3.705  0.0118 -0.1508 -0.1680
27718W        W41132  14.992  14.021   0.839 -0.2140 -0.1549  0.0333
27719W        W41133   4.919   2.358  11.424  0.0264 -0.1611 -0.0217
27720W        W41134  12.293   0.696  15.644  0.3074  0.2417 -0.0086
27721W        W41135   5.573   0.350  10.884  0.0818 -0.0365 -0.0498
27722W        W41136  14.849   8.794   2.572  0.2394  0.1133 -0.0101
27723W        W41137   8.718   4.352   1.307  0.0707 -0.2356 -0.1435
27724W        W41138  18.248  16.863  16.173  0.0911 -0.1403  0.1841
27725W        W41139   9.967   3.348  11.815 -0.1768  0.4162 -0.0087
27726W        W41140   6.867   7.652  12.249 -0.3670  0.2192 -0.0190
27727W        W41141  10.594   8.833  14.814 -0.2963 -0.2858 -0.0599
27728W        W41142  17.371  12.738   4.335  0.2154  0.3431  0.1387
27729W        W41143   4.379   4.717   2.006 -0.2987  0.0791 -0.0040
27730W        W41144  10.936   1.077  15.231  0.1827  0.2382 -0.3058
27731W        W41145  16.133   1.931   2.766 -0.1338 -0.2106  0.2129
27732W        W41146  10.153  17.225  14.916 -0.1409 -0.0938 -0.0612
27733W        W41147   6.092  12.453   4.470  0.0646  0.1498  0.3550
27734W        W41148   8.230   4.349  10.109  0.2803  0.3298 -0.0706
27735W        W41149  10.066  15.866   3.261  0.4008  0.3233 -0.0923
27736W        W41150   7.455   8.683   4.752  0.0286  0.0336  0.4493
27737W        W41151   1.161   1.486   1.925  0.1742  0.1314  0.4723
27738W        W41152   6.805   5.787   0.157 -0.1501 -0.0916  0.1566
27739W        W41153   2.859  13.198  14.765 -0.3074  0.3303  0.1549
27740W        W41154   8.026   4.625  12.449  0.2380  0.2618  0.5242
27741W        W41155  11.279   3.494   3.201  0.0203  0.0894 -0.0157
27742W        W41156  14.173  10.514  11.953  0.0443  0.1373 -0.2220
27743W        W41157  11.629   4.777  16.273  0.3022  0.3711  0.1852
27744W        W41158  13.508  10.603  12.195 -0.4013 -0.2672 -0.1484
27745W        W41159   5.039   4.820   1.448  0.0052  0.1560  0.1956
27746W        W41160  16.815   7.067   4.008  0.0050  0.0412 -0.1822
27747W        W41161   8.451   4.478  16.288  0.1161 -0.1386 -0.1435
27748W        W41162   7.032  11.705  11.434  0.1336 -0.0206 -0.2824
27749W        W41163   8.270  16.971   3.438 -0.1341  0.0177 -0.4195
27750W        W41164   1.044   6.280  15.513  0.0533  0.2148 -0.1598
27751W        W41165   9.742   7.636  11.040 -0.1022 -0.1644  0.3204
27752W        W41166  10.439   0.242  12.091 -0.4483  0.1832 -0.0551
27753W        W41167   0.718  11.369  15.386 -0.1149  0.4562  0.2403
27754W        W41168  16.884   2.148  10.189  0.1951 -0.0296 -0.0569
27755W        W41169  11.910   3.650   0.638  0.0305  0.2003  0.1818
27756W        W41170   7.644  14.725   2.817  0.1466 -0.0838  0.1074
27757W        W41171  11.171   1.627  14.652  0.2650 -0.1113 -0.0096
27758W        W41172  17.120  11.613   2.692  0.1744 -0.0705  0.1172
27759W        W41173   9.705  16.903   1.359 -0.0087  0.0965 -0.0156
27760W        W41174   1.502   1.812  10.181  0.0345 -0.2340 -0.1225
27761W        W41175   1.464  14.655   1.438  0.4498  0.2218  0.0215
27762W        W41176   0.472  16.430   2.481  0.3300 -0.0506 -0.0142
27763W        W41177  15.335  15.034   6.574 -0.1221 -0.0109 -0.0637
27764W        W41178   7.824   7.915   4.602 -0.2199 -0.3530  0.0318
27765W        W41179   3.731   6.206  15.180  0.2206 -0.0480 -0.0227
27766W        W41180  10.407   9.071   4.971 -0.1454 -0.3278 -0.0466
27767W        W41181   3.947  14.335   5.290 -0.1991  0.0847 -0.0451
27768W        W41182  16.351  14.323  14.099 -0.1504 -0.1343 -0.3298
27769W        W41183   2.862   0.462   1.430  0.3508  0.0048  0.0607
27770W        W41184   0.489   1.475  11.592  0.0494  0.1463  0.2345
27771W        W41185  14.175  17.647  13.126  0.2789 -0.0921  0.1554
27772W        W41186  16.019   2.405   0.477  0.0076  0.0121  0.0711
27773W        W41187  14.142  17.733  12.640  0.3547  0.3266 -0.0271
27774W        W41188  11.113   9.607   1.956 -0.0795 -0.0096 -0.0291
27775W        W41189   1.617   8.160   4.764 -0.0435  0.2681 -0.2474
27776W        W41190   8.628  18.064   1.344 -0.3677 -0.2558  0.1520
27777W        W41191   3.870  14.114  12.121 -0.1479  0.1352 -0.1676
27778W        W41192   5.300   0.296   3.991  0.1717 -0.0747 -0.2073
27779W        W41193  16.157   9.329   0.522 -0.0718 -0.0376  0.1830
27780W        W41194  13.331   8.011  16.508 -0.1655  0.2131  0.1615
27781W        W41195  11.945  17.002   0.829 -0.0234  0.0771 -0.0479
27782W        W41196   3.269   1.345  15.880 -0.0224  0.2203 -0.2320
27783W        W41197  15.888  13.971  13.891  0.0736  0.0320  0.0149
27784W        W41198  11.404  13.392   0.023  0.1467  0.1550  0.5431
27785W        W41199   8.147   6.275   0.331 -0.3977 -0.0746 -0.0596
27786W        W41200  16.908  15.921   5.040  0.1456  0.0608 -0.1168
27787W        W41201   5.218  17.276   5.925  0.1091  0.1769 -0.0001
27788W        W41202   9.738   5.112   6.562 -0.1336 -0.3997 -0.4343
27789W        W41203   5.541  12.432   1.468 -0.0691 -0.2499  0.2844
27790W        W41204  16.671   2.533  15.550  0.0888 -0.0933  0.2383
27791W        W41205  12.594   4.560   6.330 -0.1243 -0.0801  0.2718
27792W        W41206  16.548   4.091  12.281  0.2910 -0.1622  0.3386
27793W        W41207   9.428   4.368  10.341 -0.0276  0.1862  0.0176
27794W        W41208  16.808  13.953  16.229  0.0596 -0.0089  0.2063
27795W        W41209   3.533   3.669   4.598  0.0029  0.0444  0.2395
27796W        W41210   6.196  14.850  15.975  0.0003  0.2069  0.0032
27797W        W41211  10.538  14.577  11.737 -0.0551  0.2560 -0.0302
27798W        W41212   3.585   3.768   0.753  0.0343  0.1731  0.0087
27799W        W41213  12.001  16.310   4.485  0.2065 -0.1811 -0.1039
27800W        W41214  11.347   4.696  11.928  0.2130  0.2761 -0.1537
27801W        W41215   7.115  14.116  14.038 -0.1810 -0.0344 -0.0369
27802W        W41216   3.457   0.045   2.357  0.0040 -0.0092  0.1109
27803W        W41217   1.914   6.513   2.515 -0.2101 -0.1056  0.0373
27804W        W41218   1.637  14.804   2.939  0.1395 -0.1166 -0.1484
27805W        W41219  10.053  16.176  14.818 -0.4304 -0.2583  0.1550
27806W        W41220  13.700   5.762   3.858  0.0196  0.6251 -0.1708
27807W        W41221  15.301   8.384   4.685  0.1141 -0.2066 -0.2966
27808W        W41222   7.256   3.817   0.573 -0.1687 -0.2238 -0.0952
27809W        W41223   4.149  15.741   3.549  0.2066 -0.3399 -0.0045
27810W        W41224   7.800  17.706   3.457  0.1275 -0.2516 -0.1064
27811W        W41225   3.617  17.735  14.132 -0.0223 -0.2039 -0.1318
27812W        W41226   3.085   5.436  10.498 -0.0789 -0.0568  0.0181
27813W        W41227  18.217  15.226  16.416 -0.0972 -0.1448  0.2960
27814W        W41228  17.430  15.347   3.002 -0.0673  0.0589  0.3849
27815W        W41229   5.856  13.346   1.857 -0.0262 -0.4626 -0.0018
27816W        W41230   9.073   0.496  12.390 -0.0672  0.0032  0.0411
27817W        W41231   9.464  16.991   2.290  0.2767 -0.2692 -0.0772
27818W        W41232   2.216  17.637   0.666 -0.0248 -0.2926  0.0231
27819W        W41233   4.876  12.348   5.697 -0.1713  0.0847  0.1596
27820W        W41234   4.367  17.378  12.628  0.3267  0.0561 -0.3015
27821W        W41235   3.148   6.807   0.283 -0.0873 -0.0432  0.1981
27822W        W41236  12.102   1.391   4.830 -0.1011 -0.1436  0.0209
27823W        W41237   2.823  16.699   2.347 -0.0709 -0.1425 -0.1744
27824W        W41238   9.456  17.237  14.295 -0.1858  0.2583  0.1085
27825W        W41239   9.408   2.732   3.094 -0.3070  0.5596 -0.0062
27826W        W41240   8.228   1.386  12.996 -0.1099 -0.0915  0.1189
27827W        W41241  13.812  13.167  14.801  0.1800  0.1428  0.1174
27828W        W41242  12.890   2.350   2.701  0.1189 -0.0041  0.3458
27829W        W41243   2.081   5.909   5.550 -0.2428 -0.0702  0.0514
27830W        W41244   6.588  12.169   2.170 -0.1405  0.1261  0.0538
27831W        W41245  16.153  18.159  14.424  0.1231  0.0785 -0.2464
27832W        W41246   1.034   0.729   6.437 -0.0400 -0.2974  0.0529
27833W        W41247   8.485  13.055   0.213  0.0945  0.0887 -0.3739
27834W        W41248  17.328   0.020  15.981 -0.0978 -0.3054 -0.2244
27835W        W41249   5.211   9.358  12.473  0.4043  0.3953  0.0575
27836W        W41250   2.982  17.639   6.455  0.1990 -0.1442  0.1302
27837W        W41251  12.646   7.727  10.017  0.2872  0.3540  0.2708
27838W        W41252  14.426   1.387  16.352 -0.3922  0.0024 -0.1969
27839W        W41253  11.284   5.494  14.058 -0.1596  0.2114  0.1204
27840W        W41254   2.733   1.851   4.061 -0.0074  0.1885  0.1746
27841W        W41255  16.110  12.134   5.651  0.1859 -0.3976  0.0418
27842W        W41256   1.256   0.531  15.737  0.1376 -0.0617 -0.1092
27843W        W41257  11.904  13.553  14.883  0.1440  0.1006 -0.1593
27844W        W41258   6.923   1.474   0.967 -0.2945 -0.0266  0.2116
27845W        W41259  14.620   2.558   1.322  0.2730  0.0390 -0.1660
27846W        W41260   0.518   5.545   4.610 -0.1495 -0.1706  0.1024
27847W        W41261   8.196  12.672   1.052 -0.0729 -0.1333  0.1048
27848W        W41262   9.478   1.394  12.495  0.0761 -0.2604 -0.0426
27849W        W41263   8.419   2.340   5.495 -0.2219 -0.1908 -0.1644
27850W        W41264   9.051   5.949  10.752  0.0607  0.0175  0.1305
27851W        W41265   4.427   1.589   5.397  0.1904 -0.2211  0.0582
27852W        W41266  16.252   7.539  10.547 -0.2514 -0.5832  0.0058
27853W        W41267  12.805   4.924  15.990  0.1550 -0.1181 -0.1182
27854W        W41268   7.718  16.688   1.174  0.1035 -0.2167 -0.0127
27855W        W41269  16.297   1.167   3.994  0.0470  0.1641  0.1189
27856W        W41270  17.335   8.874   5.276  0.2296  0.1606 -0.1642
27857W        W41271  10.019  15.383   5.120 -0.2594 -0.0588  0.0599
27858W        W41272   7.894   1.561   3.405  0.0372  0.1570  0.1445
27859W        W41273   2.102  12.744  13.113  0.1063 -0.1954  0.1855
27860W        W41274   0.648  13.539  14.821 -0.2614  0.1009  0.0938
27861W        W41275   9.675   8.416   4.372 -0.1257  0.0881  0.1495
27862W        W41276   2.379   1.195  14.406 -0.0927 -0.2807 -0.0255
27863W        W41277   6.478   4.728   0.848  0.2034 -0.1770 -0.1493
27864W        W41278  16.255   5.342  16.131 -0.3318  0.0596 -0.0957
27865W        W41279  14.166  14.607  12.161 -0.1521 -0.1378  0.2126
27866W        W41280  15.004   2.105   4.341 -0.0343 -0.1242  0.0544
27867W        W41281  10.371  13.006  12.421 -0.1335 -0.3147 -0.1434
27868W        W41282  12.589   3.420  12.427  0.0491  0.2551 -0.0787
27869W        W41283   4.442   2.300  13.887  0.1597 -0.1720 -0.2743
27870W        W41284   2.409   2.567   1.932  0.1929  0.0029 -0.2748
27871W        W41285   5.372   9.735   5.137 -0.2879 -0.2110  0.4796
27872W        W41286  14.371  10.099   0.755  0.1473  0.2204  0.0016
27873W        W41287   6.484  11.609  16.106 -0.0635  0.1585 -0.0589
27874W        W41288  12.891   1.123  12.864 -0.1913  0.0996  0.0800
27875W        W41289  15.589   8.828   1.943  0.1742 -0.0030 -0.1632
27876W        W41290  13.890   8.519   2.001  0.0606  0.0051 -0.1632
27877W        W41291  13.774  15.869   0.996 -0.1951 -0.0654  0.1933
27878W        W41292   1.698  12.226  12.476 -0.3572  0.0896 -0.0270
27879W        W41293   8.821  11.248  11.128 -0.0770 -0.1954  0.2398
27880W        W41294  18.182  12.227   0.941 -0.1283 -0.1173  0.4150
27881W        W41295  13.556   6.591   0.220 -0.0816  0.3466 -0.1842
27882W        W41296   2.111   6.345   5.193 -0.0393 -0.3828 -0.2117
27883W        W41297   7.803   0.646   2.512 -0.0145 -0.3247  0.0432
27884W        W41298   0.466   0.106   3.338 -0.1855  0.1517  0.1479
27885W        W41299  16.259  12.375  14.531 -0.2738  0.0207 -0.5494
27886W        W41300   4.078   3.052  13.791 -0.1694  0.0109 -0.2819
27887W        W41301  10.289   5.534  11.351 -0.0325 -0.5224  0.0654
27888W        W41302  15.153   6.619  12.720  0.0922  0.2631 -0.1856
27889W        W41303   3.070   2.168  10.605 -0.0355 -0.4044  0.2873
27890W        W41304   9.566   4.682   4.644  0.0370 -0.0586 -0.1391
27891W        W41305   8.514  18.095   4.509 -0.0286  0.1764  0.0926
27892W        W41306  10.461  12.348   5.660  0.0674  0.0981  0.0738
27893W        W41307  15.328   1.601  16.318  0.0159 -0.0998 -0.1458
27894W        W41308   1.174   6.327  12.712  0.0867 -0.0153 -0.1592
27895W        W41309   9.980  15.630  11.693 -0.1941  0.0648 -0.2578
27896W        W41310   4.992   0.051  13.876 -0.1549  0.0939 -0.1261
27897W        W41311  16.952  11.441  12.929 -0.0206 -0.2136 -0.2789
27898W        W41312   4.947   5.874  14.399  0.1675  0.2182 -0.0311
27899W        W41313  11.782  10.282  11.562 -0.1246  0.3301  0.0241
27900W        W41314   5.313   2.183   5.320 -0.3814  0.2079  0.1153
27901W        W41315   4.621  11.419  13.577  0.3094  0.1938  0.0118
27902W        W41316   0.092   9.066  14.255  0.0119  0.0614  0.1809
27903W        W41317   9.115  15.688   2.454 -0.1350  0.0684 -0.2599
27904W        W41318  16.382  15.266  14.859  0.3106  0.1285 -0.0013
27905W        W41319   8.816   5.939   5.966  0.1072  0.0688 -0.0488
27906W        W41320  16.870   3.413  16.044 -0.1975  0.3410 -0.1056
27907W        W41321   6.498   1.652  15.633 -0.2804  0.0560 -0.0329
27908W        W41322  14.584   2.092  10.093 -0.0578 -0.2018 -0.1137
27909W        W41323   6.931   4.413  11.675  0.0524 -0.1245 -0.0045
27910W        W41324  15.259  15.495   4.348  0.0651  0.2859 -0.0694
27911W        W41325  11.654  13.461   2.383  0.2973 -0.1970 -0.2334
27912W        W41326   8.317   8.874  13.210  0.2831  0.1101  0.1629
27913W        W41327   7.041   5.528  11.091 -0.0610  0.1025 -0.1673
27914W        W41328   3.342   1.404  14.970  0.0113  0.1441  0.0976
27915W        W41329   0.379   4.021  13.529 -0.0677  0.1846  0.1236
27916W        W41330  10.217  14.145   5.724  0.0201 -0.0180 -0.0949
27917W        W41331  15.497  15.177   6.042 -0.2020 -0.3482 -0.1668
27918W        W41332   9.963   9.558   1.687 -0.0367  0.4523 -0.3443
27919W        W41333  14.576  13.096   2.936  0.0847 -0.0113 -0.0134
27920W        W41334  16.435  15.144   0.658  0.1106  0.0416 -0.1085
27921W        W41335  10.784   5.413  15.221  0.7245 -0.3932 -0.4540
27922W        W41336   4.647  13.183  11.656 -0.1433 -0.1813 -0.1266
27923W        W41337   9.180   6.122   4.270  0.0348  0.1157 -0.0097
27924W        W41338   6.000   0.696   2.414 -0.1609 -0.4821  0.0579
27925W        W41339   6.819   2.513  12.616 -0.0466  0.0212 -0.1198
27926W        W41340  13.163  18.044  14.669 -0.2989 -0.3343 -0.2143
27927W        W41341  16.929   3.125  12.249  0.1848  0.0830  0.1921
27928W        W41342   2.487  12.809  15.595 -0.0797 -0.0633 -0.0347
27929W        W41343  10.838   3.247   4.525  0.0254 -0.1222  0.0964
27930W        W41344  11.993  13.151   5.204  0.0602  0.0571 -0.2366
27931W        W41345   4.692   9.469   0.271  0.0380  0.0616  0.0130
27932W        W41346  14.305   9.915   2.609 -0.4422  0.3201 -0.2621
27933W        W41347   2.365   2.225   4.884  0.1103  0.0149 -0.0568
27934W        W41348   7.033   3.896   2.367 -0.0975 -0.0198 -0.1011
27935W        W41349  10.290   1.468  12.415 -0.0899 -0.2551 -0.1985
27936W        W41350   8.955  10.934   0.959  0.1330 -0.1049 -0.1185
27937W        W41351   0.129   1.008   3.302 -0.1717  0.0957 -0.0293
27938W        W41352   4.632   2.276  11.805  0.1638 -0.3982  0.0614
27939W        W41353  10.218  12.851   5.416 -0.0750 -0.3930  0.1663
27940W        W41354  14.598   8.882   3.774  0.0224  0.1711 -0.3359
27941W        W41355   7.340   7.770  14.861 -0.1332  0.2526 -0.1117
27942W        W41356  10.636   2.390   4.384 -0.2120 -0.0451  0.2428
27943W        W41357   9.151   7.636   0.348  0.1070  0.1054 -0.2384
27944W        W41358   6.012  13.043   5.216  0.0860  0.1335  0.1277
27945W        W41359  17.383  13.131   3.774 -0.0249  0.0269  0.1927
27946W        W41360  11.740   0.357  12.234  0.3649 -0.1923  0.1294
27947W        W41361   9.969  12.704  16.201  0.2838 -0.2565  0.1577
27948W        W41362  16.307   7.441   4.720  0.3325 -0.0967  0.4021
27949W        W41363  17.346   2.801   1.826 -0.0620 -0.1046 -0.0825
27950W        W41364  16.840   8.487   0.010  0.1272 -0.0624  0.0484
27951W        W41365   9.028  18.186   2.286 -0.1373  0.1174 -0.0545
27952W        W41366   2.498   2.675  15.985 -0.2508  0.1300 -0.1468
27953W        W41367   5.523  15.072   1.002 -0.0761  0.0241 -0.1537
27954W        W41368   5.813  12.668   0.212  0.0461  0.1389  0.0050
27955W        W41369  15.527   3.266  10.493  0.1121  0.0903 -0.0364
27956W        W41370  17.455  18.134   5.110 -0.1281  0.2738  0.0107
27957W        W41371   7.328  17.892  12.320  0.3665 -0.0004  0.3506
27958W        W41372   1.060  16.841  15.999  0.0467 -0.0090 -0.1297
27959W        W41373   7.568   9.847  16.275 -0.1860 -0.2635  0.0415
27960W        W41374   9.634   1.469  15.559  0.3428  0.0570 -0.0180
27961W        W41375   5.920  11.596  15.234  0.1744 -0.0975 -0.0467
27962W        W41376  14.935   7.675  15.812  0.2486  0.2875  0.0578
27963W        W41377  16.983   5.230   4.018 -0.0595  0.5213 -0.0930
27964W        W41378   0.492   6.786  11.648  0.0646  0.3019 -0.0328
27965W        W41379   2.418   4.055  11.348  0.1846 -0.1952 -0.0503
27966W        W41380   0.061   0.618  13.479 -0.1327  0.0267 -0.1376
27967W        W41381  11.443   0.043   1.879 -0.1895  0.3152  0.1991
27968W        W41382  15.906   8.250  14.591 -0.0774  0.1765 -0.1383
27969W        W41383   1.437  12.611   4.174  0.0377 -0.2099  0.1674
27970W        W41384   3.521  10.043  15.612 -0.0272  0.2467  0.2799
27971W        W41385   4.766  12.100  16.151  0.0853  0.0524  0.0963
27972W        W41386   4.362  17.959   0.465 -0.2704 -0.0528 -0.2313
27973W        W41387   9.504   9.468  10.761 -0.2252 -0.1506 -0.2719
27974W        W41388   0.679   1.938  14.308  0.0554  0.0384  0.0399
27975W        W41389   1.550   1.442   0.958 -0.0723 -0.0435 -0.1574
27976W        W41390   3.181  13.674  14.653 -0.0646 -0.2531  0.3751
27977W        W41391   7.214   7.652   0.693  0.1843 -0.2179  0.0012
27978W        W41392  15.631   5.506  14.022  0.4665 -0.0017 -0.1459
27979W        W41393  15.806  17.485  11.335 -0.0449  0.1070 -0.1506
27980W        W41394  17.108  13.582   0.920 -0.0635  0.0455  0.2294
27981W        W41395   1.529   6.709   5.133  0.5118  0.1476  0.2215
27982W        W41396  12.712   1.375  13.659 -0.0485 -0.0842  0.0243
27983W        W41397  17.293   4.213   5.291  0.1422 -0.3153 -0.0775
27984W        W41398   2.979  14.808  15.341 -0.0297  0.2126 -0.2176
27985W        W41399   0.033  16.561  14.260 -0.1747  0.1663  0.0697
27986W        W41400  15.813   5.956   0.393 -0.3211 -0.3046 -0.0422
27987W        W41401  16.211  17.356   2.252  0.2230  0.1774 -0.1898
27988W        W41402  14.523  17.554  14.280 -0.0628  0.0847 -0.0025
27989W        W41403   3.548   3.808  13.070 -0.0753  0.0782  0.3433
27990W        W41404   4.235   8.776  15.571  0.1286 -0.2164 -0.2649
27991W        W41405   0.660   1.089   1.312 -0.0233 -0.0699 -0.0985
27992W        W41406   2.848   0.467   5.958 -0.2143 -0.0656 -0.1867
27993W        W41407   5.188  10.825   4.878 -0.1776 -0.2129 -0.4272
27994W        W41408  14.011  15.889  13.938 -0.0533  0.1109 -0.0224
27995W        W41409   1.193   3.803  14.475  0.1542  0.0315 -0.0770
27996W        W41410   9.289  11.352   3.258  0.0660 -0.1629 -0.1621
27997W        W41411   3.249   3.438   0.519 -0.1103  0.0208  0.1646
27998W        W41412   1.604   6.720   4.605 -0.1586  0.2661 -0.0957
27999W        W41413  13.025   5.935   1.602 -0.1568 -0.0877 -0.2314
28000W        W41414  16.903  15.701  14.312  0.0899  0.2033  0.1500
28001W        W41415  13.609  12.812   5.606  0.0086 -0.0293  0.1537
28002W        W41416  15.081  18.130  15.473  0.4684 -0.4167  0.0674
28003W        W41417   2.651   6.835   4.045 -0.3278 -0.0943  0.1583
28004W        W41418  10.396  12.117   6.044  0.2300  0.0611  0.2642
28005W        W41419   2.356   2.043  15.156 -0.1592 -0.1664 -0.0989
28006W        W41420   2.777  14.919   1.397  0.2553 -0.3820  0.1009
28007W        W41421  14.515  11.506  16.125 -0.3751 -0.2554  0.0194
28008W        W41422   3.036  12.073   3.655 -0.1762  0.0694 -0.3887
28009W        W41423  16.900   6.793  10.476  0.0571  0.2216  0.0378
28010W        W41424  11.969  10.009  13.488  0.1316  0.3125  0.2305
28011W        W41425  10.292  12.484   4.439 -0.0061 -0.3189  0.2650
28012W        W41426   1.073  16.153   5.228 -0.1887 -0.1967  0.0144
28013W        W41427   2.146   9.325  16.115 -0.0790  0.1202 -0.1617
28014W        W41428  16.629  15.952  16.152  0.0666  0.0681  0.1914
28015W        W41429  16.676   3.571   2.162 -0.0697 -0.1041 -0.0316
28016W        W41430   7.682  12.683  14.165 -0.1566  0.0659 -0.0297
28017W        W41431  17.886   9.541   4.966  0.2484 -0.1169  0.1118
28018W        W41432   6.539   5.033   4.190  0.0010  0.0400 -0.1654
28019W        W41433   8.277   3.957  15.854 -0.0306 -0.2507  0.1238
28020W        W41434  15.956   2.765   2.703 -0.0385 -0.2499 -0.1113
28021W        W41435   7.004  16.574  14.375 -0.1538 -0.1985  0.0169
28022W        W41436  15.678   8.856   4.786  0.1667  0.0721 -0.2783
28023W        W41437   4.849  13.236  13.922 -0.2876  0.2125  0.1052
28024W        W41438  15.335   5.734   1.606  0.0104  0.0079  0.3733
28025W        W41439   7.992  13.823   5.595  0.0055  0.1861  0.1319
28026W        W41440  11.845  11.824  13.301  0.2168  0.1738 -0.0510
28027W        W41441   9.071   3.387   2.873  0.2407  0.2423  0.2972
28028W        W41442  17.258   2.157  13.049 -0.2566  0.0746 -0.1611
28029W        W41443   6.368   9.504  11.300  0.1931  0.1315 -0.2158
28030W        W41444  16.979  10.894   0.927 -0.0164  0.2737 -0.0589
28031W        W41445  15.425   8.416  11.486  0.1315 -0.1512  0.1257
28032W        W41446  12.594  14.625   6.298  0.2996 -0.0560  0.4146
28033W        W41447   3.788  10.785   2.638  0.1110  0.1254  0.4590
28034W        W41448  12.009  15.185   1.919 -0.2613  0.3112 -0.1457
28035W        W41449   7.178   0.486  12.452  0.0499 -0.2289 -0.1076
28036W        W41450  16.387  12.816  15.670  0.0734 -0.5745  0.0718
28037W        W41451   5.912  11.486   2.350  0.1711  0.0124  0.0225
28038W        W41452   6.757  15.459   0.554 -0.2689 -0.2943 -0.3011
28039W        W41453   1.871  15.457   0.425 -0.0435 -0.0147  0.0887
28040W        W41454   8.874  10.788   2.486  0.0383  0.2104 -0.1031
28041W        W41455   6.458  13.411   0.615 -0.0114  0.0199 -0.0610
28042W        W41456  13.425  14.465  14.715  0.1098 -0.1597  0.0427
28043W        W41457  10.719   8.489   4.036 -0.2007 -0.1688  0.2929
28044W        W41458  10.913  17.912   5.587 -0.1205 -0.3658  0.5326
28045W        W41459  18.003   1.296   4.576  0.1034  0.2955 -0.0501
28046W        W41460   2.015  14.283  12.423  0.0565  0.1919 -0.1707
28047W        W41461  12.967   6.134  12.699  0.0865  0.1764  0.2653
28048W        W41462  11.917  18.265   0.591  0.2536 -0.0598 -0.2208
28049W        W41463  13.465  17.666  14.586 -0.0768  0.0130  0.1921
28050W        W41464  10.924  13.750   2.929 -0.1339  0.0068 -0.2111
28051W        W41465  15.492   1.350   2.184 -0.0912 -0.1548  0.0460
28052W        W41466   6.725   5.645   2.097 -0.1003  0.0933  0.1467
28053W        W41467   6.228  17.282  15.157  0.1550 -0.0788 -0.2233
28054W        W41468   8.235   5.216   3.138  0.0527  0.1095  0.1496
28055W        W41469   6.033   4.429  11.906  0.0553  0.2033  0.0234
28056W        W41470   0.357   1.926   1.299 -0.0014 -0.1402 -0.3517
28057W        W41471  12.573  14.480  14.639  0.0264  0.2873  0.1028
28058W        W41472  14.017  17.168   6.002 -0.2542  0.2109  0.0131
28059W        W41473  10.773   2.921   4.963  0.1799 -0.1065  0.1685
28060W        W41474  14.391  17.320  12.832  0.4913  0.1270 -0.1347
28061W        W41475   5.501  17.150  14.885 -0.0172  0.1635  0.1224
28062W        W41476  12.245   8.775  14.448  0.0108  0.3329 -0.1618
28063W        W41477   1.446  16.944   0.923  0.3686 -0.1060 -0.1153
28064W        W41478  14.625  16.586   2.263  0.3385  0.0309 -0.1992
28065W        W41479   9.683   9.453   2.061  0.0120 -0.1253  0.0135
28066W        W41480   7.104  16.812   3.211  0.0233 -0.0915  0.1081
28067W        W41481   4.698   5.167   0.703 -0.0791  0.2158 -0.0316
28068W        W41482  10.635  14.583   4.926  0.0488  0.0854  0.0836
28069W        W41483   7.726   0.149   2.412 -0.0517 -0.0412  0.2526
28070W        W41484  10.098   3.080  15.827 -0.0623 -0.1232  0.0887
28071W        W41485  13.482  18.046  11.590  0.2744 -0.3440 -0.1205
28072W        W41486   8.720   2.894   1.437 -0.1967 -0.0977 -0.0428
28073W        W41487   8.982  14.772  13.558 -0.0743  0.0888 -0.2379
28074W        W41488  13.150  11.094  14.693 -0.0864  0.2294  0.2671
28075W        W41489   9.691  10.406  15.936 -0.2835 -0.0130 -0.0881
28076W        W41490   7.893  11.383   1.508 -0.1213  0.2938 -0.0450
28077W        W41491   8.044   5.706  12.435  0.0911  0.1026 -0.1467
28078W        W41492   5.493  13.952   1.326 -0.0898  0.1621 -0.2972
28079W        W41493  13.572   6.831   2.933  0.0833 -0.1823 -0.0438
28080W        W41494  15.985   2.028  16.166  0.1849  0.2336  0.0826
28081W        W41495  12.413   3.339  11.306 -0.0227 -0.0038  0.2472
28082W        W41496   2.730   8.539  10.305 -0.3404 -0.2157  0.5115
28083W        W41497   3.090  10.676  14.154 -0.0520  0.0158  0.2096
28084W        W41498   6.278   7.921  12.641  0.1356 -0.3373 -0.2114
28085W        W41499  11.208   0.529   2.042 -0.1131  0.5925 -0.0798
28086W        W41500   9.548  14.676  13.667  0.1149 -0.2390  0.1556
28087W        W41501   3.444  14.876  16.437  0.0644 -0.0152  0.1066
28088W        W41502  17.370  13.596   1.388 -0.0584 -0.3123  0.0488
28089W        W41503   9.605   1.249   1.354  0.1409  0.0867 -0.3964
28090W        W41504  16.161   1.923   0.269  0.3827  0.0226 -0.2705
28091W        W41505   3.226   2.621   1.760  0.0484 -0.0689 -0.3855
28092W        W41506  14.974   4.526   2.264 -0.3899  0.2834 -0.1128
28093W        W41507   7.155   7.404   4.247 -0.1979  0.5791 -0.0536
28094W        W41508  12.021  11.373   2.731  0.0991  0.1505 -0.2007
28095W        W41509  17.347  17.009  14.595  0.3485 -0.0512 -0.0915
28096W        W41510  16.443   0.717   2.370  0.0131  0.2669 -0.1393
28097W        W41511  17.242   2.638   3.040  0.1701 -0.0146  0.2164
28098W        W41512  15.945   2.414   3.001 -0.2199 -0.1718  0.1255
28099W        W41513  12.150   8.394  11.645 -0.0967  0.0727  0.0788
28100W        W41514   3.900   3.276   2.953 -0.0602  0.0009  0.2916
28101W        W41515  11.925   0.091   6.827 -0.0971 -0.1050 -0.0179
28102W        W41516   9.824   8.029  10.596  0.2178  0.0634 -0.2573
28103W        W41517  10.186  15.457   6.337 -0.1265  0.1462  0.1920
28104W        W41518  14.180   9.712  13.089 -0.0275 -0.0060  0.1646
28105W        W41519  12.583  17.648   3.363  0.0535  0.0268  0.0639
28106W        W41520  15.393   2.447  10.924 -0.1241 -0.1143 -0.0019
28107W        W41521   8.597  10.343  14.429 -0.0647 -0.1827 -0.0601
28108W        W41522  11.058   4.287  10.887  0.0093 -0.4108 -0.1537
28109W        W41523  14.454  14.099  12.175 -0.1093 -0.1179  0.2297
28110W        W41524  15.906  11.621   4.413 -0.0323 -0.1578 -0.0224
28111W        W41525   5.323  17.640  11.317 -0.0234  0.0339 -0.0344
28112W        W41526  14.686   9.401   1.446  0.3584 -0.1208 -0.1092
28113W        W41527   7.285  14.684   4.834 -0.0834 -0.1593 -0.2775
28114W        W41528   8.889   9.940  11.514 -0.0091 -0.0372 -0.3038
28115W        W41529   6.077   5.608  10.235 -0.4776  0.0707 -0.0725
28116W        W41530   0.493   4.547  14.320  0.0160 -0.1976 -0.0695
28117W        W41531  11.360   3.079   5.762  0.2145  0.2156  0.1537
28118W        W41532  10.706  13.277   0.453  0.0335 -0.0123  0.0982
28119W        W41533   0.024  10.475  10.857  0.0683  0.1822  0.0748
28120W        W41534  15.711   3.678  15.466  0.4073  0.1218 -0.1060
28121W        W41535  13.738   6.918  10.856  0.0692 -0.1340  0.2896
28122W        W41536   4.405   3.926  12.629  0.0646  0.0036  0.2755
28123W        W41537  17.471   2.762  12.788 -0.1198 -0.0601 -0.2518
28124W        W41538  10.249   6.777   4.823 -0.0786  0.1886 -0.1880
28125W        W41539   9.430   0.439  15.795 -0.1169  0.1782  0.2112
28126W        W41540   4.043   2.901   4.348  0.1265  0.1193 -0.3026
28127W        W41541   0.303  15.652   2.151  0.0802 -0.0563 -0.1114
28128W        W41542  18.017   8.072  14.159  0.1225  0.1751 -0.0836
28129W        W41543   8.487   0.813   4.951 -0.0787 -0.2086 -0.0223
28130W        W41544   2.512   5.522  14.336  0.0972  0.0431 -0.0663
28131W        W41545   3.753   5.360   2.369  0.2290 -0.5608 -0.1298
28132W        W41546  13.169  11.961  12.118  0.1863 -0.0198  0.2243
28133W        W41547   5.594   0.409   1.090 -0.3166  0.1784  0.1866
28134W        W41548  16.671  17.181   1.042 -0.2238 -0.0303 -0.0772
28135W        W41549   6.115   3.267  16.361 -0.1538 -0.3404  0.2047
28136W        W41550  13.029   8.407  15.344 -0.3024  0.4290  0.1728
28137W        W41551   0.572   0.576  14.663 -0.1752 -0.1490 -0.0047
28138W        W41552   9.796   1.695   3.188  0.0677  0.1437  0.1472
28139W        W41553   8.419  10.138  10.706 -0.1649  0.1852 -0.0053
28140W        W41554   7.789  16.864   2.525 -0.2113  0.0152  0.0154
28141W        W41555  11.254   0.984  13.983  0.2223  0.0101  0.2708
28142W        W41556  14.253  16.329   4.738 -0.0264  0.1784 -0.2631
28143W        W41557   0.161  10.258   3.193  0.0491  0.0371 -0.1095
28144W        W41558  16.084  17.598  13.684 -0.0000 -0.2345 -0.1452
28145W        W41559   1.993   8.542   9.986  0.2433  0.1252 -0.1690
28146W        W41560  16.644   4.986   3.116 -0.1050 -0.0397  0.0142
28147W        W41561  10.684   5.296   1.839 -0.3021  0.1230 -0.0925
28148W        W41562   2.627  10.088  15.896  0.2261  0.1432  0.1593
28149W        W41563  15.963   9.815   3.521 -0.3296  0.3535  0.0144
28150W        W41564   4.003   9.211  10.724  0.2724 -0.3007  0.0426
28151W        W41565  14.316   0.877  13.993 -0.1756 -0.1630  0.0752
28152W        W41566   7.247  11.623  15.607  0.1698  0.1820 -0.0561
28153W        W41567   7.006  10.757  12.091 -0.0236  0.4487 -0.0240
28154W        W41568   2.533   7.777   4.404  0.0724  0.0231 -0.0365
28155W        W41569   1.101  18.083   5.213 -0.1368 -0.0985 -0.1494
28156W        W41570  14.737   4.624   3.338 -0.0730  0.0602  0.2265
28157W        W41571  11.064   9.407   9.798 -0.1703 -0.1018  0.1095
28158W        W41572   0.124   8.705  16.138  0.0312 -0.0963 -0.1139
28159W        W41573  10.233  14.583  14.342 -0.0520  0.0151  0.1870
28160W        W41574   4.682  15.607  13.590 -0.1223  0.0452  0.4001
28161W        W41575  17.109  13.300   2.403  0.1594  0.1743 -0.0188
28162W        W41576   4.326   1.622  11.977 -0.0257 -0.0280 -0.2656
28163W        W41577   7.115   3.418   5.208  0.0109 -0.0473 -0.4318
28164W        W41578   8.256  12.833   3.201 -0.3041  0.0760 -0.3003
28165W        W41579  18.172   9.564  11.508 -0.2784  0.1774  0.0243
28166W        W41580   9.420   3.074   2.750 -0.2944 -0.0283  0.1604
28167W        W41581   7.325   9.956  14.874 -0.0121 -0.3321 -0.1414
28168W        W41582   8.391  11.538  13.163  0.1812 -0.1094 -0.3002
28169W        W41583  14.690  12.842  14.195  0.3715  0.0971 -0.0462
28170W        W41584   3.452   8.366  15.155 -0.0916  0.0540  0.0511
28171W        W41585   1.543  14.958   0.251  0.4446  0.1113 -0.2526
28172W        W41586  14.291  13.184  13.838  0.0573 -0.2323 -0.2415
28173W        W41587   8.536   3.486  11.236 -0.3010 -0.0021 -0.2950
28174W        W41588   0.287  16.589   5.849  0.1167  0.0625 -0.3094
28175W        W41589   6.982   0.900   5.927 -0.1176  0.0740  0.0749
28176W        W41590  13.383   2.962  13.288 -0.2670 -0.4765  0.0188
28177W        W41591  15.343   4.083  10.578  0.0077 -0.2824  0.0208
28178W        W41592   6.430   7.365   5.662  0.0449  0.2039  0.0140
28179W        W41593  11.110   8.470  12.756 -0.3904  0.1298 -0.0283
28180W        W41594   2.218  18.095   3.901 -0.3433  0.4745  0.1081
28181W        W41595   3.575   3.735   5.624 -0.3897  0.0184  0.0220
28182W        W41596  15.551   0.965   9.803  0.2449  0.2600  0.0197
28183W        W41597   3.775   6.751  13.604 -0.2084  0.2026 -0.0457
28184W        W41598   4.140  17.020  11.031  0.3253 -0.1394  0.1801
28185W        W41599  12.770   2.552   1.704  0.1545 -0.1372  0.2832
28186W        W41600  12.822   1.807  12.342 -0.2204 -0.0506 -0.0464
28187W        W41601   7.399  14.084  16.302  0.1571  0.1605 -0.0835
28188W        W41602   0.222   0.805  14.357 -0.2963 -0.0467  0.0470
28189W        W41603   0.634   9.519  13.420 -0.0241  0.0784 -0.6123
28190W        W41604   0.017  10.968   0.679 -0.0778  0.1536  0.0359
28191W        W41605   0.344  12.234   1.782  0.0862  0.1237 -0.1587
28192W        W41606   9.311  14.881   3.562 -0.4085  0.1085  0.0621
28193W        W41607  10.134  17.611   5.142 -0.0844 -0.2320  0.0453
28194W        W41608  14.892   6.866  11.522 -0.1862  0.1955 -0.0430
28195W        W41609   5.057   0.811  15.566 -0.1198  0.2847  0.1807
28196W        W41610  13.308   5.352   4.711 -0.2142 -0.2184 -0.0499
28197W        W41611  14.706  10.984   4.730  0.0380 -0.3804 -0.1371
28198W        W41612   1.475   7.582   1.616 -0.0165 -0.0468 -0.0864
28199W        W41613   5.928   3.791  11.461 -0.0248 -0.1547 -0.0344
28200W        W41614  18.211   5.385   0.923  0.2406 -0.2024  0.3289
28201W        W41615  11.539   5.266   4.066 -0.2263  0.5127 -0.0356
28202W        W41616   5.115  11.845   2.612 -0.2449 -0.1168  0.0952
28203W        W41617  10.391  10.557   5.052  0.0595 -0.3727  0.0855
28204W        W41618  12.965  13.382   4.371 -0.1595  0.2353 -0.0974
28205W        W41619   7.868   5.174   1.887  0.2134  0.1616  0.1002
28206W        W41620  11.497   0.165   1.346  0.0687  0.3862  0.0912
28207W        W41621   9.431   2.377   2.043  0.2230  0.0619  0.1138
28208W        W41622  16.927  14.051   4.856  0.3383 -0.2757 -0.0257
28209W        W41623  17.512   1.414  12.447  0.0407  0.2191 -0.2998
28210W        W41624  15.470  14.863   5.659 -0.4120  0.1409  0.0462
28211W        W41625  15.119   8.062  10.695 -0.2769 -0.0654 -0.0756
28212W        W41626  13.797  15.906   2.941  0.0340  0.1953  0.0120
28213W        W41627   6.703   3.395   1.124  0.0892 -0.2285 -0.2840
28214W        W41628   1.696   0.852   5.345 -0.0013 -0.1272 -0.1210
28215W        W41629  11.145  15.407   5.230  0.0303 -0.0392  0.2677
28216W        W41630  14.467   3.430  10.634 -0.1614  0.0143  0.3288
28217W        W41631  13.917   7.327  11.866 -0.0068  0.2165  0.0140
28218W        W41632   1.843   4.345  15.598  0.0903 -0.4043  0.2046
28219W        W41633   2.128   9.765   2.894 -0.0774  0.2533  0.0083
28220W        W41634   3.471   8.024   3.891  0.0835 -0.0209  0.0448
28221W        W41635  14.895   6.192  14.001 -0.2793 -0.2107  0.0862
28222W        W41636  11.333  12.469   3.557  0.2955  0.2001  0.3712
28223W        W41637  17.832   7.515  12.213 -0.4056  0.0742 -0.0170
28224W        W41638  14.238   2.359   0.974 -0.3272 -0.0504  0.2763
28225W        W41639   1.442  11.505  11.810 -0.0061  0.1021  0.1056
28226W        W41640   6.510  10.780   0.518  0.2070 -0.0951 -0.1224
28227W        W41641   1.609   1.029  15.462  0.0943 -0.0507  0.0905
28228W        W41642  14.441   5.612   2.469  0.2613  0.0138  0.0322
28229W        W41643   2.180  10.206   5.648  0.0852  0.0104  0.0022
28230W        W41644   7.679   6.969  11.006  0.1991 -0.1483 -0.0247
28231W        W41645  11.903  14.389   1.573  0.3805 -0.0501  0.1542
28232W        W41646  15.297  13.405  14.019  0.0030 -0.4450  0.2603
28233W        W41647   3.250   5.565   4.431  0.1566 -0.1780 -0.1236
28234W        W41648   2.744   6.748  16.320 -0.2039 -0.3560  0.1450
28235W        W41649  11.883   3.999  12.506  0.0435 -0.0383 -0.0937
28236W        W41650   5.350   9.376   1.837 -0.0245  0.0685 -0.1182
28237W        W41651  11.886   8.768  15.822 -0.0001 -0.1097 -0.1774
28238W        W41652   9.755   5.012   3.630 -0.0596 -0.3913  0.1474
28239W        W41653   6.108  15.680   2.772  0.2802  0.0609 -0.1421
28240W        W41654   5.815   3.628  10.260  0.2031 -0.0976 -0.3807
28241W        W41655   6.057   8.720  11.270  0.0306 -0.0393 -0.0894
28242W        W41656  17.852  15.289   3.349  0.1084  0.0733 -0.2053
28243W        W41657   2.686   1.246  15.375  0.1369 -0.1481  0.1960
28244W        W41658   2.691  17.190   2.581 -0.0312  0.1508 -0.2704
28245W        W41659   0.897   6.421  13.101  0.2161  0.1114  0.2122
28246W        W41660   4.979  10.366  12.242 -0.2137 -0.1133 -0.0777
28247W        W41661  17.857   6.630  14.291  0.1713  0.0072  0.0420
28248W        W41662   8.518   3.004  11.084  0.0701 -0.2224  0.0876
28249W        W41663  16.723   9.325  13.383  0.0091  0.1748  0.0955
28250W        W41664   3.208  17.608   5.200  0.1551  0.1373 -0.0181
28251W        W41665   4.265  12.574   5.316 -0.3976 -0.0077 -0.2533
28252W        W41666  17.256   0.597   1.480 -0.1422  0.2781  0.0118
28253W        W41667  13.171  14.555  11.382 -0.2167 -0.5539 -0.2105
28254W        W41668  14.814   1.445  14.900  0.2196  0.0490  0.0558
28255W        W41669   1.922  15.143  13.127 -0.1324  0.0662  0.2426
28256W        W41670   0.535  12.645   1.958  0.1474  0.0705 -0.2020
28257W        W41671  10.453   8.443  11.614 -0.1757 -0.0720 -0.0304
28258W        W41672   0.103   9.944   2.256 -0.0066  0.1941 -0.0820
28259W        W41673  13.340  17.715   2.664 -0.0422  0.1744 -0.1648
28260W        W41674   5.527  17.328  10.945 -0.0811  0.0960 -0.2925
28261W        W41675   8.869   9.773   0.517  0.3065  0.0506  0.2029
28262W        W41676   6.884   2.646  11.675  0.1788 -0.2434  0.2494
28263W        W41677   2.489  11.917   3.833 -0.1787  0.0296 -0.1302
28264W        W41678   6.055   0.594  13.621  0.0064  0.2665  0.0097
28265W        W41679  17.581  14.226  14.620  0.1415 -0.2328 -0.2426
28266W        W41680   9.527  10.722   1.176 -0.0979 -0.0677 -0.0394
28267W        W41681   8.068   3.802   0.119 -0.1771  0.0108  0.1698
28268W        W41682  17.372  15.506  14.143  0.0054  0.0851  0.4351
28269W        W41683   8.947   0.405   1.918 -0.0846 -0.3477 -0.1055
28270W        W41684   1.925  17.881  10.334  0.2256  0.0624  0.1804
28271W        W41685  18.262   3.676  10.917  0.2567  0.0657 -0.1698
28272W        W41686   4.745  15.020   1.272  0.4193 -0.0806 -0.0729
28273W        W41687   0.812   6.492   5.748 -0.0413  0.0716 -0.1262
28274W        W41688  13.999  13.316   4.446 -0.0401 -0.1221  0.1305
28275W        W41689  17.451  15.824   5.290 -0.0556 -0.4541 -0.0236
28276W        W41690  15.586   0.582  15.577 -0.0074  0.0193 -0.3374
28277W        W41691  12.194   1.811  15.558 -0.1723 -0.1674  0.1204
28278W        W41692  13.906   2.624  10.696  0.0941 -0.1588 -0.1110
28279W        W41693   4.107   2.284   1.904  0.1830 -0.2630 -0.0705
28280W        W41694   3.789  11.032  11.001  0.0886  0.0922  0.0925
28281W        W41695   5.845  15.758  14.798  0.1035 -0.0814 -0.5121
28282W        W41696  13.781  15.732  13.546 -0.0491 -0.0530  0.1057
28283W        W41697  10.618  13.712  14.512 -0.1568 -0.2135 -0.1233
28284W        W41698   5.768  14.060  12.439  0.3787 -0.2277 -0.0884
28285W        W41699   5.354   5.924   3.375  0.2633 -0.1558  0.0991
28286W        W41700   4.326   8.070  11.944  0.0065 -0.2559  0.0709
28287W        W41701  15.299  12.581   2.659 -0.0870  0.2813  0.2097
28288W        W41702   0.657  16.102  12.467  0.1475 -0.0802  0.0211
28289W        W41703   4.322  15.904  11.851  0.0971  0.1559 -0.1713
28290W        W41704   9.166   3.158  12.894 -0.3194 -0.0561  0.1708
28291W        W41705  10.379   6.522  14.790 -0.2721  0.3239 -0.0970
28292W        W41706   1.139   3.095   4.379 -0.1128  0.1445  0.2005
28293W        W41707  10.673  12.888  14.063 -0.0220  0.1364  0.1300
28294W        W41708   4.908  11.355  15.913  0.1752  0.1379 -0.4533
28295W        W41709   0.706   7.141   0.970  0.0505  0.1532  0.0899
28296W        W41710   7.726   9.176  12.223 -0.1021  0.0660 -0.3168
28297W        W41711  13.915   2.337   3.574  0.0030  0.1685 -0.0814
28298W        W41712  11.097   2.280   4.208 -0.0089  0.0899  0.1257
28299W        W41713   9.221  12.320   4.775 -0.3495 -0.1214  0.2971
28300W        W41714   0.187   1.791   0.835  0.0494  0.1347 -0.1042
28301W        W41715  10.368   5.522   0.052  0.0952  0.0217 -0.0230
28302W        W41716  17.091   5.858   0.830 -0.1279 -0.0180 -0.3338
28303W        W41717  16.118   6.304  13.413 -0.0084 -0.1086 -0.0222
28304W        W41718   6.248   1.351  11.158  0.2703  0.0657 -0.0195
28305W        W41719  17.790   9.012  13.644 -0.1821 -0.0184  0.0246
28306W        W41720   5.882   3.743   2.625  0.0762  0.1434  0.0145
28307W        W41721  13.160  18.143  15.269 -0.4738 -0.1119 -0.1165
28308W        W41722   9.891  14.577   3.224 -0.0690  0.0086 -0.1839
28309W        W41723   1.056   9.698  13.660 -0.2880  0.0853  0.4386
28310W        W41724   6.155  11.932   2.161  0.1176 -0.1513  0.0802
28311W        W41725  18.065  14.138   0.058 -0.0483  0.0966 -0.1051
28312W        W41726  11.999   5.005  16.501  0.3394 -0.2505 -0.0319
28313W        W41727  16.099  13.351  11.060 -0.1424 -0.0819  0.0098
28314W        W41728   5.881   0.878   1.523  0.1600  0.1548  0.1176
28315W        W41729   1.598   5.763   4.614 -0.1788 -0.4187  0.0312
28316W        W41730  17.628   2.788   3.881 -0.1110  0.0758  0.1990
28317W        W41731   8.191  18.270  12.723  0.2495 -0.0215  0.0044
28318W        W41732   6.458  15.460   1.346 -0.1608  0.1274  0.0538
28319W        W41733   9.874  16.649   2.249 -0.2103  0.1776  0.0343
28320W        W41734   6.334   4.793  12.099  0.3521  0.0561 -0.1314
28321W        W41735  14.058   7.994   2.832  0.2109  0.4812 -0.2228
28322W        W41736  17.974   7.416   9.780  0.2479 -0.1392 -0.0552
28323W        W41737   1.999   0.678   2.014  0.1669  0.1254 -0.0381
28324W        W41738  17.228  12.350   3.536 -0.3614  0.0144 -0.1552
28325W        W41739  14.414   9.824  15.369  0.2821  0.1501  0.3097
28326W        W41740   0.914   3.089  16.484 -0.2695  0.1984  0.0368
28327W        W41741  13.164  10.037  14.701  0.3483  0.1047 -0.0500
28328W        W41742  12.749  11.994  14.776 -0.3341 -0.3952 -0.1859
28329W        W41743   7.472  12.337   2.050  0.2569  0.1411 -0.0740
28330W        W41744   3.773  12.291  11.760 -0.2215  0.1116  0.0758
28331W        W41745   7.436   9.317   5.848  0.2320  0.3141 -0.0834
28332W        W41746   8.423  10.997  15.677 -0.1174  0.1661 -0.1192
28333W        W41747  11.576  16.621  13.287  0.1887 -0.1077 -0.1686
28334W        W41748  14.321   0.151   0.997 -0.2366 -0.0215  0.1521
28335W        W41749  14.315  14.448  14.101  0.3883 -0.0389 -0.1098
28336W        W41750  11.501  14.284   3.812 -0.1203  0.2005 -0.0115
28337W        W41751  12.936  15.932  16.234  0.1309 -0.2658  0.1661
28338W        W41752   3.208   3.138  15.650  0.1222 -0.0522  0.0068
28339W        W41753   4.552  13.015  13.415 -0.3129 -0.1978  0.0857
28340W        W41754   1.731   5.394  11.161 -0.0148  0.1398 -0.4460
28341W        W41755   9.519   3.603   5.855  0.1478  0.1315  0.1348
28342W        W41756   4.491   3.572  14.511 -0.3065 -0.1875  0.1856
28343W        W41757   9.379   2.011  10.783  0.1760  0.4027  0.1460
28344W        W41758   5.492  12.440  12.077  0.1666 -0.2499 -0.0023
28345W        W41759  17.213  17.965  15.572  0.1472 -0.2533  0.0781
28346W        W41760  18.037  14.880  14.057  0.0136  0.0462 -0.0014
28347W        W41761   8.396   6.156   5.800  0.1244  0.1162 -0.0252
28348W        W41762  11.981   3.509  14.873  0.2864  0.0266  0.1358
28349W        W41763   1.099   9.608  11.796  0.1738  0.1597 -0.1506
28350W        W41764  17.290   2.178   3.278  0.3531 -0.3831  0.2067
28351W        W41765  17.138  17.966   2.443  0.0650  0.1283 -0.1226
28352W        W41766  14.206   2.342  15.719 -0.1834  0.1515  0.1176
28353W        W41767   0.384   1.052   0.383 -0.3057 -0.0466 -0.0891
28354W        W41768  17.382  14.800   1.655 -0.0794  0.2552  0.0027
28355W        W41769   8.747  17.633  13.901 -0.0405  0.0224  0.1201
28356W        W41770  17.473   4.282  12.021  0.1088 -0.0650  0.4444
28357W        W41771  16.036  10.228   2.613  0.2584  0.3201  0.1409
28358W        W41772  12.334   3.898  16.437  0.2607  0.0720  0.0216
28359W        W41773   3.861   1.523  11.835  0.0885  0.0711  0.0355
28360W        W41774   6.963   2.083  15.057 -0.2184 -0.3720 -0.0938
28361W        W41775  10.812  16.158  13.141  0.0555 -0.0084  0.0615
28362W        W41776  14.068   6.569  15.555  0.2045 -0.4722 -0.0668
28363W        W41777   7.452   6.401  14.183 -0.2051  0.1360 -0.0860
28364W        W41778  15.250  12.367  14.232 -0.1438 -0.0985 -0.0604
28365W        W41779  16.548   1.183  11.367  0.0773 -0.1345 -0.5200
28366W        W41780   8.452  10.955  11.931 -0.0387 -0.0077 -0.3365
28367W        W41781  17.883  17.728   2.831 -0.0679 -0.0427  0.1038
28368W        W41782   3.048   6.800  10.709  0.0449 -0.0794  0.0283
28369W        W41783   2.657  12.133   2.834  0.1828 -0.0728  0.2508
28370W        W41784  17.441  13.419  11.151  0.0725  0.0173 -0.0341
28371W        W41785  14.503  16.740   0.130 -0.3695 -0.1606  0.0452
28372W        W41786   5.886   4.672  11.010 -0.0902  0.1632  0.1186
28373W        W41787  16.182   8.334   2.768 -0.2893  0.1779 -0.2024
28374W        W41788   9.224  17.955  12.899  0.1945 -0.0449  0.1872
28375W        W41789  12.027  17.498  12.275  0.0205 -0.0633 -0.1411
28376W        W41790   9.001  15.646  12.578  0.4981  0.0606  0.0024
28377W        W41791  15.120   9.787   4.568 -0.2918 -0.2611 -0.0290
28378W        W41792  13.084   1.583   4.769 -0.0345  0.1400  0.0021
28379W        W41793   0.235  16.602  15.835  0.1884 -0.0612  0.1905
28380W        W41794  12.519  15.654   1.706 -0.0674  0.1597  0.1328
28381W        W41795  13.814  12.344  12.590 -0.0197 -0.1918  0.1032
28382W        W41796   1.235  16.797  14.917 -0.2568 -0.0095 -0.1343
28383W        W41797   5.028   7.994  12.496 -0.0383  0.0581  0.0166
28384W        W41798   3.312   0.146   4.702 -0.0000 -0.2369 -0.1021
28385W        W41799   0.466   1.586   3.214 -0.3180 -0.1970  0.0238
28386W        W41800   7.521   4.100   1.003  0.1909 -0.0966 -0.3005
28387W        W41801   3.224   1.942   0.576 -0.1830  0.1068 -0.1021
28388W        W41802  18.205  11.123  11.727  0.1742  0.3333  0.2916
28389W        W41803  15.258   4.728   3.312  0.2202  0.0949  0.1738
28390W        W41804   4.784  10.825  12.378 -0.0106 -0.0244  0.2171
28391W        W41805   9.086   8.237  15.265  0.0245  0.2679 -0.4112
28392W        W41806  12.759   2.466   3.544 -0.0089 -0.1448 -0.1039
28393W        W41807  13.443   7.669   2.224  0.1796 -0.0029  0.0331
28394W        W41808   6.586   4.253  14.470 -0.1654 -0.2951 -0.1824
28395W        W41809   9.503  15.863  16.424 -0.2184  0.1184 -0.0252
28396W        W41810  15.335  16.017   4.039  0.2802  0.3391 -0.3440
28397W        W41811   9.499   4.982  13.030  0.0965 -0.0434  0.1172
28398W        W41812   1.377  11.790  13.329  0.3011 -0.0207  0.1334
28399W        W41813  13.405  14.544  12.474 -0.2394 -0.0396  0.1201
28400W        W41814  13.714   9.070  11.791  0.0156  0.3179 -0.0596
28401W        W41815   5.433   7.884   4.870 -0.0960  0.0105  0.0951
28402W        W41816   7.554  13.815   4.559  0.1191 -0.0789  0.1799
28403W        W41817   2.904   4.146   2.905  0.4035 -0.1232  0.3353
28404W        W41818   7.735  14.399   3.249  0.2460  0.0817  0.1336
28405W        W41819   5.045   8.379  15.962 -0.0022 -0.1644 -0.0307
28406W        W41820  14.662  11.849  12.261 -0.5120 -0.4128  0.1065
28407W        W41821  14.594  11.918   4.429 -0.0660  0.1392  0.0328
28408W        W41822   2.497   1.477   2.230 -0.1347  0.2791 -0.0424
28409W        W41823   2.888  17.859   3.746 -0.1655 -0.0707 -0.1302
28410W        W41824   7.098  10.092   6.171 -0.0364  0.1912  0.3806
28411W        W41825   7.641   8.054  11.809 -0.0489  0.2138  0.0622
28412W        W41826  10.127  18.002  13.680  0.1527 -0.1226 -0.1562
28413W        W41827  17.833  17.737   4.952  0.0282  0.1404  0.0641
28414W        W41828  13.568   9.088  11.194  0.0276  0.1916  0.1393
28415W        W41829   4.540  13.922  15.892  0.7187 -0.1314  0.1238
28416W        W41830   4.917  11.055  13.310 -0.1568 -0.1427  0.3337
28417W        W41831  18.053   1.954  15.286  0.1458  0.0618 -0.0672
28418W        W41832  10.556  12.578   0.838  0.0374 -0.2006 -0.1799
28419W        W41833   5.241  15.777  12.849 -0.2265  0.1745  0.1316
28420W        W41834  12.871  11.114   5.219  0.3575  0.1793 -0.2165
28421W        W41835  10.289  15.957   1.915 -0.2366 -0.0500 -0.0772
28422W        W41836  15.977  14.194  15.109  0.3104  0.0130  0.2409
28423W        W41837   4.826  13.874   1.312  0.2117 -0.0452  0.3614
28424W        W41838   0.332  11.184  12.562 -0.0869 -0.1342 -0.1048
28425W        W41839   6.428   7.198  14.905 -0.0958 -0.3839 -0.0376
28426W        W41840   5.926   1.144   4.661 -0.0226  0.0992  0.0363
28427W        W41841   4.402  13.433  12.554  0.0394 -0.2141  0.0648
28428W        W41842  14.733   9.940  15.780 -0.3062  0.2620 -0.3236
28429W        W41843   3.466  10.185   3.387  0.0733  0.0000  0.2177
28430W        W41844  16.093  16.005  11.161 -0.1037  0.0060  0.1019
28431W        W41845   2.402  17.368   6.159 -0.3350 -0.2908 -0.0880
28432W        W41846  17.382   6.711  14.153 -0.0600 -0.0282  0.0750
28433W        W41847  11.339   0.598   4.845  0.1750 -0.1324 -0.0433
28434W        W41848   4.984   4.436   2.553  0.2701 -0.1966  0.2074
28435W        W41849   8.252  16.094   4.829  0.0081  0.3493  0.0451
28436W        W41850   1.981   9.385  13.529 -0.0214  0.2235 -0.2674
28437W        W41851   8.150  11.904  15.353 -0.1761 -0.0354 -0.0841
28438W        W41852   6.615   1.935  16.229 -0.1358 -0.2278 -0.2514
28439W        W41853   9.140  15.124   2.276 -0.1053 -0.0799  0.0278
28440W        W41854   7.738  11.499   2.059 -0.0416 -0.3285  0.0617
28441W        W41855  16.432  10.888  12.600 -0.0953 -0.0705 -0.3741
28442W        W41856   8.618   5.516  10.998  0.4375 -0.1441  0.1435
28443W        W41857   5.582   2.902   6.054 -0.4285 -0.0450  0.4119
28444W        W41858  10.804   7.650  11.448 -0.1375 -0.0628 -0.0630
28445W        W41859   3.847   5.598   0.077  0.1361 -0.1371  0.1010
28446W        W41860   0.330   7.007   1.304 -0.0788  0.2543  0.3190
28447W        W41861  10.230   2.480   3.379 -0.0647 -0.2151  0.0395
28448W        W41862  14.920  12.981  15.659  0.2696  0.0685  0.1400
28449W        W41863  13.833  15.470   4.501 -0.0599 -0.0819  0.3477
28450W        W41864   0.166   4.366  13.022  0.1153 -0.0202  0.2037
28451W        W41865  17.383  10.741  10.269  0.2208  0.0157  0.0605
28452W        W41866   5.253  11.134   3.123 -0.1181  0.1355 -0.2350
28453W        W41867   2.835  17.007   1.581 -0.1536 -0.0949  0.1125
28454W        W41868   6.520   2.522   2.332 -0.3435  0.3134  0.1849
28455W        W41869   4.956   6.966  16.496  0.1631 -0.2430  0.0865
28456W        W41870  12.541   6.155   1.594  0.2160  0.2118  0.0993
28457W        W41871   0.647   7.053   0.296  0.1023  0.0204 -0.1421
28458W        W41872  17.948  18.151   5.329 -0.1204 -0.0788 -0.2768
28459W        W41873   0.867  10.545   3.444  0.0164 -0.1401  0.1001
28460W        W41874  11.461  18.102   6.038  0.0332 -0.0562  0.3312
28461W        W41875   9.655  14.011  10.701  0.0517  0.1392  0.0342
28462W        W41876   7.070   0.630   4.181  0.0035 -0.0339  0.0117
28463W        W41877   2.781  17.707   1.454  0.1631  0.1436  0.1264
28464W        W41878  10.770  12.084  15.665  0.0904 -0.0055 -0.1311
28465W        W41879  16.555   5.080   2.126  0.1616  0.1197 -0.1449
28466W        W41880   0.823   7.692  13.441  0.1358 -0.1703 -0.2504
28467W        W41881   2.407  15.891   2.346  0.0807  0.2294 -0.0728
28468W        W41882  14.572  15.568   3.208 -0.2461 -0.1278 -0.3215
28469W        W41883  17.531   1.892   2.984 -0.0105  0.1329 -0.0467
28470W        W41884   7.614   1.939   0.480 -0.2076 -0.2275 -0.2466
28471W        W41885   3.633  12.696  14.846 -0.2147 -0.1813 -0.0589
28472W        W41886   1.513   1.696   4.512 -0.0367  0.1734 -0.1177
28473W        W41887  10.504  15.523  16.442 -0.0409  0.1311  0.2665
28474W        W41888   3.388   8.443  10.168  0.2876  0.1462 -0.1102
28475W        W41889   4.352  10.610   0.592 -0.0838  0.2696  0.1389
28476W        W41890  11.628   8.165  16.131 -0.0182  0.1916  0.1301
28477W        W41891  14.943  17.087  15.240  0.2927  0.2179  0.1524
28478W        W41892  12.837   4.273   3.942 -0.1837 -0.1291  0.1431
28479W        W41893   7.627   4.544   1.996  0.0755  0.2855 -0.0334
28480W        W41894   0.191   3.708   1.067  0.0172 -0.2667  0.0216
28481W        W41895   3.280   4.359   0.981  0.1063 -0.1164 -0.0956
28482W        W41896  12.830   3.386  16.297 -0.4359 -0.2694  0.0123
28483W        W41897   3.130  18.055  15.582  0.2861 -0.1610 -0.1006
28484W        W41898   4.459   0.265  14.110  0.0973 -0.0483 -0.0631
28485W        W41899  10.213   8.423  11.183  0.1849  0.0113  0.2236
28486W        W41900   5.067  13.004  13.128 -0.3999  0.0978  0.2898
28487W        W41901   6.985   8.991   5.799  0.0647 -0.1326 -0.3723
28488W        W41902   0.688  14.537   5.708  0.2285 -0.0905  0.1789
28489W        W41903  12.009  15.749  16.485  0.1231  0.4830  0.1749
28490W        W41904  13.747   4.188   5.120  0.2180  0.3130  0.0429
28491W        W41905  12.185   1.121  16.290 -0.1106  0.1599  0.1853
28492W        W41906   3.596  12.026  13.430  0.0184 -0.1804 -0.0186
28493W        W41907   8.789   3.163   1.873 -0.0088 -0.5039  0.1558
28494W        W41908   0.616   8.501   5.257 -0.0523 -0.0507 -0.1538
28495W        W41909  11.810  12.655  16.035 -0.0767 -0.0796  0.0050
28496W        W41910   6.106   5.089  10.057 -0.1110 -0.1173  0.0124
28497W        W41911   2.545   3.863  12.081 -0.1752  0.0751  0.1042
28498W        W41912  14.370   5.989  13.947  0.1766  0.0666 -0.1368
28499W        W41913   6.560  14.224   3.724 -0.0484  0.3791 -0.2798
28500W        W41914  17.069   7.145   9.225  0.0244  0.0824  0.1124
28501W        W41915  17.353   7.609   2.135 -0.1413 -0.0986 -0.0481
28502W        W41916  17.022   2.559   3.520 -0.4692 -0.0185  0.0818
28503W        W41917  15.018   3.113   0.618  0.3595  0.1177  0.0508
28504W        W41918  16.477  15.686  12.074  0.0959 -0.3123 -0.0966
28505W        W41919  14.895  16.176   2.824 -0.0729 -0.0087 -0.1689
28506W        W41920  11.690   0.097   4.050  0.0091  0.0791 -0.0021
28507W        W41921  13.750  15.175   5.287  0.1885  0.4110  0.2974
28508W        W41922   8.771  16.809   1.213  0.2568 -0.0236  0.1195
28509W        W41923  14.040   6.204   3.932 -0.2159  0.2743 -0.0820
28510W        W41924  12.028  13.674  11.710  0.2428  0.0918  0.0665
28511W        W41925   6.160   2.953   3.225  0.0551 -0.0890  0.1363
28512W        W41926  11.415  15.005  11.893 -0.3305 -0.3315  0.0060
28513W        W41927   7.683   2.035   2.021 -0.0670 -0.2496  0.0190
28514W        W41928  15.170   2.438  15.896 -0.2081  0.0486 -0.0439
28515W        W41929  10.038   3.621   2.445 -0.1733  0.2423  0.2582
28516W        W41930  16.033   5.081  12.799  0.1512  0.2570 -0.2208
28517W        W41931  11.601  15.758  15.973  0.0155  0.0250 -0.1670
28518W        W41932  10.432  10.684   5.587 -0.1332  0.2553  0.0202
28519W        W41933  14.162  16.265  12.280 -0.0559  0.1134  0.0527
28520W        W41934   5.950   2.049  12.385 -0.0411 -0.0169 -0.0237
28521W        W41935   9.041  10.072  15.499 -0.2273 -0.0531 -0.4173
28522W        W41936   4.113  11.698   5.976  0.1062 -0.4197 -0.1278
28523W        W41937  12.124   1.281  12.194  0.2556  0.0457 -0.1859
28524W        W41938  16.056  13.314  16.403  0.1922 -0.0351 -0.2766
28525W        W41939  12.940   3.186   6.467  0.2430 -0.2559  0.1573
28526W        W41940  15.769  15.831   1.746  0.0596  0.1980 -0.0456
28527W        W41941   7.230   4.357   0.537 -0.0755  0.1699 -0.2330
28528W        W41942  18.165   1.830  12.824 -0.4204 -0.0338 -0.1117
28529W        W41943  11.482   5.761   0.300 -0.1334  0.0346 -0.2284
28530W        W41944   9.627  17.503   2.162 -0.2080 -0.2585  0.1650
28531W        W41945   8.792   5.791   0.506 -0.0649 -0.1062 -0.0174
28532W        W41946   1.033   6.219  16.434 -0.0122  0.0890 -0.0473
28533W        W41947  13.164  16.582   0.454  0.1925 -0.1802  0.0207
28534W        W41948   8.629   4.187  10.528  0.3348  0.1187 -0.1735
28535W        W41949   0.059   7.105   0.252 -0.2496 -0.0893  0.0440
28536W        W41950   3.252   1.794   3.893 -0.0562 -0.2787 -0.0726
28537W        W41951  12.268  17.171  12.598 -0.0561 -0.0748 -0.0273
28538W        W41952   1.846  13.596   6.290 -0.0421  0.3038 -0.1439
28539W        W41953   7.966   6.262  12.232 -0.0532  0.0330  0.0563
28540W        W41954  13.198  17.958   0.704  0.2043 -0.0101  0.0253
28541W        W41955   9.291   0.294   1.586  0.1160 -0.0801 -0.2038
28542W        W41956   1.662   8.141  11.734 -0.0784 -0.0186 -0.1669
28543W        W41957  16.878   1.672   0.629  0.2306 -0.1312 -0.1341
28544W        W41958  16.272  12.599   2.507  0.0740 -0.0673  0.1511
28545W        W41959  10.843  14.800  12.447 -0.1212 -0.2081 -0.1211
28546W        W41960   8.950  16.430   1.760  0.2008  0.0082 -0.2005
28547W        W41961  13.028  11.443  10.932 -0.1272  0.0630 -0.0581
28548W        W41962  14.248   0.945   5.282 -0.0723 -0.2333  0.0343
28549W        W41963  10.860   4.670   3.066  0.2829 -0.1964  0.2097
28550W        W41964   9.589  14.494   4.899  0.0992  0.0359 -0.0576
28551W        W41965   4.033   2.625  16.114  0.1656  0.0060 -0.1068
28552W        W41966   7.634  16.878  14.801  0.1776 -0.1988  0.1631
28553W        W41967  10.752  14.385  14.608 -0.0694  0.0249  0.1341
28554W        W41968   9.758   0.359  14.925 -0.0818 -0.0570 -0.0569
28555W        W41969   4.577   1.899  15.272 -0.1712  0.1165  0.0140
28556W        W41970  16.606   3.941   0.645 -0.0226  0.0168 -0.1996
28557W        W41971  15.081   9.495   3.788 -0.1803 -0.2021 -0.1523
28558W        W41972   1.001   6.696  13.556  0.1960 -0.1693 -0.1032
28559W        W41973  16.793  10.870   0.341 -0.1081 -0.1430 -0.0968
28560W        W41974   7.965   5.792  11.499 -0.1457  0.0923 -0.0179
28561W        W41975   8.264   6.313  15.404 -0.0016 -0.2627 -0.1763
28562W        W41976  10.137   2.504   5.717  0.2245  0.0866  0.2350
28563W        W41977   4.653   5.444  12.500 -0.1499 -0.0377  0.1001
28564W        W41978  14.399  17.972   6.232  0.2646  0.0409  0.3688
28565W        W41979  12.602   5.596   0.976 -0.0149 -0.1344  0.0784
28566W        W41980  12.729  11.551   1.788  0.1349  0.2558  0.2541
28567W        W41981  17.785   9.909   3.118 -0.0463 -0.1613  0.3554
28568W        W41982   2.717   3.661   0.187 -0.2618 -0.3423 -0.2505
28569W        W41983  13.990   5.385  13.340 -0.0399  0.0784 -0.1121
28570W        W41984   1.052   9.262   1.385  0.0054 -0.3327 -0.0041
28571W        W41985  12.773  11.548  11.526 -0.0526 -0.2986 -0.0109
28572W        W41986   0.159  17.729   1.242 -0.1308 -0.2670  0.0702
28573W        W41987  16.635  15.201   2.925  0.1447  0.0343  0.0892
28574W        W41988  13.244  13.236   0.134  0.0598  0.0581  0.0973
28575W        W41989   2.295  14.933   0.868  0.1464 -0.3699 -0.0561
28576W        W41990   7.840  11.849   1.477 -0.3014  0.0085 -0.2826
28577W        W41991   1.536   4.880  11.152 -0.1300 -0.0873  0.0726
28578W        W41992   6.203   0.788   3.583 -0.1360  0.0892  0.1118
28579W        W41993   1.867   2.197  13.154  0.2714 -0.1587  0.0194
28580W        W41994  15.393  17.633   4.247  0.2225 -0.2441  0.0678
28581W        W41995   7.156  17.347  12.480 -0.0625 -0.2936 -0.3021
28582W        W41996   6.861   4.480   3.122  0.3226  0.2208  0.1207
28583W        W41997   1.706  15.064  16.293  0.2498 -0.2857 -0.0824
28584W        W41998   2.796   6.888  12.455 -0.1794  0.0088  0.1500
28585W        W41999   6.199   1.328  12.041 -0.1320 -0.0916  0.2082
28586W        W42000  15.886   1.274  14.525 -0.0201  0.0439  0.0252
28587W        W42001  11.363  10.342   2.328 -0.0672 -0.1078  0.0274
28588W        W42002  11.760   9.776  16.078  0.0603 -0.2716  0.1398
28589W        W42003  10.790   5.644  10.413 -0.2845 -0.1084 -0.0247
28590W        W42004  12.664   7.723  12.907 -0.4308 -0.1705  0.1401
28591W        W42005   6.619  10.323   4.760  0.3127  0.0849 -0.2112
28592W        W42006  15.359  13.715   0.680 -0.1621  0.0208  0.4438
28593W        W42007   1.246   4.221  11.663  0.0017 -0.0297  0.1951
28594W        W42008   3.302  14.340   2.517 -0.1988  0.1703 -0.0359
28595W        W42009  11.815  14.692   3.689 -0.0834 -0.2533 -0.1400
28596W        W42010  11.949   1.013   1.142  0.0340 -0.1853 -0.0347
28597W        W42011  15.605  10.483  12.674 -0.1865 -0.2915 -0.2072
28598W        W42012  16.492  13.522   6.350  0.1165 -0.0688 -0.0533
28599W        W42013   2.337   0.045   1.814 -0.1059  0.1930 -0.0944
28600W        W42014  14.793   1.960  16.207 -0.1185 -0.2427  0.2750
28601W        W42015   4.675   4.004  14.707 -0.0871  0.0701  0.1065
28602W        W42016   9.360   6.941  12.489 -0.1802 -0.0665 -0.3391
28603W        W42017   6.473  17.611   2.231  0.1364  0.0709 -0.0275
28604W        W42018   2.096  12.218   1.573  0.1251 -0.1664 -0.3911
28605W        W42019   2.801  16.184   1.728  0.2315 -0.2763  0.0098
28606W        W42020  11.402  12.564  13.036 -0.1062  0.0782 -0.1175
28607W        W42021   3.898  11.881  15.174  0.3289 -0.1985 -0.2670
28608W        W42022  11.672  13.558  15.343 -0.1234  0.1955  0.0696
28609W        W42023   2.334  16.784   1.790  0.0675  0.1486 -0.3035
28610W        W42024   0.175  12.399   2.822 -0.2335  0.1540 -0.2182
28611W        W42025   6.926  17.954   2.580  0.0426  0.0417  0.0633
28612W        W42026  12.431   2.170  10.561  0.0538  0.0486 -0.2743
28613W        W42027   5.906  16.952  13.458  0.0621  0.0772 -0.0239
28614W        W42028  15.245  12.416   5.946  0.2643  0.2644 -0.1314
28615W        W42029   6.675  12.206  10.804 -0.1472 -0.2653 -0.0211
28616W        W42030   4.962  14.703  11.250  0.0307 -0.1163  0.1520
28617W        W42031  11.954  10.202   4.281  0.0959  0.4423 -0.0099
28618W        W42032  15.323  13.029  11.150  0.0488 -0.0906  0.0968
28619W        W42033  11.527  14.688   5.575 -0.1680 -0.2609  0.3754
28620W        W42034   2.652  16.209  14.236  0.3539 -0.2738  0.0891
28621W        W42035   4.156   5.888  13.772  0.1159 -0.3092 -0.0440
28622W        W42036  11.758  15.708   5.485  0.0799 -0.0330  0.0980
28623W        W42037   1.546  14.433   6.058  0.3411 -0.0598 -0.1451
28624W        W42038  15.376  13.436  12.356  0.2202  0.3917  0.0035
28625W        W42039  12.566   6.337   2.283 -0.0049  0.1140 -0.0274
28626W        W42040  10.516  16.816   6.099  0.1631  0.0574 -0.2132
28627W        W42041  18.003   4.960  11.071 -0.0043  0.1242  0.1248
28628W        W42042  11.347   6.079  12.330  0.1770 -0.2494 -0.0254
28629W        W42043  12.420  15.058   3.870  0.0276  0.0021 -0.1640
28630W        W42044   0.485   0.753   9.870 -0.0003  0.3043 -0.0491
28631W        W42045   9.401  12.771   3.246  0.0820  0.1762 -0.0429
28632W        W42046  12.548   4.279  11.439 -0.2135  0.0429 -0.0655
28633W        W42047   4.340   2.227   1.385 -0.1762 -0.0135  0.3326
28634W        W42048  16.052  12.750   2.997 -0.0402  0.1270  0.0006
28635W        W42049   6.445  14.847  13.938  0.0012 -0.1549 -0.0920
28636W        W42050  15.901   5.019  11.094 -0.0409 -0.0559 -0.2777
28637W        W42051  12.879  10.581  10.453  0.1223 -0.0559  0.0940
28638W        W42052   9.522   5.614  11.179  0.1347 -0.1241 -0.0683
28639W        W42053  13.634  13.350   3.404  0.2332  0.0565 -0.0162
28640W        W42054   5.748  13.142  15.957 -0.0116 -0.0526 -0.2114
28641W        W42055  16.274   7.630  13.402 -0.1415  0.0126  0.5559
28642W        W42056   8.349  13.940   5.298 -0.2673 -0.3807 -0.0053
28643W        W42057  16.881   1.924  11.966  0.1488 -0.2528  0.2511
28644W        W42058  10.309   0.649   3.724 -0.1696  0.1588 -0.1395
28645W        W42059   6.055  17.069  16.555  0.0004  0.0594 -0.2783
28646W        W42060   3.255  13.087  15.644  0.2196 -0.3118 -0.1015
28647W        W42061   0.462   2.880  14.177  0.1516 -0.1003  0.4708
28648W        W42062   4.895  15.643   5.348 -0.2026 -0.0309 -0.1603
28649W        W42063   5.828   4.324  11.437  0.0124  0.1675  0.1375
28650W        W42064  11.690   4.942  11.161  0.2714 -0.3626 -0.1915
28651W        W42065   5.545  10.644  10.945  0.1612 -0.0612 -0.2257
28652W        W42066  15.776  14.999   1.344  0.1465 -0.1206 -0.2167
28653W        W42067   7.117   8.658  16.172 -0.0557  0.2418 -0.1653
28654W        W42068   7.351   8.205   4.373  0.0149  0.2242  0.4227
28655W        W42069  16.070  11.181   5.968  0.1365  0.0648 -0.3460
28656W        W42070  15.150  13.005  12.544  0.0081 -0.2859 -0.1189
28657W        W42071   4.968  13.121   4.999 -0.1007 -0.1948 -0.1694
28658W        W42072  14.112   1.879   3.354 -0.0313 -0.2112 -0.0926
28659W        W42073   1.349  12.996   3.479  0.0882 -0.1862 -0.0427
28660W        W42074  16.836  13.937  13.081 -0.2897  0.2521 -0.1151
28661W        W42075  13.757   5.401   4.508 -0.0134  0.2962 -0.0823
28662W        W42076  16.703   9.832  13.096  0.0860 -0.1082  0.1352
28663W        W42077   0.607   6.165   2.529  0.3241  0.2129 -0.0700
28664W        W42078  10.910  18.024  15.485 -0.1256  0.0167  0.1113
28665W        W42079  18.022   5.729   0.027 -0.1254 -0.1598  0.0525
28666W        W42080   4.753  18.062   4.891 -0.0683  0.0238 -0.2550
28667W        W42081   8.928   8.149  11.789  0.1378  0.1831  0.0019
28668W        W42082   5.336  12.075   1.071 -0.0498  0.1083  0.0520
28669W        W42083   0.245  14.187   5.531 -0.0373 -0.1080 -0.2828
28670W        W42084  13.576   7.485  15.597 -0.1253  0.2714 -0.0900
28671W        W42085   1.400  16.486  15.452  0.0349 -0.1817 -0.0305
28672W        W42086  13.860  15.994   3.682 -0.2502 -0.2524  0.0244
28673W        W42087   8.582   4.826   3.147  0.1010  0.0501 -0.0390
28674W        W42088   6.181   5.261  10.580 -0.1551 -0.0233 -0.0304
28675W        W42089  17.019   2.741  12.571 -0.1944 -0.2509  0.0204
28676W        W42090   9.656  16.463  10.972 -0.0595  0.1556  0.0674
28677W        W42091  17.947   9.781  13.636  0.0647  0.0056 -0.3652
28678W        W42092   7.005  15.120   4.797  0.2124 -0.0668 -0.1530
28679W        W42093   6.475   3.021   4.409 -0.0079  0.2193 -0.0618
28680W        W42094   3.735  13.771   2.346 -0.1768 -0.0165  0.0711
28681W        W42095   4.034   0.881  16.319 -0.2531 -0.1150 -0.1949
28682W        W42096   1.450  10.571  10.924 -0.0068 -0.2843  0.1523
28683W        W42097  10.209  11.096   5.369 -0.0667  0.1857  0.3496
28684W        W42098  10.445  17.839   2.018  0.2564 -0.1089  0.0225
28685W        W42099  12.795  11.666  15.631  0.0502 -0.0329 -0.0578
28686W        W42100  14.603  17.286   2.201 -0.2523 -0.2191  0.1039
28687W        W42101  13.334  17.170   0.802 -0.2006 -0.0628  0.0582
28688W        W42102  17.791   9.842   0.766 -0.0759  0.0287 -0.1586
28689W        W42103   8.946   3.817   1.455 -0.0797 -0.5646 -0.2400
28690W        W42104   5.024  16.260   6.099  0.0499  0.1752  0.2324
28691W        W42105   6.261   9.501   4.850 -0.1662  0.1465  0.2111
28692W        W42106   9.344   8.196   4.913 -0.2783 -0.1715 -0.1006
28693W        W42107  13.781  14.853  11.143 -0.0160 -0.4503 -0.3270
28694W        W42108  12.589  11.878   5.994 -0.0728 -0.0060  0.1709
28695W        W42109  11.333   1.861  15.676 -0.2897  0.0849 -0.4709
28696W        W42110  10.912  13.583   4.408 -0.1455 -0.0526  0.0270
28697W        W42111  13.308   7.206  15.935 -0.1528  0.0683  0.3235
28698W        W42112  14.828  13.958  15.153 -0.2556 -0.3359 -0.4225
28699W        W42113  11.870   3.141   0.968 -0.0609  0.1125  0.1848
28700W        W42114   8.698   4.402   0.777 -0.0906  0.1317  0.0108
28701W        W42115   0.467   2.686  14.799 -0.2992  0.0551 -0.2689
28702W        W42116  11.043  17.962  12.542  0.2083  0.3724  0.1676
28703W        W42117  13.905   8.142  11.569  0.1748  0.1695  0.0636
28704W        W42118  12.715   6.734  10.470 -0.0883 -0.0506 -0.0486
28705W        W42119   6.140   4.328   1.732  0.2389 -0.0292  0.1240
28706W        W42120   9.120  11.305  14.308 -0.1298  0.1511 -0.2768
28707W        W42121   3.256   7.316  14.225  0.2447  0.1987 -0.1236
28708W        W42122  12.107  12.279   4.162  0.1226 -0.3732 -0.2180
28709W        W42123  14.740  13.941  15.693  0.0472  0.0619  0.1183
28710W        W42124  15.949   0.306  14.640  0.3579  0.2394  0.0246
28711W        W42125  17.677   3.227   1.904  0.0208 -0.0417  0.0698
28712W        W42126   8.044  10.719   0.794 -0.1813 -0.3940 -0.1564
28713W        W42127   1.852  14.951   4.925  0.0477  0.1703  0.0335
28714W        W42128   9.362   4.489   0.108  0.2555 -0.0066  0.0496
28715W        W42129  12.288  12.108  16.161  0.1331  0.0700 -0.0899
28716W        W42130  11.300   4.300  13.046 -0.2172 -0.1964  0.1020
28717W        W42131  10.124   4.420   5.885 -0.3796  0.0947 -0.1986
28718W        W42132  16.085  15.777  14.051 -0.1172  0.3660 -0.1147
28719W        W42133   0.782  15.287   4.924 -0.2121  0.4868  0.2750
28720W        W42134   3.782  17.470  12.134  0.2129 -0.0348  0.2399
28721W        W42135   2.558   6.985  15.527  0.0081 -0.0321 -0.2918
28722W        W42136  15.796   5.546   4.655  0.0575  0.2121 -0.0850
28723W        W42137   2.572   6.206   5.622 -0.1151 -0.0139  0.0226
28724W        W42138   9.121   2.898   4.269 -0.2571 -0.1773 -0.1396
28725W        W42139  10.051  11.159   4.301  0.2853 -0.1555  0.2171
28726W        W42140   9.887   0.654   0.051 -0.0198  0.0474  0.0912
28727W        W42141   5.471   4.350  14.333 -0.1409 -0.0215 -0.1295
28728W        W42142   6.839  17.161   4.474 -0.0096 -0.0934 -0.1697
28729W        W42143  13.602   5.962  12.311  0.1903 -0.0654 -0.0253
28730W        W42144  17.793   5.416  14.243 -0.0071  0.0138  0.0714
28731W        W42145   2.394   2.200  13.883  0.0835 -0.0765  0.0600
28732W        W42146  11.316  11.031  12.146 -0.1705  0.1306 -0.2711
28733W        W42147   5.228   5.237   3.826  0.0095  0.3440  0.2242
28734W        W42148  11.864   7.373  10.485  0.2001 -0.3927  0.1279
28735W        W42149  14.870   6.554  13.385  0.1663  0.0114  0.0731
28736W        W42150  14.128  12.812  13.541  0.0851 -0.1594 -0.0808
28737W        W42151   5.972  17.196  11.132  0.1255  0.0460  0.2708
28738W        W42152   4.453   1.365  14.192 -0.3731 -0.2435 -0.1149
28739W        W42153   1.572   7.640  14.918  0.1260  0.0613 -0.1082
28740W        W42154  13.549   8.619   3.159  0.1713 -0.2004  0.1948
28741W        W42155   4.980   5.673  16.083  0.1675 -0.1682  0.0207
28742W        W42156  13.057  16.835  15.771  0.1654  0.0349  0.1190
28743W        W42157   6.955   4.563  15.401  0.1169 -0.5072  0.1163
28744W        W42158   2.813   6.218   5.125  0.0094  0.0948 -0.0787
28745W        W42159  15.959  15.308   1.679  0.0345  0.0010  0.1890
28746W        W42160  15.780   4.674   3.180  0.0652  0.0583  0.0375
28747W        W42161  14.571  16.344  14.488 -0.1728 -0.1170  0.0732
28748W        W42162  17.545  15.835   1.434  0.0860  0.1070 -0.1357
28749W        W42163   3.914  11.145  13.207  0.2948  0.1455 -0.3368
28750W        W42164   7.243   0.716   3.637 -0.1721 -0.2220  0.2754
28751W        W42165  13.739  10.825  15.822 -0.0539  0.0015  0.2792
28752W        W42166  17.492  10.099  12.129  0.2759  0.1642  0.2637
28753W        W42167  14.994   6.933   1.038  0.0611 -0.0415 -0.2149
28754W        W42168   4.798  14.541  15.218 -0.0487  0.2220  0.0952
28755W        W42169   0.745  10.147   3.993 -0.1234 -0.1619  0.0186
28756W        W42170   2.714  15.000   3.047 -0.0420 -0.3341 -0.1123
28757W        W42171   4.574  13.768   5.995 -0.1523  0.0704 -0.2579
28758W        W42172  11.621   2.091  11.183  0.1846 -0.0957 -0.0769
28759W        W42173  14.528   3.301   0.755  0.0855 -0.0409 -0.1417
28760W        W42174  14.686  10.506   5.366  0.0895  0.1814 -0.2088
28761W        W42175   6.198  13.196   3.887 -0.0424  0.1648  0.0449
28762W        W42176  14.660  12.129  14.820  0.1862  0.2318 -0.1035
28763W        W42177   9.927   8.134  13.897 -0.2133 -0.1900 -0.3276
28764W        W42178   4.612  16.497   5.236 -0.0638 -0.1707  0.0301
28765W        W42179  11.262   2.939  11.793 -0.2017  0.3264  0.1989
28766W        W42180   8.818  13.730  12.792 -0.0875  0.1050  0.3178
28767W        W42181  15.062  11.640  13.708  0.0612 -0.1046 -0.0862
28768W        W42182  12.064  14.543   5.545  0.2320  0.3096 -0.1116
28769W        W42183   9.712   0.549   2.509 -0.0194  0.2887  0.0945
28770W        W42184  15.351   6.615  13.685  0.0747 -0.3675 -0.2295
28771W        W42185  16.469   2.098  14.650 -0.0181  0.0338 -0.0761
28772W        W42186   6.866   4.332  14.042 -0.2085  0.1983  0.1181
28773W        W42187  14.968  14.230   3.128  0.0662  0.1416  0.0265
28774W        W42188   5.825  12.879   1.507  0.0725 -0.0876  0.2260
28775W        W42189   1.928   2.674   1.186 -0.3427  0.0253  0.0737
28776W        W42190   1.348   2.316  11.272  0.1018  0.3237  0.1680
28777W        W42191  13.690   2.970   4.482  0.0460  0.0182  0.0949
28778W        W42192   5.861   9.289  10.324 -0.2535 -0.1329  0.1082
28779W        W42193   6.682   7.016  14.520  0.2575 -0.0589  0.2000
28780W        W42194   1.897   9.888  13.171 -0.4810 -0.1051 -0.0509
28781W        W42195   5.884   3.882   0.843  0.0087  0.3909 -0.1387
28782W        W42196   0.640   9.780  14.039 -0.1475 -0.0065 -0.0998
28783W        W42197   9.406   7.244  14.510 -0.0325  0.0494  0.0488
28784W        W42198   3.922  11.756  15.760  0.3830  0.1795 -0.0969
28785W        W42199   0.607   3.792   4.168 -0.1843 -0.1021  0.0015
28786W        W42200  13.619  13.850  15.490 -0.2751 -0.0544  0.0085
28787W        W42201   5.067  18.033   1.583 -0.1467 -0.1069  0.2604
28788W        W42202  16.701  14.273   5.700 -0.2017 -0.0809  0.3270
28789W        W42203  12.720  14.296  11.423 -0.0685  0.1304 -0.1771
28790W        W42204   9.017   1.725  11.642  0.1023 -0.1117  0.1002
28791W        W42205   1.183   9.438  10.613  0.3382  0.2998 -0.1904
28792W        W42206  17.671  15.491  13.308 -0.4095 -0.0613 -0.0315
28793W        W42207  11.465  15.478   1.385  0.0947  0.1459  0.1956
28794W        W42208   7.178   2.406  12.284 -0.1798 -0.0862  0.1420
28795W        W42209   5.773  15.468  14.260  0.2073  0.1764 -0.3412
28796W        W42210   2.387  12.023  13.522  0.2626 -0.1403  0.1205
28797W        W42211   5.601   9.445  15.144 -0.1944  0.1196 -0.3398
28798W        W42212   2.803   6.496   1.308 -0.0342 -0.1518 -0.2502
28799W        W42213   9.130  11.552  16.402  0.0475 -0.2755  0.1921
28800W        W42214  10.057   5.867   5.711  0.0119  0.0383  0.2082
28801W        W42215   6.695   3.035  12.546  0.1159 -0.1162 -0.0773
28802W        W42216  13.989   3.466  13.754 -0.1080 -0.0624 -0.0782
28803W        W42217   3.666   1.695   0.463 -0.0386  0.0447  0.0586
28804W        W42218  15.595  17.308   1.300 -0.0139  0.0705 -0.2057
28805W        W42219   4.720   6.545   0.466  0.1294  0.1054 -0.0609
28806W        W42220   2.569   8.375  11.769  0.0228  0.3032 -0.2080
28807W        W42221  14.140   4.121  12.133  0.0911 -0.1173  0.0223
28808W        W42222   3.807   2.182  13.139 -0.2834 -0.2324  0.2058
28809W        W42223   1.532  12.722   6.107  0.0031 -0.1273  0.1492
28810W        W42224  10.616   7.601  14.555  0.0820 -0.3019 -0.4128
28811W        W42225   0.362  11.212  14.020 -0.0255 -0.1384 -0.0097
28812W        W42226   7.332   6.436   3.480  0.0011  0.2171 -0.0881
28813W        W42227  14.756   5.321  12.941  0.0746 -0.1352 -0.0814
28814W        W42228  15.912  13.882  15.571  0.0321  0.3707  0.3295
28815W        W42229  15.097  16.641  16.016 -0.0465 -0.2443 -0.3001
28816W        W42230  17.523   7.573   0.462  0.0765  0.0650  0.1426
28817W        W42231  15.270   7.130  11.768 -0.0539  0.3943  0.0582
28818W        W42232   3.270  12.502   6.516 -0.0606  0.1144 -0.2083
28819W        W42233  11.551  10.980  11.685  0.0413 -0.3719 -0.1558
28820W        W42234  18.074  15.633   1.533  0.2122  0.0592 -0.0137
28821W        W42235  14.213  16.772   1.338  0.1990  0.0732 -0.0289
28822W        W42236   7.234  15.428   3.421 -0.0043  0.0589  0.1562
28823W        W42237  11.443  16.903  12.853 -0.3558 -0.2101  0.0644
28824W        W42238   6.176  14.474   5.410 -0.3955  0.1056  0.2254
28825W        W42239  14.418   1.010  12.620 -0.0523 -0.0158 -0.0702
28826W        W42240  17.376  11.612  16.438  0.2536 -0.1700  0.1687
28827W        W42241   8.166  11.542   2.519  0.1905 -0.2080  0.3721
28828W        W42242   0.507  13.120  14.596  0.5052  0.1540 -0.2380
28829W        W42243  12.543   0.197   1.354 -0.0314 -0.2714  0.0364
28830W        W42244   1.689  17.424  13.016  0.2280  0.0523  0.1804
28831W        W42245  10.477   8.899   5.872 -0.1197  0.0156  0.0172
28832W        W42246   4.121  10.296   3.268  0.2564  0.2466  0.0381
28833W        W42247   7.777   1.928   2.489 -0.2238 -0.2835  0.0795
28834W        W42248   4.548  13.248   4.606 -0.2699  0.0960  0.0244
28835W        W42249  17.401   7.311  12.007  0.0705 -0.0476 -0.1377
28836W        W42250  15.847   9.592  13.313 -0.1958 -0.0325  0.0670
28837W        W42251   9.687  14.079  15.642 -0.5403 -0.2391 -0.1341
28838W        W42252   0.466   7.791   3.362  0.0857 -0.3444  0.0634
28839W        W42253   9.472   6.343  10.743  0.1501  0.1692 -0.0572
28840W        W42254  11.887  15.644  12.515 -0.3118 -0.0532 -0.1979
28841W        W42255   1.114   9.835   4.095 -0.1235 -0.1589 -0.0676
28842W        W42256   4.825   6.305  12.226  0.4169 -0.0170  0.0494
28843W        W42257  13.960  13.329  12.104  0.0517 -0.1552 -0.2035
28844W        W42258   1.800  10.059   5.314  0.0883  0.2117  0.1865
28845W        W42259  14.063  12.673   0.319 -0.0808 -0.1786 -0.2823
28846W        W42260   7.115  13.491  10.855  0.4139 -0.1859  0.1197
28847W        W42261   3.332   9.655  10.905 -0.0529 -0.1853 -0.0456
28848W        W42262   1.256   3.520  15.322  0.3141  0.2026 -0.1745
28849W        W42263   5.123  15.996   4.052 -0.0972 -0.1268  0.1317
28850W        W42264  13.423  15.899   4.674 -0.4697  0.0650 -0.0363
28851W        W42265   0.273   7.848   4.655 -0.3175  0.0695 -0.1314
28852W        W42266  10.769  11.943   5.711 -0.0482  0.1917  0.0685
28853W        W42267  18.188  13.271  16.539 -0.0695 -0.1343  0.0467
28854W        W42268  15.415  10.102   1.338  0.0366  0.3432  0.0909
28855W        W42269   3.051   7.973  14.097 -0.1530 -0.0015 -0.0635
28856W        W42270   5.496   8.167   1.616  0.0960  0.2460  0.0251
28857W        W42271  14.204  12.342   4.446  0.3219 -0.0389 -0.0385
28858W        W42272   1.512   2.189   4.265  0.1978  0.0133  0.0817
28859W        W42273   3.393   7.940  15.441 -0.0957 -0.4721  0.1084
28860W        W42274   2.985  11.147   4.607  0.1120 -0.0793  0.2294
28861W        W42275   7.712   7.523   1.544 -0.0223 -0.3826 -0.0997
28862W        W42276   1.525   3.920  12.434  0.1676 -0.1706  0.2347
28863W        W42277  11.328  10.503  16.454  0.1489 -0.3873  0.0096
28864W        W42278   3.647   0.822   1.397 -0.4198 -0.0515  0.4500
28865W        W42279   4.575   3.529  12.343 -0.0333 -0.0714  0.0925
28866W        W42280  17.729   6.158  12.270  0.2292  0.0827 -0.0531
28867W        W42281   9.076  16.734   0.551  0.3123 -0.1438  0.3500
28868W        W42282   8.292  15.734   5.197  0.1098  0.3819  0.0659
28869W        W42283   0.832   9.948   4.945 -0.3848 -0.1141  0.1212
28870W        W42284  11.619  15.840   4.256  0.1816  0.4881 -0.2502
28871W        W42285   8.852   7.499  14.801 -0.0357 -0.2588 -0.1168
28872W        W42286  12.001   9.748   2.233  0.2253 -0.1185  0.0661
28873W        W42287   0.521   8.931  16.497 -0.2304 -0.0093 -0.1160
28874W        W42288   7.638  10.047  14.178 -0.1846  0.2099 -0.0483
28875W        W42289  10.337  15.836   3.758 -0.0408  0.0780 -0.0944
28876W        W42290  17.039   2.329  13.467  0.0780  0.1067  0.0444
28877W        W42291  13.454   0.333  10.577  0.0298  0.2047  0.2037
28878W        W42292   3.589   7.602  12.770  0.0164 -0.0840 -0.0002
28879W        W42293   1.792  17.345   5.537 -0.1198  0.4854 -0.1314
28880W        W42294  14.435  17.160  14.733 -0.0278  0.1143 -0.0325
28881W        W42295  12.224  13.988  13.928  0.1676  0.1544  0.1304
28882W        W42296   7.003   4.979   5.293  0.0099  0.0107 -0.2158
28883W        W42297   3.350   8.010   2.209  0.2180  0.0884  0.1134
28884W        W42298  11.775  16.228   5.513  0.0695 -0.0915  0.0419
28885W        W42299   3.103   0.833   1.904 -0.0337  0.0507  0.1220
28886W        W42300   6.621   5.191  10.392 -0.1426 -0.8181  0.2775
28887W        W42301  11.699   6.980  11.916  0.2175 -0.1184  0.3375
28888W        W42302   6.026  11.045  14.023  0.2354 -0.0225  0.1449
28889W        W42303  17.402   4.807  13.705  0.0713  0.3010  0.3526
28890W        W42304   6.843  13.461  12.665 -0.1170 -0.0828 -0.1298
28891W        W42305   4.827   1.135   4.436 -0.0309 -0.2594 -0.1810
28892W        W42306   3.627  16.654  16.211  0.2023  0.0883  0.0255
28893W        W42307  13.381   5.841   4.671 -0.1324  0.0719  0.0377
28894W        W42308  12.495   8.683  16.009  0.0342 -0.1999 -0.1876
28895W        W42309  15.310  14.001   3.466 -0.0371 -0.0124  0.2242
28896W        W42310   3.289   5.718  13.200  0.1906 -0.0053  0.0479
28897W        W42311  11.701   5.487   1.468 -0.0480  0.0283 -0.1427
28898W        W42312   2.631   6.240  16.405 -0.1315  0.2531  0.0372
28899W        W42313  16.140   5.124  11.559 -0.4293  0.1137 -0.0238
28900W        W42314  11.792   3.808   3.844  0.1991  0.0883 -0.0234
28901W        W42315   3.332  12.684  15.891  0.5342 -0.0598 -0.0605
28902W        W42316   2.686   5.930  11.559  0.0373 -0.1017  0.0396
28903W        W42317  11.708   1.717  10.360  0.1710 -0.2162  0.1645
28904W        W42318  17.307   4.244   4.633 -0.1118 -0.1466 -0.2297
28905W        W42319  12.359  15.328  14.258  0.1525  0.0489 -0.2219
28906W        W42320   4.614  14.987   2.667  0.1680 -0.1194  0.0622
28907W        W42321   8.603   1.925   2.383 -0.0182  0.1512  0.2491
28908W        W42322  12.706  11.929   0.006 -0.1075  0.1845 -0.0245
28909W        W42323   6.858  12.798  10.060  0.0230  0.1009  0.1522
28910W        W42324  13.003  14.233  13.331 -0.1292 -0.0899 -0.2648
28911W        W42325   5.950   9.641   0.984 -0.3252  0.0899  0.1399
28912W        W42326  10.113  10.068  12.289 -0.0852 -0.0154 -0.0025
28913W        W42327   4.541   0.645  11.020 -0.0152  0.1651  0.2743
28914W        W42328   9.495  12.169  14.354 -0.0232 -0.0522  0.1880
28915W        W42329   8.134  11.837   2.991 -0.0373 -0.0388 -0.0403
28916W        W42330  12.969   4.703  16.507  0.3769  0.1795 -0.2512
28917W        W42331   8.021   3.406   1.261  0.2628 -0.2355  0.2018
28918W        W42332  18.272   7.732  14.616  0.1065 -0.1360  0.3103
28919W        W42333   7.229   9.154   1.613  0.2374 -0.0244 -0.0222
28920W        W42334  11.422   6.758   4.019  0.3192 -0.2146 -0.1641
28921W        W42335   9.659  11.571   4.609 -0.0152  0.1124  0.3348
28922W        W42336  14.561   2.937   1.705 -0.0002 -0.4557 -0.1557
28923W        W42337  10.547  14.680   2.954  0.1430  0.2473 -0.0285
28924W        W42338  11.413  15.713   1.834 -0.3883 -0.0571 -0.0058
28925W        W42339  10.840   0.078  14.249  0.0619 -0.1087  0.0573
28926W        W42340  15.611   0.238   0.663 -0.3955  0.1950  0.0176
28927W        W42341   0.648   9.732   3.737  0.0856  0.0377 -0.1402
28928W        W42342  10.118  11.068  14.429  0.1157  0.1744  0.0126
28929W        W42343   9.477   9.416   1.499 -0.2901  0.2617  0.1563
28930W        W42344  16.081  11.562   2.877 -0.0415  0.1391  0.1995
28931W        W42345   6.543   4.819   2.877 -0.1513 -0.1076 -0.3456
28932W        W42346  15.078  15.095  10.494 -0.1121  0.1468  0.1922
28933W        W42347   5.798   9.398   5.120  0.1910 -0.0685 -0.0741
28934W        W42348  16.304   0.523   1.332  0.0618 -0.0029 -0.2277
28935W        W42349   3.290  13.650   5.430  0.0974  0.2672  0.1186
28936W        W42350   1.005   6.767   5.175  0.2060  0.2790 -0.1025
28937W        W42351  17.077   0.873  14.471 -0.4196 -0.2295  0.0420
28938W        W42352  16.173   3.276   5.139  0.2382  0.2442  0.1888
28939W        W42353  11.802   3.022  13.526  0.2626  0.1883  0.0406
28940W        W42354   8.189  12.488  14.693  0.0595 -0.0696 -0.0990
28941W        W42355  10.389  15.149  14.178  0.3260  0.0778  0.1924
28942W        W42356  13.932  12.755   2.971 -0.1506 -0.3695 -0.1079
28943W        W42357   6.556   7.703  14.478  0.1191 -0.0352  0.2885
28944W        W42358  12.083  11.494  12.578  0.1887 -0.4814  0.1771
28945W        W42359   4.910   7.081  13.200 -0.0316 -0.1481 -0.1326
28946W        W42360   0.663  10.801   5.936 -0.4448 -0.1529  0.2348
28947W        W42361   9.484   3.361  11.946  0.0276  0.0636  0.5749
28948W        W42362   7.415   6.290  15.197 -0.3585  0.1230 -0.0646
28949W        W42363  13.045  10.002  13.530 -0.1152  0.1698 -0.0444
28950W        W42364   7.881   2.646  14.148  0.3272  0.2111  0.0691
28951W        W42365   2.444  11.195  11.670  0.0486 -0.2464  0.0396
28952W        W42366  13.917   3.763   5.244  0.2405  0.0236 -0.2968
28953W        W42367  16.049  12.406  15.609 -0.0422  0.0792  0.0153
28954W        W42368  16.927   0.088   6.205 -0.0232 -0.0104 -0.0412
28955W        W42369   2.923   0.386  14.218  0.0134  0.0453 -0.0274
28956W        W42370  13.349  11.354   2.882 -0.0195  0.0389  0.1604
28957W        W42371   6.929  11.968  14.860  0.0484  0.0698  0.0077
28958W        W42372  17.475  17.797  12.487  0.0879  0.2153 -0.1381
28959W        W42373   4.186   8.342   2.264  0.1285 -0.1324  0.1047
28960W        W42374  12.886   7.476  12.011 -0.0079 -0.0149  0.1292
28961W        W42375  17.849   7.726  10.127  0.0052  0.1319 -0.1383
28962W        W42376  12.131   4.994   3.727 -0.0217  0.0679  0.0626
28963W        W42377  13.716   3.862   5.740  0.0625  0.1092  0.1656
28964W        W42378  11.060   8.326  10.418  0.0093 -0.0789 -0.2937
28965W        W42379  17.164   6.054  11.644 -0.1035  0.0911 -0.3717
28966W        W42380   2.923   2.956  16.123  0.4956  0.0860 -0.1563
28967W        W42381   3.200  11.768   5.887  0.2589 -0.0162 -0.0249
28968W        W42382   8.969   0.806  12.724  0.0268  0.0568 -0.3229
28969W        W42383  13.196  12.768   0.023  0.0389 -0.1398 -0.2323
28970W        W42384   7.890   5.078  12.682  0.1648  0.1259 -0.2640
28971W        W42385  15.434   4.327   1.915 -0.0997 -0.1759  0.0892
28972W        W42386  14.770   4.064  14.581 -0.0932 -0.1275 -0.0829
28973W        W42387   2.401   8.596   4.615 -0.1377  0.1025  0.3318
28974W        W42388  10.337   7.731  13.085  0.0630  0.2099  0.1458
28975W        W42389   9.053  15.603   6.260 -0.0261  0.0132  0.1503
28976W        W42390   4.576   5.700  14.888 -0.2111  0.3501 -0.0657
28977W        W42391  15.307  10.693  12.301  0.2525  0.1102  0.2780
28978W        W42392  12.445  17.618   0.648  0.1141 -0.4874 -0.2676
28979W        W42393  15.564  12.701   4.255 -0.1261  0.1812  0.5678
28980W        W42394  14.366   0.346  13.963 -0.1297 -0.0617 -0.1361
28981W        W42395  17.559   7.161  12.501  0.0352 -0.2009 -0.1437
28982W        W42396  13.472  17.721   6.119  0.1076  0.0836 -0.1394
28983W        W42397   4.198  16.869  13.304  0.1093  0.0436 -0.2011
28984W        W42398   8.772   4.112   4.911  0.3491 -0.0947 -0.2105
28985W        W42399   4.211   2.013  12.767 -0.1168 -0.0503 -0.2149
28986W        W42400  10.107   0.123  13.913  0.0342  0.0798 -0.4123
28987W        W42401   3.359   9.812  13.796 -0.0985 -0.0580 -0.1462
28988W        W42402  13.583  13.702   0.374  0.1944 -0.0748 -0.1729
28989W        W42403   9.228   8.366   2.950 -0.0487  0.1509  0.2381
28990W        W42404   0.720  10.569   2.027  0.2379  0.0390 -0.0386
28991W        W42405  10.756   4.257   0.283 -0.1614 -0.0929  0.1400
28992W        W42406  14.853   8.885   0.495  0.1176  0.0440 -0.1894
28993W        W42407   7.987  18.114   4.511  0.2269  0.0550 -0.1479
28994W        W42408  15.309   3.828  15.717 -0.0675  0.1528 -0.2399
28995W        W42409   3.777   5.552   4.468 -0.0504  0.1892 -0.2458
28996W        W42410   9.335   2.726   3.893  0.2102  0.0073 -0.0581
28997W        W42411   9.102   5.341  11.263  0.2963 -0.2991 -0.0813
28998W        W42412   8.172  10.578   6.628 -0.2863 -0.0800  0.0072
28999W        W42413   3.764   3.030  16.364  0.0131 -0.1173 -0.1395
29000W        W42414   7.770  14.617  14.618  0.2670 -0.1537 -0.1472
29001W        W42415  13.377   0.290  14.484 -0.1087  0.1324 -0.0600
29002W        W42416   3.380   6.619  15.253  0.1561  0.0141  0.1802
29003W        W42417  15.009  12.861   4.204 -0.0280 -0.1629 -0.0328
29004W        W42418   9.286   1.903   4.358 -0.0831 -0.2048  0.0937
29005W        W42419   7.488   6.954  14.030 -0.2239  0.2482  0.1975
29006W        W42420   3.662  17.079  15.319 -0.2222 -0.0972 -0.3515
29007W        W42421   4.990  11.839  11.589  0.3472 -0.1533 -0.0840
29008W        W42422  15.392  15.878   4.675  0.0845  0.3129  0.0841
29009W        W42423   4.119   6.590  11.420  0.1726 -0.2236 -0.1669
29010W        W42424   4.715   5.531  12.047  0.1014  0.0492 -0.0442
29011W        W42425  14.037   6.248  13.647 -0.1994  0.2792  0.2361
29012W        W42426   7.933   0.399   3.277  0.0897 -0.1742  0.1102
29013W        W42427   4.506   3.688   2.176 -0.1721  0.1984  0.0334
29014W        W42428  16.075   8.384   1.827  0.0022 -0.2550 -0.1738
29015W        W42429  14.268  17.185  15.698 -0.0759  0.0685 -0.1649
29016W        W42430   1.778  13.899  13.707 -0.3763  0.1071 -0.0401
29017W        W42431   3.616   4.715  11.347  0.1773  0.1484  0.1308
29018W        W42432  12.829  11.816  12.465  0.1553 -0.0074 -0.0823
29019W        W42433   0.421  10.964   6.395  0.2969 -0.1504  0.3817
29020W        W42434   1.553  17.589  10.477 -0.1975 -0.1567  0.0957
29021W        W42435  14.290   9.128   3.236 -0.0556 -0.1495  0.0191
29022W        W42436   2.665   6.641   5.402  0.2987  0.0063  0.0464
29023W        W42437   3.133  10.447  12.659  0.2128 -0.1751 -0.0439
29024W        W42438   3.072  10.894  16.336 -0.0379 -0.3252  0.1561
29025W        W42439   7.877   1.370  12.026 -0.1343 -0.0679 -0.0037
29026W        W42440  12.902  11.933  16.093 -0.0188  0.0983  0.0496
29027W        W42441  13.707   7.229   0.240 -0.0300  0.2264 -0.2134
29028W        W42442   0.969   3.214   0.778  0.0597  0.2079  0.2044
29029W        W42443   7.010   4.892  14.944 -0.4718 -0.1653  0.0248
29030W        W42444   0.337  15.411  16.074  0.2590  0.1037  0.0984
29031W        W42445   3.209  13.859  15.119 -0.0648 -0.2166 -0.1265
29032W        W42446   6.451  11.361   5.673  0.3836  0.3107 -0.1216
29033W        W42447   5.017   9.515   2.688 -0.1802 -0.0803  0.0522
29034W        W42448   4.887  10.159  11.208 -0.3536  0.0084 -0.1576
29035W        W42449  17.662   7.809   0.886  0.1926 -0.1745 -0.0433
29036W        W42450   0.028   7.849  13.043 -0.3218  0.0280  0.0355
29037W        W42451   6.734   9.564   0.600  0.0521  0.0571 -0.0983
29038W        W42452   3.124   7.485  13.736  0.2281  0.0790  0.0605
29039W        W42453   7.820   7.272  11.973  0.1333 -0.0592 -0.2256
29040W        W42454  14.455  10.189   4.064 -0.0948 -0.0115  0.1815
29041W        W42455   3.093   1.677  13.428  0.0019 -0.0705 -0.1567
29042W        W42456  14.715   0.271  16.307  0.3118  0.0153  0.1473
29043W        W42457   5.977   7.205   2.106 -0.0200  0.1993 -0.2853
29044W        W42458   9.695  14.111   3.121 -0.0318  0.1995  0.0362
29045W        W42459  13.390  12.452   3.343  0.1142 -0.1275 -0.1721
29046W        W42460   2.151   8.113   4.520  0.2721 -0.1595  0.1174
29047W        W42461  12.960   0.177   3.887  0.0093  0.1733 -0.2494
29048W        W42462   2.012   6.286  10.731 -0.0819 -0.4177  0.2541
29049W        W42463   7.450   4.580   1.161  0.0581  0.1261  0.1798
29050W        W42464  14.903   0.874  11.696 -0.5660  0.0665  0.0616
29051W        W42465   5.641  12.086   3.456 -0.0136  0.0140  0.3529
29052W        W42466   2.674   7.924   1.105  0.0103  0.0974 -0.1318
29053W        W42467   9.858   0.068  14.448  0.1809 -0.0511 -0.2200
29054W        W42468   5.505  11.637  11.567 -0.1080  0.3909  0.1068
29055W        W42469   6.669   5.570  13.762 -0.3738 -0.3711 -0.2926
29056W        W42470  16.376   1.509   5.296 -0.2739 -0.2304 -0.3977
29057W        W42471   2.466   1.394  11.759  0.5226 -0.1517 -0.3340
29058W        W42472  10.715  15.758  15.927 -0.1287  0.2524  0.0354
29059W        W42473   2.650   7.878  12.506  0.2030  0.2008  0.0274
29060W        W42474   1.854  11.102  15.577 -0.0914 -0.1495 -0.1399
29061W        W42475   5.142   8.593  15.229 -0.0697 -0.0194 -0.0315
29062W        W42476  13.878  14.489   4.434  0.3063  0.3701  0.2329
29063W        W42477   9.361  13.129  12.230  0.0422 -0.2067  0.0815
29064W        W42478   3.270   2.444  15.503  0.1924  0.2869  0.0411
29065W        W42479   4.782   6.578  16.031  0.1687  0.3543  0.0334
29066W        W42480  14.999   9.517   3.247  0.0167  0.3407  0.0037
29067W        W42481   6.153  12.757  11.756 -0.1381  0.0345  0.0491
29068W        W42482  17.073  10.457   0.628  0.0073  0.2544 -0.1282
29069W        W42483   3.470   3.804  14.276 -0.0970  0.1884 -0.0423
29070W        W42484  17.989   9.041  12.396 -0.1821  0.0224  0.0767
29071W        W42485   2.401   4.485  14.247 -0.0476 -0.2711  0.0670
29072W        W42486   6.590   1.109   5.028  0.1754  0.2449  0.0333
29073W        W42487  14.041  16.680   3.724 -0.0776  0.0952  0.1587
29074W        W42488  11.690  11.584   4.576 -0.0087  0.0485  0.5564
29075W        W42489  14.310  10.179  12.434 -0.0857 -0.0320  0.1900
29076W        W42490   1.215   4.958   3.250  0.2081 -0.2982  0.2062
29077W        W42491   7.629  17.629  16.365 -0.0342 -0.2048  0.1130
29078W        W42492   8.019  12.358   1.479  0.3965  0.1738 -0.1308
29079W        W42493   4.293  18.087  14.001 -0.0775 -0.0594  0.0945
29080W        W42494   2.270  11.721   4.571  0.0641 -0.1400  0.2619
29081W        W42495   4.246  12.006  12.391  0.0304  0.0137  0.1506
29082W        W42496   2.680   1.357  15.973 -0.0250  0.0031 -0.2388
29083W        W42497  12.021  11.780   0.367 -0.0344  0.1617 -0.0080
29084W        W42498   7.663   9.946   3.740  0.3421  0.2094 -0.2092
29085W        W42499   1.517  16.546  12.924  0.0230 -0.0924  0.2325
29086W        W42500  10.288   4.255  10.516  0.0627 -0.2233 -0.0247
29087W        W42501  11.275  11.673   5.850 -0.0407  0.3102  0.1095
29088W        W42502  12.541   6.119  16.313 -0.2810 -0.3903  0.0738
29089W        W42503   3.149   3.079   2.329 -0.0436  0.2032  0.0656
29090W        W42504  11.583   2.540   6.714  0.0923  0.0760 -0.0066
29091W        W42505   3.200   0.612   4.596 -0.0816  0.3212  0.1124
29092W        W42506   3.203   9.697  13.096  0.0975  0.3093  0.0973
29093W        W42507  10.139   1.770   0.671  0.0510 -0.0800  0.2894
29094W        W42508  18.271   9.750  16.113 -0.2464  0.0942 -0.3543
29095W        W42509   4.746   9.489  13.700  0.0331  0.0462 -0.0345
29096W        W42510   6.271  10.721  13.293  0.1859 -0.0131  0.0623
29097W        W42511  12.737   4.019  13.767 -0.1958 -0.0132  0.0908
29098W        W42512   6.612  14.384  14.949  0.0936 -0.0881 -0.2474
29099W        W42513   7.722   3.837  14.092 -0.2478 -0.1309  0.2368
29100W        W42514   0.397   5.565   5.516  0.0411 -0.1868  0.2150
29101W        W42515  17.387  15.346   4.067 -0.3280 -0.0949 -0.0993
29102W        W42516  12.868   8.188  15.743 -0.0236  0.2589 -0.0497
29103W        W42517   8.409   8.298   4.940 -0.2217  0.1907  0.1681
29104W        W42518   4.484   1.818   0.012 -0.0861 -0.0337  0.2840
29105W        W42519   1.893   8.248   3.315 -0.1714  0.3410  0.2353
29106W        W42520  15.034   9.695  13.642 -0.3141 -0.0078 -0.0102
29107W        W42521   0.504   7.769  13.913  0.3199 -0.0647 -0.1425
29108W        W42522  14.491   0.450   5.624  0.0192  0.1406 -0.2300
29109W        W42523  14.296  12.175  12.949 -0.0126  0.1781 -0.0258
29110W        W42524  17.917   0.113   4.146 -0.1846  0.1607  0.1892
29111W        W42525  15.060  14.259  16.071 -0.1736  0.1703  0.1376
29112W        W42526   8.103   4.368   1.954 -0.2422  0.2105 -0.1898
29113W        W42527   6.663   8.234   4.493 -0.0756  0.4460  0.0305
29114W        W42528   9.275  14.821  14.533  0.0412 -0.2716 -0.0284
29115W        W42529   6.696   3.544   2.136 -0.2464 -0.0043 -0.1571
29116W        W42530  15.847  13.770  16.468 -0.0346 -0.1759  0.0865
29117W        W42531   9.493  16.310   5.521  0.3143 -0.0427  0.1267
29118W        W42532   9.482  10.624  12.069 -0.0377  0.0132 -0.1351
29119W        W42533  16.708  13.438  14.875 -0.1809  0.0279  0.0999
29120W        W42534  12.196   0.915  14.258  0.0224  0.0787  0.2120
29121W        W42535   4.794  15.421   2.668 -0.2448  0.0406  0.1167
29122W        W42536  16.287   2.928   3.936  0.0798 -0.2114  0.1592
29123W        W42537  14.631   6.190  16.081 -0.1675  0.3239 -0.0833
29124W        W42538  14.898   4.340  15.018 -0.1997  0.3428 -0.0796
29125W        W42539  14.876   9.148   9.701  0.1006  0.0455  0.1695
29126W        W42540  11.917   2.629  12.586  0.2924  0.1277 -0.2423
29127W        W42541  15.988   9.342   2.421  0.1054 -0.2357 -0.1090
29128W        W42542  15.218   8.135   3.737  0.2717  0.4266 -0.3965
29129W        W42543  13.758  17.305  12.644 -0.0131 -0.1721 -0.0045
29130W        W42544  12.816   1.347   2.657  0.4250  0.0488 -0.1828
29131W        W42545  16.434  10.934   5.024 -0.0156  0.1755  0.0089
29132W        W42546  11.891   2.259  14.539 -0.1631 -0.0248 -0.0702
29133W        W42547   0.450  16.476   1.264  0.0389  0.1945 -0.0269
29134W        W42548   5.343   8.757  16.537  0.1287  0.3889  0.3341
29135W        W42549   5.144   5.926   1.207 -0.0440 -0.1165  0.0960
29136W        W42550   7.544   5.705  15.304 -0.4255  0.0010 -0.1372
29137W        W42551   3.363  17.752  12.308  0.1344  0.3076  0.0223
29138W        W42552   0.396  17.906   5.669 -0.2015  0.0523 -0.0408
29139W        W42553  15.102  11.362   3.231 -0.0113 -0.0861  0.1384
29140W        W42554   4.799   1.687  14.449 -0.3615  0.1473 -0.0993
29141W        W42555   3.362  11.318   1.039  0.1314 -0.0378 -0.2413
29142W        W42556  12.287  15.824  11.386  0.2807  0.0607 -0.1306
29143W        W42557   8.450  15.641  15.499  0.2689  0.1073 -0.0190
29144W        W42558  12.894   0.716  12.460  0.3328 -0.1054  0.3857
29145W        W42559  11.412   0.414  15.430  0.0372 -0.2652  0.1429
29146W        W42560   8.501  14.221   2.009  0.0730  0.2598  0.2093
29147W        W42561  13.482  16.767  13.444 -0.0683  0.0451 -0.0061
29148W        W42562   0.590   7.387  13.150 -0.0686  0.1583 -0.0668
29149W        W42563   1.070   5.141  15.290 -0.2304  0.0516 -0.2745
29150W        W42564   1.654   7.161   5.493 -0.0001 -0.0057 -0.2730
29151W        W42565  13.406  17.640  14.035 -0.0124 -0.0776 -0.3538
29152W        W42566   8.067  13.305  16.474 -0.1115 -0.0132 -0.1092
29153W        W42567  18.252   3.817  13.353 -0.2095 -0.1612 -0.0860
29154W        W42568   1.259   8.493   2.964  0.1464  0.0309 -0.2397
29155W        W42569  13.646   9.920   2.415  0.3268 -0.2791  0.1991
29156W        W42570  10.593  15.769   5.571 -0.0610 -0.1591  0.1134
29157W        W42571   2.698   8.213   2.846 -0.0034 -0.1189  0.0628
29158W        W42572  12.778  15.874   0.110  0.0698 -0.0712 -0.2477
29159W        W42573  12.919  14.863   0.762  0.2304 -0.0182 -0.1512
29160W        W42574   1.893   1.358   4.540  0.2944 -0.1360 -0.0291
29161W        W42575  13.422   8.220  14.940 -0.0024 -0.0645 -0.3614
29162W        W42576  16.770   8.686   2.987 -0.0014  0.0063 -0.2549
29163W        W42577  12.647  10.793  13.979  0.1776  0.0589 -0.0937
29164W        W42578   8.876   5.017   0.864  0.0389  0.0274 -0.1370
29165W        W42579  11.541  13.838  12.429  0.0760 -0.0945 -0.1143
29166W        W42580   9.017  10.118  12.832  0.0045 -0.0899 -0.2104
29167W        W42581  12.395   0.279   0.911 -0.1182 -0.0441  0.2752
29168W        W42582  13.594   9.547   4.140 -0.0067 -0.2140 -0.3190
29169W        W42583   1.356   7.304   6.342  0.0976  0.0833  0.1029
29170W        W42584   0.112  13.101  16.039 -0.2458  0.4085  0.1601
29171W        W42585  16.408   1.223  14.369 -0.0720  0.0654 -0.2634
29172W        W42586  14.102   3.610   0.086  0.0097  0.2989 -0.1231
29173W        W42587  12.699   7.836   4.535 -0.1013 -0.1515 -0.0758
29174W        W42588   1.640   6.869  11.084  0.2380 -0.0957  0.0149
29175W        W42589   0.331   2.048  13.950  0.0299 -0.0529  0.2122
29176W        W42590   9.081  16.632  14.850  0.0434 -0.0983 -0.0651
29177W        W42591   4.525  12.940  14.971 -0.0190  0.1796  0.0194
29178W        W42592   0.447   6.192  15.866 -0.2734  0.1383 -0.0410
29179W        W42593   4.933   3.954  12.433  0.2088  0.2635  0.3357
29180W        W42594  16.166   9.722  12.609 -0.0977 -0.4009  0.2868
29181W        W42595   7.313  12.284  15.004 -0.1298 -0.1051 -0.0368
29182W        W42596   4.374  17.092   5.170  0.0560 -0.0222 -0.0915
29183W        W42597   9.912   0.508   2.965 -0.2431  0.2729  0.1538
29184W        W42598   6.000  11.026  11.096  0.1583  0.1317  0.0459
29185W        W42599   9.294  16.080   0.736  0.1644 -0.0440  0.0461
29186W        W42600  10.251   9.192  11.059  0.2342  0.2484 -0.0953
29187W        W42601  17.373   2.893  14.722  0.2280 -0.2069  0.4099
29188W        W42602  17.272  14.025  12.160 -0.0162 -0.0990 -0.1185
29189W        W42603   1.343   8.492  12.881  0.1619  0.3353 -0.0961
29190W        W42604  11.712   9.673   0.923  0.1181  0.1080  0.0669
29191W        W42605  12.198   9.022  14.918 -0.0522  0.4396  0.2562
29192W        W42606  15.948  13.908  13.329 -0.3171 -0.2549 -0.0634
29193W        W42607   3.843  13.498   0.482 -0.4100  0.0271 -0.1532
29194W        W42608  13.737   6.134   0.376 -0.0756  0.0745  0.1031
29195W        W42609  16.374  15.446  11.359  0.1001  0.0699 -0.0394
29196W        W42610   2.983   3.547   2.362  0.1576  0.1467  0.3300
29197W        W42611  12.634   9.922  13.909 -0.1917  0.0201 -0.2487
29198W        W42612  16.777  11.171   2.480 -0.1185 -0.2208 -0.1559
29199W        W42613  14.293  17.796  11.842 -0.1048 -0.3387  0.0581
29200W        W42614   6.748   0.808   3.704  0.2038 -0.0166 -0.0369
29201W        W42615   4.357   2.665   3.017  0.2123  0.1553  0.3918
29202W        W42616   2.083   3.047  11.282  0.4642  0.0031  0.3100
29203W        W42617  10.175  16.658   0.477 -0.0059  0.0278  0.0621
29204W        W42618  12.417   1.744   0.578  0.2499 -0.3563 -0.2718
29205W        W42619   0.511   0.476   3.005  0.0506 -0.2072 -0.1267
29206W        W42620   8.796   0.635   2.295 -0.0390 -0.1897 -0.1296
29207W        W42621  17.493   5.651  13.547  0.0655  0.2244  0.0278
29208W        W42622   4.553  15.603   4.054  0.2003 -0.0678  0.1034
29209W        W42623  16.330  10.737   0.076  0.3599 -0.0996 -0.0394
29210W        W42624   3.053   6.706  11.929 -0.1133  0.1321 -0.2012
29211W        W42625   7.709  18.213   0.511  0.0380 -0.0173 -0.0649
29212W        W42626   4.104  13.630  12.102 -0.1832 -0.0050 -0.1618
29213W        W42627  17.002  11.257   3.046 -0.0585 -0.2754 -0.1195
29214W        W42628   4.555   3.283  14.050  0.0493  0.0872  0.0638
29215W        W42629   1.422   3.357   1.943  0.1430 -0.0651 -0.0270
29216W        W42630   4.006  13.318   5.487 -0.0513  0.1394  0.2197
29217W        W42631   4.434  15.308   1.794  0.0190 -0.0338  0.1413
29218W        W42632  10.153  10.480   1.921 -0.0961 -0.3210 -0.0223
29219W        W42633   9.264  11.636   4.130 -0.1711  0.1032  0.0543
29220W        W42634   8.663   9.819  13.003  0.0887 -0.3473 -0.1839
29221W        W42635   9.543   6.308   1.107 -0.3399  0.0133 -0.2067
29222W        W42636  10.654   8.595  10.497  0.1084 -0.0446 -0.1138
29223W        W42637  13.898  12.819  11.425  0.0550 -0.2691 -0.1176
29224W        W42638  17.146  16.545  13.497 -0.0518 -0.0450  0.2261
29225W        W42639   5.711  18.194   1.501  0.2030  0.0142  0.1249
29226W        W42640  10.317  16.336  13.903 -0.1677 -0.0426 -0.2580
29227W        W42641   9.297  12.583   4.119  0.0362  0.0469 -0.0637
29228W        W42642   0.327   1.859  15.332  0.2414  0.2098  0.0059
29229W        W42643   7.654   6.460  16.014  0.0429  0.1110 -0.2332
29230W        W42644   4.996  10.698  11.873 -0.0560 -0.0267 -0.0093
29231W        W42645   2.542  14.661   2.177  0.0139 -0.0136  0.4107
29232W        W42646  13.657  11.366  14.124  0.2435  0.1336 -0.2146
29233W        W42647   5.672   0.548  12.727  0.1789  0.2092  0.1074
29234W        W42648   7.630   6.427   0.295 -0.0332 -0.0287 -0.2370
29235W        W42649   0.669  10.507   4.319  0.1973  0.1081 -0.3383
29236W        W42650  12.456   0.004   5.350 -0.1699  0.0109 -0.0314
29237W        W42651   8.393  15.610  11.660  0.0780 -0.2926 -0.1089
29238W        W42652  18.189  15.588  13.415 -0.2306 -0.2888 -0.1302
29239W        W42653  17.388   2.968  13.709 -0.2582  0.1060 -0.1214
29240W        W42654   0.755  13.787   0.208 -0.1415 -0.1731 -0.0964
29241W        W42655  17.927  15.134  13.627  0.2794 -0.1038  0.1584
29242W        W42656  15.274   6.750   3.065 -0.0629  0.2809 -0.2224
29243W        W42657   9.003  10.898  12.097 -0.1932  0.6066 -0.3670
29244W        W42658   4.311   9.845  14.765  0.3109 -0.0359 -0.2132
29245W        W42659   2.070  13.919   2.895 -0.1320 -0.1942 -0.2568
29246W        W42660  10.158  14.298   2.916  0.1856 -0.2150  0.0638
29247W        W42661   8.076   7.571   0.781  0.1194 -0.3655 -0.0044
29248W        W42662  16.107  14.445  12.582 -0.2252 -0.1103  0.1124
29249W        W42663  10.892   6.394  11.155 -0.2865 -0.0957  0.0261
29250W        W42664  12.712  12.112  11.404  0.1870  0.0208  0.1465
29251W        W42665   0.810  12.068   1.692 -0.0085  0.0193  0.1675
29252W        W42666   6.388  16.651  11.500  0.0392  0.2889 -0.0802
29253W        W42667  13.093   0.477   3.482  0.3107 -0.0971  0.0184
29254W        W42668  14.650   9.672   4.216 -0.1358  0.2080 -0.0231
29255W        W42669   6.122   8.068  15.440 -0.2530 -0.2899  0.2606
29256W        W42670   7.369   8.086   1.516 -0.1016  0.0319  0.2365
29257W        W42671  13.345  15.118  12.685  0.3431 -0.0636 -0.0860
29258W        W42672   0.193  15.960  13.330  0.1715 -0.1434  0.2472
29259W        W42673   4.346  17.447   3.299 -0.1693 -0.2266  0.0496
29260W        W42674   5.822   5.472  15.100 -0.3309 -0.3102 -0.2912
29261W        W42675   0.212  15.857   3.126  0.0917  0.0508  0.0261
29262W        W42676  16.459   2.334   0.256 -0.1934  0.0009  0.4324
29263W        W42677   7.836  10.812  10.533 -0.2621  0.0761 -0.2398
29264W        W42678  11.020  11.137  10.073 -0.1942 -0.1182 -0.2648
29265W        W42679  15.955   8.349  11.378 -0.2389  0.0821 -0.1427
29266W        W42680   0.970  13.099   3.158  0.1260 -0.0008  0.2922
29267W        W42681  14.820   8.418  12.482  0.4051 -0.0750 -0.0334
29268W        W42682  10.723   5.200   3.502 -0.1967 -0.4050  0.0704
29269W        W42683  15.753   7.654   5.876 -0.2165  0.0735 -0.0682
29270W        W42684  10.900   9.312   5.110  0.2388 -0.4014  0.2846
29271W        W42685  12.314   5.482  13.729 -0.0635  0.4095  0.0852
29272W        W42686   4.236   6.775  15.471  0.1585  0.1240  0.0609
29273W        W42687  13.648  14.944  13.000 -0.4172  0.1020 -0.2922
29274W        W42688  13.666   5.509   2.865  0.1025  0.1064 -0.0193
29275W        W42689   6.528  11.845   5.570  0.1046 -0.1099 -0.1767
29276W        W42690  16.833  16.919   2.930 -0.1339 -0.3189  0.1962
29277W        W42691  13.767  11.095  12.700  0.0224 -0.0584  0.2003
29278W        W42692   7.916  15.577  15.550  0.2948  0.0104 -0.2072
29279W        W42693   6.737   3.901  10.576  0.3046 -0.4267  0.0958
29280W        W42694  12.773  10.608  15.935  0.0544  0.2010 -0.0171
29281W        W42695   5.783  16.777   2.919 -0.0949  0.0104  0.1379
29282W        W42696  12.777   4.596   5.452  0.2004 -0.2225 -0.2411
29283W        W42697   5.250  17.845   3.601 -0.1669  0.0118  0.0285
29284W        W42698  16.453  16.366   2.192  0.1878 -0.0801  0.0349
29285W        W42699   3.745  11.136  12.311  0.0910 -0.2770 -0.2555
29286W        W42700  10.213  15.733  15.094 -0.0169  0.0791 -0.1870
29287W        W42701   7.172   6.029  11.060  0.2238  0.0676 -0.3543
29288W        W42702   4.366   2.755   2.339  0.2737 -0.2489 -0.1072
29289W        W42703  11.091  15.438  11.330 -0.0628 -0.1917 -0.0183
29290W        W42704   9.039   1.726  10.457  0.2342 -0.1776 -0.0442
29291W        W42705  12.423  11.708   2.684  0.0032  0.0129  0.2741
29292W        W42706  15.882   0.558   1.653 -0.1604 -0.1078  0.0215
29293W        W42707   1.550  16.879   0.020 -0.2143 -0.0542 -0.0063
29294W        W42708   3.057   7.672  11.015  0.0509 -0.2333  0.0698
29295W        W42709  14.992  10.751  11.803  0.1121  0.0700 -0.1072
29296W        W42710  15.795  15.334  13.114  0.0072  0.0947 -0.0003
29297W        W42711  16.072  17.436  14.178 -0.5045  0.0876  0.0509
29298W        W42712   1.537   9.910  14.970 -0.0307  0.2256 -0.3809
29299W        W42713   4.542   6.802   9.878 -0.1441 -0.0561  0.3006
29300W        W42714   0.397  17.652  16.541 -0.1885  0.0232 -0.0598
29301W        W42715   0.425  15.695   5.827  0.2250  0.0790  0.0335
29302W        W42716   7.139   4.153   4.098  0.0702 -0.1461 -0.4253
29303W        W42717  10.999  10.722  12.305 -0.0016 -0.1732 -0.0804
29304W        W42718   1.498   4.133   1.441  0.2066 -0.2633  0.2112
29305W        W42719   1.224  17.410   0.594  0.1540  0.1935 -0.0109
29306W        W42720   2.048   3.396  11.620 -0.1436  0.1433 -0.2260
29307W        W42721  15.481   0.447  10.470 -0.3271 -0.0542 -0.1200
29308W        W42722  13.200  10.881  16.131  0.0197  0.0365 -0.3473
29309W        W42723  10.975  14.787  13.548  0.0833 -0.0992 -0.1640
29310W        W42724   7.677  10.080   5.277  0.2783  0.0631  0.0664
29311W        W42725   5.529  16.829   1.471  0.0299  0.0614 -0.1110
29312W        W42726   1.640  13.379   1.741 -0.0138 -0.1900 -0.0747
29313W        W42727  18.077  12.565   3.787 -0.0814  0.1796 -0.0665
29314W        W42728   1.798   6.256  11.955  0.2119 -0.2482  0.0457
29315W        W42729  13.549  14.105  14.369  0.3682  0.0697 -0.3179
29316W        W42730   1.259   2.016   3.442  0.0516  0.2114 -0.2744
29317W        W42731   8.332  15.214   5.185 -0.0034 -0.2039 -0.3900
29318W        W42732   7.514   2.358   2.401 -0.5296  0.0815  0.1227
29319W        W42733  16.998  15.534   3.510 -0.0432 -0.3639 -0.0454
29320W        W42734  12.855   0.509   1.102 -0.1623 -0.1655  0.3379
29321W        W42735  12.535   5.974  13.921 -0.0002 -0.1457  0.0748
29322W        W42736  12.136   8.669   3.668 -0.2836  0.2290  0.4212
29323W        W42737   7.398  11.116  11.456  0.1521 -0.1811  0.2646
29324W        W42738  12.567  15.047  14.812 -0.1153 -0.1942 -0.0029
29325W        W42739  10.892   8.552   4.525  0.1387  0.1402  0.0429
29326W        W42740   7.614   9.924  15.273  0.1017  0.1293 -0.1978
29327W        W42741   2.655   1.383   4.524 -0.2655 -0.1265 -0.1782
29328W        W42742   1.454   9.438   4.287 -0.0615  0.0183 -0.1762
29329W        W42743  10.996  13.659  16.400  0.0106 -0.1964  0.2004
29330W        W42744   9.199   3.703   5.417 -0.2986  0.0417  0.0989
29331W        W42745  12.637   8.559   2.047 -0.2496  0.3131  0.4464
29332W        W42746   5.101  13.993   0.057 -0.0050  0.0100 -0.2028
29333W        W42747   5.483   9.900   1.674  0.3155 -0.0466 -0.2048
29334W        W42748   4.296  14.778   5.421  0.0526  0.4668  0.2333
29335W        W42749  17.039   6.202   3.004 -0.2168  0.0296  0.1513
29336W        W42750  14.147  11.913  12.460  0.1241 -0.1801 -0.2487
29337W        W42751  16.400  14.060   1.576 -0.0021 -0.0113  0.0769
29338W        W42752   5.774  17.594  12.576  0.0216 -0.3061 -0.1574
29339W        W42753   7.163   8.819  12.213 -0.0025 -0.0709  0.0682
29340W        W42754  11.331  10.570   4.011  0.3127 -0.1269  0.2445
29341W        W42755  12.524  16.101  14.842 -0.0860 -0.0594 -0.0162
29342W        W42756   0.981  17.188   1.433  0.3982  0.0225 -0.3030
29343W        W42757   8.444  12.035   6.239  0.1830 -0.1417 -0.1594
29344W        W42758   0.212   5.396  14.901 -0.3215  0.1234  0.0311
29345W        W42759  10.731   8.488   1.596  0.0871 -0.4751  0.0781
29346W        W42760   4.767  17.205  15.463  0.0897 -0.2506 -0.2015
29347W        W42761   7.688  15.487   4.352  0.0976 -0.0797  0.0394
29348W        W42762   8.889   6.987   3.260 -0.2318 -0.0081 -0.1030
29349W        W42763   4.065   4.229  12.924  0.0355  0.3176 -0.0247
29350W        W42764  16.295  13.666  12.051  0.2957 -0.1535  0.0453
29351W        W42765   3.780   5.004   0.770 -0.1961  0.0085 -0.0457
29352W        W42766   1.672   8.082   1.496  0.0703 -0.0524 -0.2642
29353W        W42767   5.037  14.909   4.001  0.2542  0.0208  0.2257
29354W        W42768   4.590   6.052   5.278 -0.2705  0.0046  0.0992
29355W        W42769   1.263   0.972  12.842 -0.1384  0.0713  0.1176
29356W        W42770   3.465  14.365  12.379  0.0022 -0.1908  0.0360
29357W        W42771   6.523   7.413   5.144 -0.2440  0.2766  0.1565
29358W        W42772   9.058  13.230   3.328 -0.1241 -0.2638 -0.0223
29359W        W42773   4.630  11.355   4.699 -0.0447 -0.1214  0.2548
29360W        W42774   6.792  16.437  16.253 -0.0529 -0.1509 -0.2128
29361W        W42775  18.261   9.747   3.204  0.0131 -0.1430  0.0214
29362W        W42776   7.937  14.624  13.889  0.0666 -0.3419  0.0453
29363W        W42777  11.983   6.369   3.155 -0.1370  0.3201 -0.1885
29364W        W42778   8.770   7.383   3.612 -0.2090  0.2533 -0.0290
29365W        W42779   3.907   8.537   5.651  0.1668  0.1380  0.2472
29366W        W42780   0.862   7.117  16.333  0.2569  0.1660  0.2669
29367W        W42781   3.477   6.014   0.063 -0.0582  0.1051  0.0904
29368W        W42782   8.296   5.568   0.084  0.2245  0.1041  0.0510
29369W        W42783  16.034   3.194   4.218 -0.0217  0.1349 -0.0945
29370W        W42784   8.611  10.253  15.855  0.1031 -0.3494 -0.2571
29371W        W42785   8.686   7.624   1.425  0.1310  0.1333 -0.0306
29372W        W42786  11.903  10.382  15.665 -0.1404  0.1023  0.3180
29373W        W42787   7.889   0.207   5.454 -0.1281  0.0038  0.3150
29374W        W42788  17.357   7.167   2.778 -0.0644  0.2959  0.2515
29375W        W42789   3.894  10.811  15.850  0.5705 -0.2061  0.1881
29376W        W42790  14.284  15.691  12.552  0.1727 -0.1702 -0.0823
29377W        W42791   1.959  11.657   1.588  0.2039  0.1935 -0.0134
29378W        W42792   3.249  10.560   2.097 -0.1339  0.0322 -0.2164
29379W        W42793   7.329   7.609  16.334 -0.0540  0.1581  0.1025
29380W        W42794   8.342  15.246  14.226  0.0588 -0.0068 -0.1234
29381W        W42795   7.674  10.929  14.266 -0.1633 -0.0850 -0.0730
29382W        W42796   4.427   2.092   3.187  0.0151  0.2193 -0.2140
29383W        W42797  15.333   3.360  12.993 -0.2260  0.3329 -0.0899
29384W        W42798  16.813  10.282   4.524  0.0048 -0.2663 -0.0971
29385W        W42799  16.346   6.787   2.973 -0.2947  0.1633  0.4275
29386W        W42800   8.451   5.710  10.117  0.0072 -0.0659 -0.1701
29387W        W42801   7.755   2.151   5.453 -0.1245  0.1356 -0.1798
29388W        W42802   9.360  12.132   2.192  0.0283 -0.0692 -0.1814
29389W        W42803  13.878  17.509  14.951  0.2441 -0.1808  0.0930
29390W        W42804   8.987   5.326  16.258 -0.2953 -0.2241  0.1514
29391W        W42805   9.727   2.077  13.168 -0.2525 -0.1017  0.0962
29392W        W42806   0.971   0.522  12.958  0.1608 -0.0713 -0.1448
29393W        W42807   8.633  10.209   5.457  0.2865  0.0483 -0.1111
29394W        W42808  12.852  13.850  11.213 -0.0677  0.0430  0.1813
29395W        W42809   8.466  17.749  10.650  0.4168  0.1918  0.0459
29396W        W42810  16.991   6.329   0.912 -0.0783  0.0432 -0.0240
29397W        W42811  15.512   8.239  10.965 -0.1847  0.1263 -0.0505
29398W        W42812   9.390   9.036  16.384  0.0998  0.4128 -0.1881
29399W        W42813   1.897   1.854   4.220 -0.1305  0.1330 -0.1137
29400W        W42814   6.897   6.562   2.566  0.0561  0.2852 -0.0962
29401W        W42815  11.087   5.197  15.527 -0.3004 -0.1207 -0.0409
29402W        W42816  16.448  14.226   4.864 -0.0231 -0.3963 -0.1648
29403W        W42817  13.665   0.818   0.103 -0.0934  0.0480  0.0117
29404W        W42818  16.536   3.017  12.532 -0.2213  0.0211 -0.0758
29405W        W42819   1.586   4.214  16.240 -0.0945 -0.3593  0.2401
29406W        W42820   6.552   2.531   6.050 -0.0710  0.2014  0.0972
29407W        W42821   3.453  11.866   4.033 -0.0425  0.2662  0.2161
29408W        W42822  11.850  16.008  10.432 -0.0212 -0.1013 -0.0235
29409W        W42823   2.448   3.444   5.632 -0.1949  0.1641 -0.0632
29410W        W42824   2.571  14.268   3.779  0.0729 -0.1769 -0.3232
29411W        W42825   1.127   1.449  12.834  0.1602 -0.5028 -0.0922
29412W        W42826   4.596   7.342  15.127 -0.0153 -0.4126 -0.2517
29413W        W42827  10.243   9.323  16.432 -0.0786 -0.1877  0.2098
29414W        W42828  16.143   9.577   3.909 -0.1000 -0.1077  0.2591
29415W        W42829  16.609  10.365  15.197 -0.2393 -0.1580 -0.0307
29416W        W42830   8.310   9.410   5.617 -0.0347 -0.0870 -0.0970
29417W        W42831   1.870  14.120   0.670 -0.0443  0.3360 -0.1608
29418W        W42832   4.358   5.620   0.408  0.3068  0.2366  0.2818
29419W        W42833   0.087   4.176  15.653  0.1558 -0.1493 -0.3557
29420W        W42834  11.255  14.125  11.324  0.0675 -0.3003 -0.2388
29421W        W42835   4.194  10.680  11.108 -0.0834 -0.4088  0.1718
29422W        W42836   4.865  14.064  15.035  0.1110  0.2489 -0.0052
29423W        W42837  17.777   9.445  16.277  0.0780  0.1351  0.0850
29424W        W42838  10.391  18.061   5.908 -0.1565  0.0441 -0.1897
29425W        W42839   7.854  16.338  14.108 -0.1284  0.1236  0.0861
29426W        W42840  16.315  10.207   3.433  0.1650 -0.0891  0.1141
29427W        W42841  12.844   8.132  14.516 -0.0640  0.0168 -0.0905
29428W        W42842   4.808   8.418   3.463  0.0725  0.0085  0.0854
29429W        W42843  15.445  17.894   3.775  0.0210 -0.2650 -0.1058
29430W        W42844   1.881   4.986   1.519 -0.2753 -0.0069  0.2059
29431W        W42845   9.019  16.187   5.422  0.1733 -0.0241  0.0791
29432W        W42846   6.901  12.558   5.183  0.0975 -0.0727  0.1199
29433W        W42847   7.937   3.933   1.187 -0.0951 -0.0864 -0.1332
29434W        W42848  13.230   2.392   1.771 -0.1880  0.1745 -0.2884
29435W        W42849   7.686  15.287  12.306 -0.0952  0.0267  0.0132
29436W        W42850  13.277   2.677   5.398 -0.1334 -0.1578 -0.0693
29437W        W42851  17.392  14.805  10.857  0.0609  0.2382  0.2193
29438W        W42852  15.585  11.667   4.052  0.0201  0.1196  0.0084
29439W        W42853  10.627  12.995  15.998 -0.0069 -0.1277  0.2855
29440W        W42854   3.010   5.718   2.936  0.3170 -0.0183  0.0151
29441W        W42855  12.038   4.331  11.190 -0.0761 -0.0306  0.0089
29442W        W42856  17.858  16.427  14.271  0.1616  0.3710  0.0073
29443W        W42857   9.810   2.096   1.831  0.3606  0.1216 -0.0564
29444W        W42858   7.897  17.527   5.816  0.3128  0.1734  0.3336
29445W        W42859   1.902   5.519   4.320  0.1496  0.2917 -0.0728
29446W        W42860   1.942  14.424  15.762 -0.3112 -0.0833  0.0823
29447W        W42861  15.058   6.838   2.415  0.1677 -0.2801  0.1003
29448W        W42862   0.054   8.216  13.373  0.1883 -0.0744 -0.0525
29449W        W42863  11.005   8.897   1.541  0.1668 -0.0623 -0.0120
29450W        W42864   7.275   3.559   6.072 -0.0011 -0.1533  0.3837
29451W        W42865   5.738   2.096   6.708  0.0254 -0.0656 -0.2462
29452W        W42866   6.310   0.189  13.458  0.1424 -0.1021  0.0414
29453W        W42867   1.093   2.475   4.506 -0.0777  0.0815 -0.1596
29454W        W42868   1.717  13.482   2.935  0.1750 -0.1037  0.0234
29455W        W42869   1.814   5.792   3.049 -0.0145 -0.2086  0.0870
29456W        W42870   8.630   0.174   0.092 -0.0351  0.0999 -0.0289
29457W        W42871   7.422  15.746   6.072 -0.3893  0.3232  0.1676
29458W        W42872  17.599   5.473  16.404  0.1218  0.2364  0.4911
29459W        W42873   2.574  11.712   2.613  0.0803  0.2946  0.2845
29460W        W42874   9.041   9.927  13.456 -0.2267  0.1375  0.1006
29461W        W42875   9.462   2.651  15.157  0.1915  0.0453 -0.1077
29462W        W42876  10.026  16.658  15.654 -0.4175  0.0411  0.1886
29463W        W42877   8.691   8.578  14.487  0.0823 -0.0396  0.1056
29464W        W42878  11.165   9.005  14.956 -0.1117 -0.0410 -0.1745
29465W        W42879  15.089   2.354   2.143  0.2686  0.2876 -0.2023
29466W        W42880  14.401  12.126   0.538 -0.4129  0.2979  0.1129
29467W        W42881  14.764  14.956  13.520 -0.0237  0.0105 -0.2902
29468W        W42882  14.334  17.885  13.563 -0.0315  0.3230 -0.1202
29469W        W42883   6.849   3.042   5.276  0.0791 -0.1280  0.0990
29470W        W42884   1.086  12.234   3.016  0.1227  0.4529  0.3318
29471W        W42885   0.643  17.918   6.138  0.1616  0.0183  0.2954
29472W        W42886   6.782   2.704   3.238 -0.2585 -0.0175  0.1109
29473W        W42887   1.902   1.471  10.205  0.2133  0.1105  0.1476
29474W        W42888  14.961  11.817   3.463  0.4209 -0.3678  0.0161
29475W        W42889   8.807   2.051  12.845  0.1978  0.3254 -0.1233
29476W        W42890  14.226   9.434  12.129 -0.4097 -0.4232 -0.0721
29477W        W42891  16.420   0.960   0.257 -0.2175  0.2602 -0.1814
29478W        W42892  11.754   5.559   6.216  0.2005  0.1818  0.0018
29479W        W42893   5.383   3.789  11.043 -0.0101 -0.0359  0.0131
29480W        W42894   7.598  10.905   2.324  0.2848 -0.1945 -0.0719
29481W        W42895   6.782  13.873  15.053  0.1031  0.1125  0.2523
29482W        W42896   9.167   8.233   4.403  0.1063  0.2567 -0.1613
29483W        W42897  12.863  16.425  15.602 -0.0279 -0.1660 -0.4057
29484W        W42898   8.416  13.442  12.896 -0.1447  0.1636 -0.0319
29485W        W42899  18.148  10.970  11.213  0.1185 -0.2284  0.0911
29486W        W42900  12.029   5.076  14.384 -0.1056 -0.4669 -0.0416
29487W        W42901   9.724  13.952  13.863  0.1502  0.2315 -0.1511
29488W        W42902  15.002  11.181   2.131  0.2049  0.4324  0.0620
29489W        W42903   4.875  12.105   3.980  0.2463  0.1986 -0.0897
29490W        W42904   5.816   6.841   0.427 -0.0710 -0.1091  0.2992
29491W        W42905   8.228  16.372  13.692  0.0896  0.0755  0.0654
29492W        W42906  15.412   5.422   1.180 -0.2977 -0.1856 -0.1056
29493W        W42907   3.517   4.449   1.468  0.1610 -0.0296 -0.0193
29494W        W42908  11.517  13.448  15.862  0.2745 -0.0090 -0.2578
29495W        W42909  12.135   5.305  12.689 -0.0808  0.0127 -0.1269
29496W        W42910  14.038   8.845   4.489 -0.4495  0.1155  0.3856
29497W        W42911   7.618  13.166   3.617  0.1598  0.0226 -0.1631
29498W        W42912   0.812  14.700   3.538  0.0019  0.0534  0.0777
29499W        W42913   2.332   1.300  10.439  0.2163  0.4127 -0.1081
29500W        W42914  17.185   1.411   6.340  0.0023  0.1204 -0.4078
29501W        W42915   8.976  17.501  14.394  0.1195 -0.1114 -0.3240
29502W        W42916   5.312   5.801  10.869  0.1064  0.0642  0.3270
29503W        W42917  14.285  14.490  12.673 -0.2635  0.2044 -0.2169
29504W        W42918   6.662   6.555  16.456 -0.0735 -0.0458  0.1427
29505W        W42919   6.460   1.632   5.858 -0.3149 -0.1088  0.0144
29506W        W42920  16.430   1.928  10.552  0.2798  0.0618  0.0773
29507W        W42921   7.881  13.451   4.673 -0.0841 -0.0439 -0.2376
29508W        W42922  17.952   6.794  12.495 -0.1168  0.3431  0.2972
29509W        W42923  14.954   2.469   0.407 -0.0266  0.0605  0.0245
29510W        W42924   7.101   6.587  16.157  0.1718 -0.3192 -0.1527
29511W        W42925   2.220  17.572   5.691 -0.2051 -0.0894  0.0319
29512W        W42926   1.409   4.969   1.195 -0.0878  0.1518 -0.0100
29513W        W42927  10.622   4.352  15.119  0.1161 -0.1050  0.0794
29514W        W42928  17.652  15.955   0.388  0.1338 -0.3027 -0.1380
29515W        W42929   8.010   9.214   2.260 -0.0589 -0.2346  0.3969
29516W        W42930   5.542   5.763  16.255 -0.1339  0.0982 -0.1127
29517W        W42931   5.763   9.906  16.419  0.1923  0.0955  0.1328
29518W        W42932   6.833   4.774  10.617 -0.0094 -0.3809 -0.1718
29519W        W42933  10.682  12.401   3.477 -0.0358  0.0668 -0.2975
29520W        W42934   0.874  13.620   3.272  0.1021  0.1212 -0.2019
29521W        W42935  13.508   1.808   2.896  0.1593  0.1280 -0.2113
29522W        W42936  14.429   0.252   1.826 -0.3662 -0.0102  0.0028
29523W        W42937   8.122   9.665  13.130  0.1679 -0.0517 -0.0837
29524W        W42938   6.657   3.421  15.417 -0.0952  0.0515 -0.2029
29525W        W42939   9.821   1.446   0.448  0.2319  0.0337 -0.0529
29526W        W42940   3.410  18.206  15.024  0.2636 -0.2178 -0.0334
29527W        W42941  15.134  14.823   0.457  0.3333  0.0843 -0.0847
29528W        W42942   7.315   9.689   1.214  0.0832  0.2012  0.0573
29529W        W42943  15.400   8.798  15.558 -0.1816  0.0177  0.0210
29530W        W42944   4.176   4.235  13.744 -0.1498 -0.1794  0.2733
29531W        W42945   1.958   2.988   4.865  0.1463 -0.0063 -0.2876
29532W        W42946   9.595   7.630  16.017  0.0488 -0.1146  0.3826
29533W        W42947   3.736   7.128   3.923  0.1082  0.0775  0.0257
29534W        W42948  12.758   6.721   5.215  0.0001 -0.2284 -0.2911
29535W        W42949   0.793   2.056   1.457 -0.0444  0.1839 -0.0945
29536W        W42950   3.471   4.303   0.448  0.2449  0.2089 -0.5498
29537W        W42951   6.554  16.048  15.316  0.0029 -0.4552 -0.0595
29538W        W42952   3.568  12.469  12.627 -0.0815  0.0774  0.1906
29539W        W42953   2.723  10.174  12.511  0.1861  0.1524  0.3882
29540W        W42954   4.673   0.060   2.350  0.0801 -0.1407 -0.1274
29541W        W42955   4.523   6.109   4.736 -0.0777  0.0901 -0.1543
29542W        W42956  11.937  11.843   0.823  0.2554 -0.0078  0.1167
29543W        W42957  15.324  16.180  11.763 -0.0524 -0.2788 -0.1362
29544W        W42958  10.168  11.712  15.955  0.1910 -0.2480 -0.1814
29545W        W42959  17.826   5.549   4.427  0.1013 -0.0450  0.0808
29546W        W42960   9.590  12.517   1.054 -0.1132  0.2762  0.4555
29547W        W42961  11.981  17.634   4.173  0.1756  0.3579 -0.1501
29548W        W42962  16.555  13.201  13.682  0.1066 -0.0799 -0.1134
29549W        W42963   5.148  14.760  10.761 -0.1501 -0.0094 -0.0990
29550W        W42964  10.854  14.798  12.960 -0.0805 -0.1539 -0.1523
29551W        W42965  13.907   4.013   2.846 -0.2898  0.0318  0.0930
29552W        W42966   9.270   8.833  15.469  0.0368 -0.1794 -0.0648
29553W        W42967   7.245  12.389  14.502  0.0856 -0.0890 -0.0276
29554W        W42968   5.787   5.803  14.370 -0.0927  0.1186  0.2440
29555W        W42969   4.699  13.907  10.592 -0.1067  0.1451  0.1075
29556W        W42970   8.024   7.006   5.287  0.1311  0.1755 -0.2127
29557W        W42971   9.133  16.277   0.261 -0.0739 -0.1723 -0.1887
29558W        W42972   8.564  12.490   4.534  0.0774  0.1084 -0.0671
29559W        W42973  17.236   7.193  10.518  0.0006  0.0632  0.1573
29560W        W42974  10.713  10.253  11.845 -0.0154  0.0397 -0.0315
29561W        W42975   9.533  13.249   3.355 -0.1735  0.0491 -0.1413
29562W        W42976   4.625  13.511   3.667  0.3152  0.2188 -0.2216
29563W        W42977   7.227  17.377  13.866  0.0756 -0.1168  0.2131
29564W        W42978  16.629   0.358  13.923 -0.1164 -0.0909  0.2028
29565W        W42979   3.498  15.234  11.593 -0.3214  0.3340  0.2652
29566W        W42980   6.357  16.258   6.735  0.2319 -0.0706  0.3138
29567W        W42981   7.603   1.387  14.647  0.0881  0.0827  0.1301
29568W        W42982  11.116  15.805   4.108 -0.1539  0.2495 -0.1419
29569W        W42983   2.948   6.483  14.569  0.0049  0.3166 -0.0671
29570W        W42984   1.747   7.553  10.344 -0.2515  0.0288 -0.0175
29571W        W42985  11.361  16.585   3.015  0.0679 -0.3065 -0.1118
29572W        W42986  10.620  14.965  14.652  0.0861  0.0713  0.1365
29573W        W42987   4.079  12.932  13.272 -0.2426 -0.1226  0.4569
29574W        W42988  12.934  10.099   4.005 -0.2278 -0.2422  0.0392
29575W        W42989   3.079   4.495  10.715 -0.0595  0.2560 -0.1512
29576W        W42990   6.544  10.068  13.848 -0.1586  0.3416 -0.3962
29577W        W42991   6.178   3.525   5.707 -0.1816  0.0834 -0.1170
29578W        W42992  11.553   1.166  10.968  0.1893  0.1334 -0.0456
29579W        W42993   9.596  12.264  16.192 -0.0497  0.1666  0.0032
29580W        W42994   9.178  12.673  13.676  0.3902 -0.2308  0.1496
29581W        W42995   4.044   5.734   3.094  0.4225  0.0518 -0.3774
29582W        W42996   8.762   0.824  12.222  0.2886  0.0923  0.1288
29583W        W42997  10.261   4.676  15.247  0.1789 -0.0528 -0.1107
29584W        W42998   2.810  10.761  13.775  0.0230  0.0693  0.2805
29585W        W42999   8.707   6.375   5.448 -0.0359 -0.3555 -0.0871
29586W        W43000   0.948  14.407   0.734 -0.1572  0.1145 -0.3520
29587W        W43001  12.553  17.077   0.443 -0.1411 -0.1511 -0.1016
29588W        W43002   8.269   4.905   0.151 -0.0696 -0.0924  0.1481
29589W        W43003   3.693  10.629   5.502  0.1908  0.0189 -0.0095
29590W        W43004  14.660   3.406  12.370  0.2060  0.3471 -0.0944
29591W        W43005   2.523  16.472   3.369  0.4649 -0.0840 -0.0298
29592W        W43006  12.507  15.239  15.940 -0.2151  0.0467  0.0833
29593W        W43007   6.057   6.219  10.885 -0.0446 -0.0542  0.1542
29594W        W43008   9.732   4.387   4.261 -0.1032  0.3494 -0.2480
29595W        W43009  14.247   5.643   0.380 -0.0797 -0.0696 -0.0367
29596W        W43010   8.283   0.281  11.169  0.1619 -0.0003  0.3589
29597W        W43011  13.171  13.680  16.431  0.0201 -0.2494  0.1658
29598W        W43012   3.807   1.256  11.383 -0.0110 -0.2520  0.1060
29599W        W43013   7.926  15.992   2.990  0.0805 -0.0850 -0.0076
29600W        W43014   8.077   5.719   4.453  0.2625  0.1503 -0.0492
29601W        W43015  13.487  16.711   4.320 -0.2430  0.2066 -0.0539
29602W        W43016   3.701   5.369  13.184  0.0631 -0.2353  0.1069
29603W        W43017  13.421   7.332  12.083 -0.2596  0.0456  0.2898
29604W        W43018   8.724   9.599   0.071  0.0932 -0.1619 -0.0320
29605W        W43019  17.155   5.621   3.251  0.2114 -0.2549  0.3376
29606W        W43020   9.019   4.769  14.483 -0.0639  0.0939  0.0873
29607W        W43021  14.640   7.297  10.609 -0.2410  0.3541 -0.0857
29608W        W43022   1.466  11.242   4.949  0.2643 -0.2846 -0.0264
29609W        W43023   9.164  11.652   0.978 -0.0170  0.2164 -0.0526
29610W        W43024  18.122  18.106   0.962  0.1166 -0.1750  0.1122
29611W        W43025  14.472  16.392  11.407  0.1782 -0.4156 -0.2153
29612W        W43026  14.773   7.059  12.538  0.0296  0.0657  0.5654
29613W        W43027  14.609   5.206  10.925 -0.0339  0.2606  0.0192
29614W        W43028  11.179  15.301  13.612  0.0151 -0.4335 -0.0313
29615W        W43029   0.211  11.726  11.718 -0.0021  0.0249 -0.0621
29616W        W43030  10.407   2.940   1.413 -0.0684 -0.0616  0.0471
29617W        W43031   1.130   3.609  13.983  0.2516  0.0517 -0.0088
29618W        W43032  15.651   5.520   0.199  0.0251 -0.2342  0.1347
29619W        W43033  14.944  15.206   1.357 -0.1429 -0.1840 -0.1680
29620W        W43034   3.688   6.090  11.633 -0.0102 -0.1286 -0.1264
29621W        W43035   3.494  16.932  15.811 -0.0615  0.3337  0.2579
29622W        W43036   8.333   3.914   2.073  0.1545  0.0669  0.1414
29623W        W43037   9.291   9.625  11.209  0.1040  0.3840 -0.1488
29624W        W43038   5.353  16.678   0.262  0.0817 -0.0251 -0.1997
29625W        W43039   9.053   6.564   1.354  0.3389 -0.0057 -0.1180
29626W        W43040   0.225   9.563  14.178  0.0442 -0.0699  0.0571
29627W        W43041   7.641  16.957   1.914  0.0369 -0.0261 -0.3099
29628W        W43042   7.018  17.320   3.235  0.1265 -0.1112  0.0109
29629W        W43043  12.677   0.121   4.901 -0.1651  0.0343  0.0703
29630W        W43044   3.595  13.101  15.309 -0.1190 -0.0510  0.0833
29631W        W43045  16.334  11.223  14.384 -0.0658  0.1081 -0.0745
29632W        W43046   4.379  10.435   5.883  0.1649  0.3458  0.1600
29633W        W43047  14.536  13.451  16.479  0.1000 -0.1613 -0.1372
29634W        W43048   2.174   5.970  13.978 -0.2498 -0.1555 -0.0948
29635W        W43049  16.244   2.812   0.218 -0.3124  0.1349  0.0121
29636W        W43050  15.611   2.816   1.806  0.0093  0.2858  0.2402
29637W        W43051   6.462   0.611   4.900  0.0058  0.0209 -0.2835
29638W        W43052  15.759   1.769  14.826 -0.2099  0.2452 -0.2007
29639W        W43053  15.862  12.434  10.660 -0.2644 -0.0347  0.0181
29640W        W43054  13.101  10.363  15.086  0.0546 -0.1535 -0.2297
29641W        W43055  10.230  13.743  12.301 -0.1161  0.2185 -0.0721
29642W        W43056   3.338  12.498   3.606  0.1807 -0.0656  0.0945
29643W        W43057   3.798  15.270  12.111 -0.3079  0.2558  0.1020
29644W        W43058  11.001   7.354  12.296 -0.2957 -0.0613 -0.2442
29645W        W43059   7.568  10.964  13.298 -0.3586  0.1529 -0.2780
29646W        W43060   1.855   7.646  11.433 -0.0922 -0.0273 -0.2027
29647W        W43061  15.476   8.250   4.127 -0.0196 -0.0247 -0.1687
29648W        W43062  16.218  17.330  16.371  0.0302 -0.2204 -0.1575
29649W        W43063  17.797   5.034   0.854 -0.1740  0.0202  0.3499
29650W        W43064   8.423  10.182   4.948 -0.2435 -0.1019 -0.0409
29651W        W43065  14.651   7.073  11.103 -0.0799  0.0641 -0.0071
29652W        W43066   9.552   5.008   5.048 -0.1049  0.2365  0.1734
29653W        W43067  12.460   9.749   0.110  0.1176  0.2109  0.0166
29654W        W43068  17.331  14.890  12.128 -0.2081 -0.1336  0.3265
29655W        W43069  13.751  10.294   0.208 -0.5145 -0.0880  0.1781
29656W        W43070   2.764   6.712  14.964 -0.5393 -0.0392 -0.0963
29657W        W43071   7.433  15.699  12.440 -0.1731  0.1901  0.1355
29658W        W43072  15.468  17.362  15.455 -0.2573  0.1896  0.0097
29659W        W43073   4.151   2.462  14.241  0.1759 -0.0475  0.0258
29660W        W43074   1.061   9.519   5.376 -0.2100  0.0225  0.0525
29661W        W43075  10.606   8.396   5.108 -0.1463 -0.0919  0.0076
29662W        W43076   2.494   2.231   4.375 -0.0582  0.0590  0.2356
29663W        W43077  12.057   6.783   0.058 -0.1014  0.2146  0.4339
29664W        W43078  10.323  11.372  12.274 -0.0074  0.0916 -0.4498
29665W        W43079  12.429  13.390   5.055 -0.0139 -0.0034 -0.0265
29666W        W43080   9.138   8.043  12.826 -0.1124 -0.1023 -0.1251
29667W        W43081   2.818   1.541   5.289  0.1842  0.0899 -0.2078
29668W        W43082   6.857   1.231  13.966  0.0371 -0.0717 -0.0216
29669W        W43083  17.838   5.200  13.774  0.0649 -0.2918 -0.0798
29670W        W43084   8.938  10.697   9.855  0.0170 -0.3226 -0.4254
29671W        W43085  14.670  18.047  13.193 -0.0016 -0.0845  0.1298
29672W        W43086   7.388  10.212   5.735  0.2251  0.3120 -0.1429
29673W        W43087  15.352  15.546  12.990  0.0749 -0.1536 -0.2743
29674W        W43088   4.563  16.807  12.900  0.4321  0.1403  0.2479
29675W        W43089  14.238  15.006   2.526  0.2269 -0.1525 -0.0864
29676W        W43090   1.928   8.738   3.422  0.1980 -0.0437 -0.1582
29677W        W43091   1.587  10.096  10.951  0.2966 -0.0429 -0.1613
29678W        W43092  16.926  10.545  11.494 -0.0878  0.1524  0.2078
29679W        W43093  13.772   7.263  12.436 -0.3378  0.2761  0.2307
29680W        W43094  15.733  15.686   2.537 -0.1404  0.0884  0.1174
29681W        W43095   6.345   1.101  12.516 -0.0631 -0.1017  0.0495
29682W        W43096  14.590  13.094  15.124 -0.1018 -0.0119 -0.0954
29683W        W43097  17.065   2.407  11.304  0.2167 -0.3943 -0.1636
29684W        W43098   0.298  13.067  12.327 -0.0106 -0.0244  0.0946
29685W        W43099   4.876  13.406   5.979 -0.0120  0.0790 -0.1397
29686W        W43100  10.320   3.497   5.910  0.1025  0.0171 -0.2050
29687W        W43101   0.709   5.921  15.110  0.0047 -0.0295  0.0660
29688W        W43102  10.268   8.298  10.675 -0.0467  0.2636  0.3135
29689W        W43103   7.644   0.460  10.706 -0.2253 -0.1265 -0.0620
29690W        W43104  10.852  16.300   2.950  0.0956 -0.1315  0.0999
29691W        W43105   9.063  17.389   4.947  0.0861 -0.1175 -0.1708
29692W        W43106   8.480  14.639  14.713  0.0601  0.0005 -0.2253
29693W        W43107   8.432   1.683  12.639  0.2742  0.2490  0.0751
29694W        W43108   2.144   7.898  12.524  0.0342 -0.0725 -0.1111
29695W        W43109  15.809  13.016  11.339  0.1486  0.0564  0.0181
29696W        W43110   3.388  17.967   4.908  0.1872  0.2100  0.2675
29697W        W43111  16.925   3.735  11.046 -0.0090 -0.0237  0.0820
29698W        W43112  12.741   7.571  15.015  0.3321  0.0177  0.2636
29699W        W43113   8.486   3.183   4.607 -0.0194  0.0503 -0.1247
29700W        W43114  11.769  11.634   5.738  0.4255 -0.0618  0.1150
29701W        W43115   8.087   7.651  10.214  0.0948  0.0294 -0.1260
29702W        W43116  14.265  11.265   4.575 -0.0701  0.2598 -0.0347
29703W        W43117   4.327  10.868   2.170  0.0294 -0.4334  0.1660
29704W        W43118  12.351  12.832   1.328 -0.0085  0.0276 -0.0860
29705W        W43119   3.015  15.602   5.164  0.1720 -0.2796  0.0933
29706W        W43120   7.119  15.768  11.628 -0.2920  0.0468 -0.0704
29707W        W43121   3.486   5.128   3.496  0.0727  0.0122 -0.0995
29708W        W43122  11.977   1.272   2.165 -0.3559  0.0321 -0.0112
29709W        W43123  13.494   2.101  11.228  0.2684  0.0880  0.0835
29710W        W43124  14.174  18.234  15.498 -0.4255  0.1401  0.0810
29711W        W43125   6.901  11.179  10.731 -0.0380 -0.1176  0.3123
29712W        W43126  18.035   2.000   0.970  0.1176 -0.2276  0.1557
29713W        W43127   3.193   4.596   2.328 -0.0576  0.1294  0.2010
29714W        W43128   3.162  12.881  11.066 -0.1552 -0.1038  0.2510
29715W        W43129   4.489   6.975   0.245  0.0234  0.0862 -0.1784
29716W        W43130   7.287   7.502  13.925  0.1319 -0.0716 -0.1987
29717W        W43131  17.867   9.528   3.472  0.1130  0.0227  0.2220
29718W        W43132   7.771  12.854   3.225 -0.3172 -0.0704 -0.1706
29719W        W43133   0.347  12.465  13.633 -0.0590 -0.1813  0.1916
29720W        W43134  11.233  11.145   6.038  0.4352 -0.0968 -0.0863
29721W        W43135   8.491   5.527  12.338 -0.3942  0.2697  0.2874
29722W        W43136  12.000   1.425   1.454 -0.1313 -0.0791 -0.0071
29723W        W43137  12.821  12.832  13.565 -0.3326  0.1039 -0.3494
29724W        W43138   3.732  10.217  16.485 -0.0341 -0.0335 -0.0116
29725W        W43139  12.816  13.375   5.787  0.0485  0.3461  0.1067
29726W        W43140   3.615   7.278   0.156  0.1278  0.1709  0.2533
29727W        W43141   9.870   8.795  11.287  0.2298  0.0387  0.2556
29728W        W43142  10.844   0.917   1.935 -0.1321 -0.0116  0.1277
29729W        W43143  11.897  15.186   2.411  0.0838 -0.1311 -0.2907
29730W        W43144  15.130   0.274   1.195  0.0017  0.2222 -0.3005
29731W        W43145   5.921   7.871   1.694 -0.2389 -0.0280  0.0690
29732W        W43146   6.801   7.686   5.573  0.1116 -0.2202 -0.2223
29733W        W43147   5.699  17.357  13.275 -0.1208  0.0341  0.2371
29734W        W43148   8.761  15.213  12.825  0.3376 -0.0430  0.1035
29735W        W43149   3.444   3.942   1.246  0.0590 -0.2620  0.0735
29736W        W43150   3.145  15.768   5.716 -0.1126  0.2977  0.0172
29737W        W43151   1.956   2.133   5.191  0.3427  0.0643 -0.1415
29738W        W43152  13.527  18.092  14.332 -0.0823 -0.1767  0.0969
29739W        W43153  12.070  16.908   1.378  0.3362 -0.0949  0.1156
29740W        W43154  13.519  14.305  12.029 -0.1250  0.3358 -0.2035
29741W        W43155  11.429   3.654   6.330  0.1188  0.0697  0.1216
29742W        W43156   5.449   0.577   1.492 -0.2256 -0.0823 -0.1971
29743W        W43157   9.701  11.409   2.948 -0.0718 -0.0680  0.2819
29744W        W43158  12.159   2.110   6.901 -0.4624 -0.0207 -0.1777
29745W        W43159   0.594   1.235   4.081  0.2112 -0.0507  0.3119
29746W        W43160  12.956   6.916   4.534 -0.0391 -0.1524 -0.1234
29747W        W43161  14.719  11.699   0.643  0.1718 -0.2254 -0.1039
29748W        W43162   2.760   0.638   5.524 -0.2298 -0.1423 -0.0064
29749W        W43163  17.368   4.843  14.673 -0.3156 -0.0151  0.2697
29750W        W43164   4.313  13.775   1.355 -0.1395 -0.1326  0.0018
29751W        W43165   2.286  17.101   0.743  0.0270  0.1303 -0.1217
29752W        W43166  15.351   7.746  16.410 -0.0957 -0.2010 -0.0177
29753W        W43167   3.908   5.090   4.297 -0.1411  0.1193  0.0516
29754W        W43168  11.354  13.823  13.916  0.1259 -0.0089  0.4865
29755W        W43169  14.234   9.439   1.220  0.3446  0.3759  0.2783
29756W        W43170  10.790  12.181   0.510 -0.1204 -0.2501 -0.2632
29757W        W43171   3.938  12.722   9.906 -0.0606 -0.2194 -0.3826
29758W        W43172   5.870  17.833  11.806 -0.1367  0.2745  0.1546
29759W        W43173   8.045   2.423   5.156  0.2686  0.1215  0.3664
29760W        W43174   1.203   5.047  13.890 -0.0044 -0.0499  0.0555
29761W        W43175  11.007  15.457   0.637 -0.0080 -0.0020  0.2805
29762W        W43176  13.418  10.592   5.903 -0.1717  0.0547  0.2188
29763W        W43177  11.452  13.736  14.901 -0.0525  0.1559  0.0423
29764W        W43178   3.309   8.379  14.455 -0.1210  0.1425  0.2266
29765W        W43179   4.847   0.711  10.177 -0.1852  0.0449 -0.1513
29766W        W43180  15.591   8.030   0.551 -0.4112  0.0191 -0.2020
29767W        W43181  13.938  12.207  10.351 -0.2591 -0.0143  0.1207
29768W        W43182  16.677  11.015  14.745  0.4004  0.1959  0.1828
29769W        W43183  12.950   8.042  14.991  0.1336 -0.0964  0.0566
29770W        W43184   8.489  16.908   5.998  0.0014  0.0830  0.4405
29771W        W43185  13.179  10.311   3.566  0.3464  0.0409  0.1243
29772W        W43186   0.634  16.078   2.145  0.1102  0.0745  0.0225
29773W        W43187  14.936   1.348   4.021  0.0264  0.2099 -0.3528
29774W        W43188   9.762   2.212   2.381  0.1307  0.1439 -0.0185
29775W        W43189  12.329   7.116  10.591  0.1479 -0.0352  0.3035
29776W        W43190   2.605   2.278  10.371  0.4989  0.2326 -0.3423
29777W        W43191  14.050   5.579  11.082  0.0785 -0.0649 -0.0148
29778W        W43192  17.761  11.437  14.476  0.0319 -0.0922 -0.3338
29779W        W43193  13.891  10.365  10.983 -0.2269  0.0074 -0.0294
29780W        W43194  17.095  13.144  12.128  0.0078  0.0620  0.2358
29781W        W43195  11.420   4.267  16.204  0.2119 -0.0921 -0.4318
29782W        W43196  10.613   6.404  16.416 -0.2833 -0.0424 -0.0352
29783W        W43197   6.730   6.841  11.075 -0.0058 -0.0091 -0.0973
29784W        W43198  15.008   9.284   2.497  0.1242 -0.1098 -0.0012
29785W        W43199   6.558  15.809   0.867  0.1796 -0.0381 -0.0090
29786W        W43200   8.655   5.253   9.823  0.1245 -0.1292 -0.2219
29787W        W43201  16.958  12.938   2.043  0.0321 -0.1581 -0.0749
29788W        W43202  13.739   5.523   5.030 -0.0882 -0.0609  0.2878
29789W        W43203   1.233   4.914   4.783 -0.0445  0.0208 -0.1501
29790W        W43204  13.323   7.190   5.472 -0.1308 -0.3320 -0.1788
29791W        W43205   1.255  11.747  15.992 -0.0413  0.0684 -0.1010
29792W        W43206  18.087  10.642  14.518 -0.0669 -0.1681  0.0356
29793W        W43207  16.804   4.640  13.698  0.2571 -0.1328 -0.0682
29794W        W43208  16.038   9.536   1.182  0.1780  0.1792 -0.0886
29795W        W43209   3.845  12.759  15.786 -0.2245  0.0913  0.1016
29796W        W43210  11.917  15.773   3.830  0.4039  0.2317  0.2846
29797W        W43211  15.376  17.377   5.106  0.1478  0.0226 -0.0858
29798W        W43212  10.818   5.439   4.692  0.1340  0.2398  0.0463
29799W        W43213  13.150  15.560   3.241  0.1835  0.1651 -0.1031
29800W        W43214  10.553  12.640   2.586  0.0143 -0.1012 -0.4772
29801W        W43215  10.163   3.041   0.996  0.4509 -0.1174 -0.1087
29802W        W43216  14.889   0.185  15.114  0.4276 -0.1553 -0.0671
29803W        W43217  10.928  17.284   0.471 -0.1885  0.0563  0.1046
29804W        W43218  12.205  17.679  16.445 -0.0768 -0.1007 -0.1149
29805W        W43219   8.121   6.615  11.869 -0.1661 -0.2567  0.1694
29806W        W43220   4.283  11.685   3.408 -0.1100 -0.0926 -0.0727
29807W        W43221  12.323   0.036   6.322 -0.3992  0.2941  0.2306
29808W        W43222   8.431  18.164  14.591 -0.0794 -0.1518  0.0090
29809W        W43223  16.379  16.491  12.748 -0.0836 -0.1011 -0.0026
29810W        W43224  14.611  12.411   1.849 -0.2456 -0.2349 -0.1188
29811W        W43225   9.281   1.284   2.723  0.0847 -0.0928  0.2541
29812W        W43226  10.725   2.412   2.026  0.2031  0.2263 -0.1816
29813W        W43227  10.326   0.016   1.899  0.0325 -0.2234 -0.1731
29814W        W43228   2.406  15.346   0.494  0.0131  0.2160 -0.4587
29815W        W43229  15.392  15.212  15.577 -0.0018  0.0582  0.0565
29816W        W43230   6.146  10.246  10.553 -0.0068  0.3349 -0.1825
29817W        W43231  10.242   7.755  13.924 -0.0648 -0.2807 -0.1861
29818W        W43232   5.271   7.105   3.487 -0.1421  0.0448  0.2399
29819W        W43233  14.038  13.638  13.866 -0.0093 -0.0670 -0.0194
29820W        W43234  10.062   4.530   2.419 -0.1063  0.1599  0.4071
29821W        W43235  15.181   7.408   2.814 -0.1550 -0.2520  0.0002
29822W        W43236  11.283   9.378   1.513  0.0115  0.1059  0.0440
29823W        W43237   7.011   0.070  14.294 -0.0493 -0.1707  0.2529
29824W        W43238  15.994  17.875   2.316 -0.1242  0.1924 -0.0764
29825W        W43239   2.824  14.010   6.056 -0.0324  0.1772 -0.1300
29826W        W43240   4.934   6.891  15.089 -0.0597 -0.0848 -0.1771
29827W        W43241  14.426   9.633  12.701 -0.0616  0.1033  0.1574
29828W        W43242  15.888  16.982  11.286 -0.0111 -0.2077 -0.0952
29829W        W43243  17.936  13.494  16.184  0.0169  0.2945  0.0635
29830W        W43244   5.529   1.388   4.917 -0.0553 -0.0951  0.2946
29831W        W43245   2.455  17.524   2.903  0.2396 -0.4312 -0.0726
29832W        W43246  16.585  12.960   5.217 -0.0935  0.1069 -0.1175
29833W        W43247   3.359   1.441   5.202 -0.1087  0.0608  0.0752
29834W        W43248  17.912  18.132   5.894  0.2116  0.0657  0.0900
29835W        W43249   7.975   2.427  15.281  0.1122 -0.1458 -0.0160
29836W        W43250  11.993   7.783  16.197 -0.1009 -0.0310 -0.0070
29837W        W43251  11.110   5.316  12.490  0.0303  0.2008 -0.1019
29838W        W43252  12.250  11.006  14.079 -0.2260  0.1659 -0.2535
29839W        W43253  16.227  15.009   5.901 -0.1173  0.0365 -0.2535
29840W        W43254   9.724  10.380   5.812 -0.3728 -0.3034 -0.1252
29841W        W43255   8.146   8.665  14.579  0.1822 -0.1504 -0.0145
29842W        W43256  17.638   2.718  16.440 -0.0172  0.0851  0.1032
29843W        W43257   0.413  16.251  14.863  0.2006 -0.0525  0.4044
29844W        W43258  12.692   4.538  13.208  0.1081  0.1143  0.1072
29845W        W43259  17.880  15.220   4.075 -0.3128 -0.1140 -0.1780
29846W        W43260   4.422   1.544  11.379  0.0446 -0.0810 -0.2113
29847W        W43261  11.814   4.533   2.128 -0.2493  0.1603  0.0610
29848W        W43262   6.389   1.687   1.239  0.2880  0.1362  0.2138
29849W        W43263  10.986   4.233   3.489 -0.1733  0.4892  0.1239
29850W        W43264   1.517   2.343   1.025 -0.5475 -0.0471 -0.0996
29851W        W43265   6.803   6.205  14.481  0.1943  0.2589  0.0749
29852W        W43266   5.595   4.106   2.376  0.0145 -0.1333  0.1784
29853W        W43267   4.914   5.258   1.140 -0.0785  0.0137  0.0755
29854W        W43268  10.865   3.432   0.642  0.0168 -0.0755 -0.0731
29855W        W43269   8.955   4.356  16.275  0.0970  0.0549 -0.0825
29856W        W43270   1.242   7.545  16.485 -0.1291  0.3339  0.0444
29857W        W43271   9.209   7.801   2.180  0.6192 -0.0214  0.2740
29858W        W43272  11.274   7.805  15.374  0.0670  0.2768 -0.3029
29859W        W43273  14.473   4.217   9.800  0.1789 -0.0659  0.3730
29860W        W43274   9.851   0.829  11.268 -0.0855 -0.3997  0.0211
29861W        W43275   5.306   7.500   2.344  0.0984  0.1235 -0.0129
29862W        W43276  14.887   3.820   2.836 -0.1639 -0.0335 -0.3931
29863W        W43277   6.447  17.583  13.535  0.1972 -0.2553  0.1126
29864W        W43278  13.715   8.335  16.400 -0.3047 -0.1686  0.0004
29865W        W43279   5.990   0.617  11.052  0.0308  0.2163 -0.2453
29866W        W43280   0.851   7.358  15.615 -0.0743 -0.0260  0.4312
29867W        W43281  16.657   5.874  11.686  0.0715 -0.1622  0.2043
29868W        W43282   0.642   7.282   3.596 -0.2806  0.1160  0.0834
29869W        W43283   1.074  11.994   2.545 -0.1215 -0.0294  0.1911
29870W        W43284   5.916  14.915  11.742  0.1828  0.0093  0.0802
29871W        W43285  13.102   0.056   1.148 -0.1756  0.0029 -0.3391
29872W        W43286  10.121  12.278   5.175  0.4123 -0.1906  0.1935
29873W        W43287  11.637   7.141  13.604 -0.0330 -0.3209  0.0613
29874W        W43288  15.436   4.453  15.780 -0.0164  0.0894 -0.0424
29875W        W43289  14.305  14.716  15.590  0.2007  0.1239 -0.0980
29876W        W43290   8.314  17.619  15.186 -0.0257 -0.0625 -0.3414
29877W        W43291  13.387   6.689   1.877 -0.0304 -0.0726 -0.0907
29878W        W43292   4.107   9.149   0.757 -0.1927  0.0028  0.0489
29879W        W43293   3.703  17.513   4.963  0.0657 -0.0236  0.0727
29880W        W43294  15.802   2.982  13.473  0.2224  0.4945 -0.1088
29881W        W43295  13.876  17.118  15.441  0.1355 -0.0894 -0.0424
29882W        W43296   9.195   0.539   6.891 -0.2991  0.0698 -0.2251
29883W        W43297   9.460  14.215   1.426  0.3232 -0.0095  0.0926
29884W        W43298   5.046  13.928  13.156  0.1132  0.2065 -0.0176
29885W        W43299   9.918  17.402   2.781 -0.1433  0.0464 -0.0780
29886W        W43300   7.324  18.185   4.835  0.2567  0.0894 -0.1340
29887W        W43301   0.675   8.752   1.898  0.0769  0.1015  0.0014
29888W        W43302   4.277  17.749   6.066 -0.1146  0.0130 -0.1606
29889W        W43303  15.912  17.348   4.538 -0.1016  0.1235 -0.3691
29890W        W43304   6.948   4.358   2.596 -0.0448 -0.1860 -0.0934
29891W        W43305  17.497   7.736   3.511  0.3972 -0.0449  0.2484
29892W        W43306   8.903  15.587  14.936  0.0697  0.1686 -0.2476
29893W        W43307  13.302   9.279   0.618  0.1816 -0.0533 -0.1673
29894W        W43308  16.834   0.657  13.313  0.1051  0.1401  0.1207
29895W        W43309  16.757   2.801   3.105 -0.0203  0.3034 -0.0813
29896W        W43310   8.229   4.154  11.851 -0.0791 -0.1868  0.1168
29897W        W43311  17.141  16.643   1.167  0.1228  0.0547 -0.3538
29898W        W43312  15.492  11.315  10.680  0.1530  0.2875 -0.0511
29899W        W43313   8.318   1.841  15.677  0.2191 -0.0277  0.2577
29900W        W43314   0.287  15.527   0.245  0.1234  0.2349  0.1085
29901W        W43315  10.169   5.418   5.851  0.1681  0.0733  0.1646
29902W        W43316   5.804   1.570  14.719 -0.0378 -0.1054  0.1391
29903W        W43317   6.556  17.385  10.962  0.1285  0.0668  0.3029
29904W        W43318   3.210  16.639  11.050 -0.1049  0.1138  0.1844
29905W        W43319  14.659  13.687   6.078 -0.0271 -0.0728 -0.0398
29906W        W43320  11.630  10.722   2.190 -0.4197 -0.0977 -0.0337
29907W        W43321   7.308   1.802   2.294  0.0344 -0.1877  0.1138
29908W        W43322  12.367   4.188  15.384  0.3007 -0.0753 -0.0260
29909W        W43323  10.737  14.214  13.208 -0.0511  0.1328 -0.1178
29910W        W43324   7.209   6.060   0.293 -0.2253  0.4126 -0.0288
29911W        W43325  15.520  17.890  13.669 -0.0115  0.0230  0.0226
29912W        W43326   6.877   5.278  15.933  0.2359 -0.1834 -0.1182
29913W        W43327  15.908  17.286  11.817 -0.3197 -0.0129 -0.0907
29914W        W43328  17.718  10.894  12.478  0.1200 -0.0472  0.0378
29915W        W43329   0.742  16.763  14.948 -0.1634  0.0898 -0.2183
29916W        W43330  17.683   6.394  10.085  0.0622  0.1767 -0.0424
29917W        W43331   2.147   9.231   0.593  0.2345  0.2531  0.1050
29918W        W43332   7.975  11.927   4.886  0.1379  0.0839 -0.2121
29919W        W43333  12.335  12.629   3.376  0.1861 -0.2739  0.1786
29920W        W43334   1.047  10.439   2.547 -0.3801  0.2569 -0.1946
29921W        W43335   9.942   5.641   4.457  0.1401 -0.1906 -0.1835
29922W        W43336   1.151   6.400  10.486 -0.1256  0.2097  0.0101
29923W        W43337  10.967  17.498  15.207 -0.4071  0.2976 -0.1142
29924W        W43338   5.801  10.198  10.963  0.0487 -0.1620 -0.1092
29925W        W43339   1.979  10.230  14.101  0.1576  0.0213 -0.1094
29926W        W43340   1.199   2.342  12.098 -0.0379  0.4002  0.0175
29927W        W43341  13.447  18.141  16.114  0.1141  0.0237 -0.0657
29928W        W43342   7.720  17.335   2.717 -0.1207  0.2248  0.2161
29929W        W43343  11.262  10.279   5.595  0.2718 -0.1181  0.2133
29930W        W43344  13.121  17.676  15.448  0.2311  0.2188 -0.1082
29931W        W43345   2.501  12.100   4.275  0.0144 -0.2253 -0.0182
29932W        W43346   2.337  11.440   1.195 -0.0744 -0.1761 -0.2662
29933W        W43347   9.506   0.100   2.203 -0.1021 -0.0248 -0.0119
29934W        W43348  17.685   8.432  15.939 -0.0034  0.0310  0.0338
29935W        W43349   8.525   7.549  12.342 -0.1440  0.1635  0.0597
29936W        W43350   2.801   8.688  12.132 -0.0883  0.0796 -0.0368
29937W        W43351   7.131  12.211  13.021  0.0391  0.5822  0.0505
29938W        W43352  15.146   8.923  11.500 -0.0851  0.0563 -0.1603
29939W        W43353  12.562   6.010   4.345  0.0344  0.2039 -0.2134
29940W        W43354   9.641  12.155   4.902  0.1073  0.1252 -0.1672
29941W        W43355  12.372   9.891  10.690 -0.0774 -0.0928 -0.2640
29942W        W43356  13.974  17.764  15.378  0.3069  0.2545  0.0317
29943W        W43357  15.282  11.419  12.843  0.1000 -0.0022 -0.0114
29944W        W43358  13.626   8.250   2.771  0.0060 -0.0790 -0.3749
29945W        W43359   8.986  13.457  12.398  0.0605  0.2598  0.0001
29946W        W43360  10.126   0.880  11.753  0.1842  0.0648  0.2741
29947W        W43361  16.368   5.789  12.066  0.3593 -0.3477 -0.1751
29948W        W43362   1.224  17.759   4.371 -0.0611  0.0325 -0.0767
29949W        W43363   9.963  12.340   5.772 -0.1339  0.2957 -0.2619
29950W        W43364  15.647   8.089  14.177  0.2951 -0.1243 -0.1321
29951W        W43365   1.456   3.534  12.837  0.0003  0.1945  0.2052
29952W        W43366  11.828  12.777   6.704  0.0266 -0.2039 -0.0600
29953W        W43367  13.969   7.274   1.469 -0.0182 -0.1415 -0.1519
29954W        W43368   9.037  17.826  14.851  0.0425 -0.1248  0.1926
29955W        W43369  13.435   6.829  10.356 -0.2031 -0.0046 -0.0040
29956W        W43370   5.859   5.687   5.022  0.1887  0.1048 -0.1326
29957W        W43371  10.507   7.642   3.677 -0.0046 -0.0112 -0.1899
29958W        W43372   1.044   6.334  14.604 -0.0065 -0.0034 -0.0383
29959W        W43373  13.305   3.333  16.063  0.3855  0.0280  0.0723
29960W        W43374  14.138   9.181   0.069  0.0544 -0.0971  0.0934
29961W        W43375  12.508   4.088  13.266  0.2377 -0.0511 -0.1102
29962W        W43376  17.976  11.910  15.061  0.0601 -0.4059 -0.3292
29963W        W43377   1.522  16.481   1.045  0.1166 -0.1970 -0.0998
29964W        W43378  14.252   2.680  16.540 -0.0906  0.1366 -0.0819
29965W        W43379  14.369  10.395   1.221 -0.1042  0.2386 -0.0329
29966W        W43380   6.670   3.928   4.284  0.2740  0.1839  0.0579
29967W        W43381   6.712   2.902  13.955 -0.1301  0.3667 -0.0025
29968W        W43382  13.871  16.934   1.678  0.1620  0.0733 -0.1508
29969W        W43383  14.339  14.055  14.925  0.0477  0.2448  0.2145
29970W        W43384   1.607  11.999  10.857  0.3620 -0.4993  0.1279
29971W        W43385  15.601   3.522  12.589 -0.0549  0.0860  0.0621
29972W        W43386   4.142   6.229   5.570  0.0636  0.0102 -0.0536
29973W        W43387   8.264   7.509   0.011  0.0318 -0.3137 -0.0479
29974W        W43388   6.595   0.958  14.336  0.0192  0.1965  0.0743
29975W        W43389   2.321  13.384  15.006 -0.0326 -0.0634  0.1603
29976W        W43390   5.699  14.337   1.720  0.3141 -0.0945  0.2977
29977W        W43391  15.422  12.482  12.514 -0.0548 -0.1145 -0.2909
29978W        W43392   2.015   1.899  15.547 -0.0390  0.0822 -0.2066
29979W        W43393   7.700   9.735   5.771  0.3154 -0.1824  0.0249
29980W        W43394  18.214   9.388  13.841  0.0167  0.3683 -0.4581
29981W        W43395  15.545  11.541  12.428  0.1370 -0.1594 -0.1269
29982W        W43396  14.756  14.714   3.238  0.0433 -0.0965 -0.3124
29983W        W43397   4.852   4.987  13.853 -0.1977  0.4142 -0.3449
29984W        W43398   2.180  17.066   1.272 -0.2143 -0.2619  0.1858
29985W        W43399   8.381   0.386  14.570  0.2421 -0.0733  0.1783
29986W        W43400  18.126  14.132   1.386  0.0802  0.0150  0.2988
29987W        W43401  17.398  13.736   4.179  0.2970 -0.0475 -0.4455
29988W        W43402   0.882  16.405  16.130 -0.0835  0.4029 -0.1102
29989W        W43403  15.112  10.019   0.008  0.0340  0.3134 -0.1661
29990W        W43404   0.370   2.247   4.981 -0.0937 -0.0767  0.4185
29991W        W43405  16.527   9.845   5.484 -0.0139  0.0795  0.1993
29992W        W43406   8.893  14.842   2.564  0.0483 -0.0595 -0.0862
29993W        W43407   5.722   3.694  15.414 -0.0035  0.0407  0.0688
29994W        W43408   3.447   2.736  15.939 -0.0146  0.0223 -0.0001
29995W        W43409  17.426   9.370   5.213 -0.2971 -0.1397 -0.0027
29996W        W43410   7.905   2.340   0.218  0.2281 -0.2831 -0.0133
29997W        W43411  12.094  14.616  13.541  0.1404  0.3547  0.1506
29998W        W43412   6.653  16.364   4.362 -0.0138 -0.2465  0.0327
29999W        W43413  16.387   0.977   2.969  0.0119 -0.1182  0.1932
30000W        W43414  14.705   6.862   3.534  0.1412  0.0194 -0.0499
30001W        W43415  18.037  13.670  12.255  0.0659  0.2083  0.0768
30002W        W43416  18.109  12.343   1.936  0.0551 -0.2253 -0.1261
30003W        W43417  15.198   8.863  14.723  0.1858 -0.0231  0.2386
30004W        W43418   8.553   4.366  12.340 -0.1756  0.1881 -0.0322
30005W        W43419   6.164   2.700   1.321 -0.2194  0.2297 -0.3255
30006W        W43420  11.937  16.014   3.253  0.0829  0.1205 -0.1938
30007W        W43421   1.847   9.921   5.867 -0.0262  0.2099  0.1916
30008W        W43422   5.070  14.783  15.549  0.2111  0.0005 -0.0659
30009W        W43423   2.762   4.823   1.959 -0.0680  0.1120 -0.1487
30010W        W43424  13.869  10.999   3.713 -0.0461  0.0409 -0.0555
30011W        W43425   3.071   8.336  11.656 -0.1181 -0.1308  0.0712
30012W        W43426   2.472  10.956   3.877 -0.1390  0.0808 -0.0017
30013W        W43427   1.833  16.203  15.333 -0.0742  0.1345  0.3464
30014W        W43428   9.912   9.124   0.691  0.0556 -0.0228 -0.0992
30015W        W43429   5.282  12.587   1.058 -0.0923 -0.1421 -0.2465
30016W        W43430   8.011  16.239   2.480  0.3030 -0.0445 -0.1216
30017W        W43431   2.455   5.029  12.411 -0.2350 -0.0220  0.3446
30018W        W43432  17.142  15.658  12.638 -0.1661  0.1076  0.2063
30019W        W43433  13.813  11.352  11.228  0.1339  0.1890  0.2639
30020W        W43434  17.595  16.709   5.009  0.2458 -0.2293 -0.1915
30021W        W43435   6.085   9.126  16.218  0.0223 -0.0839  0.4178
30022W        W43436  12.361  12.328  14.535 -0.0738 -0.1150  0.1482
30023W        W43437  16.875  17.307   3.228 -0.1013 -0.1603  0.2562
30024W        W43438  17.667   0.904   3.907 -0.0444  0.1456 -0.1775
30025W        W43439  14.493  17.562  12.336 -0.1331 -0.0136 -0.0852
30026W        W43440   3.175   3.336  10.010  0.1679  0.1060 -0.1228
30027W        W43441   4.509   2.071  13.155 -0.1970  0.2394 -0.2208
30028W        W43442  17.636  15.814  15.223 -0.0532 -0.0393  0.2450
30029W        W43443   8.889   7.994   4.927 -0.0793  0.0636 -0.4785
30030W        W43444   7.696   3.287  10.912 -0.1113 -0.4274 -0.1098
30031W        W43445   8.763  15.118   0.042  0.0620  0.1604  0.1162
30032W        W43446  15.440   5.827   2.617  0.1045  0.0074  0.3251
30033W        W43447   9.532  13.318   5.869  0.3544 -0.2723  0.1977
30034W        W43448  12.104  12.017  11.958 -0.1694  0.0781 -0.3398
30035W        W43449  17.094  10.725   2.873 -0.0220  0.0372 -0.3180
30036W        W43450  17.707   7.425   5.496  0.0096 -0.2664 -0.2207
30037W        W43451   2.534   4.646  15.256 -0.2952  0.0748  0.0001
30038W        W43452  10.045  14.730  13.522 -0.0275 -0.1707 -0.1360
30039W        W43453   1.171  10.630  13.793  0.1182  0.3402 -0.2237
30040W        W43454   7.788   6.552  10.764 -0.0926 -0.4105 -0.0324
30041W        W43455  10.397  12.220  14.513  0.1232  0.3315 -0.1989
30042W        W43456   7.860  11.696  14.555  0.0479 -0.0827 -0.0439
30043W        W43457   3.813   6.494   1.114  0.2015  0.0199  0.5646
30044W        W43458   3.135   2.441   4.876 -0.2136 -0.1916 -0.1210
30045W        W43459   9.968   9.616  10.554  0.2938 -0.0837  0.2985
30046W        W43460  13.355  16.290  14.708 -0.0397  0.1552 -0.2147
30047W        W43461  13.147   5.398  13.752 -0.2244  0.2483 -0.2372
30048W        W43462   3.055   0.913   3.769  0.1006 -0.0352 -0.0280
30049W        W43463   8.972  12.816   0.463 -0.0060  0.0959  0.1575
30050W        W43464   1.695   2.575  12.218 -0.0290 -0.1806 -0.2266
30051W        W43465   1.103   8.788  11.846  0.1295  0.0069  0.5033
30052W        W43466  10.645   3.262   1.730 -0.1917  0.3633  0.0102
30053W        W43467  16.461  10.879   5.581 -0.0503 -0.0436 -0.4534
30054W        W43468  18.058  15.359   2.078  0.1775  0.1523 -0.0072
30055W        W43469  14.318   7.041  15.577 -0.0115  0.0833  0.1060
30056W        W43470  10.733   8.260  15.886  0.0085 -0.2963  0.1020
30057W        W43471  15.856  11.890   6.385 -0.0268 -0.2283 -0.1403
30058W        W43472   5.340  14.802  13.061 -0.0053  0.3065 -0.0807
30059W        W43473   7.976   8.706  12.003  0.2063  0.3000 -0.1379
30060W        W43474   6.958  10.470   2.201  0.0281 -0.0257  0.0052
30061W        W43475   0.352   3.864  13.026 -0.1151 -0.1503  0.1884
30062W        W43476   0.112   9.811  12.511  0.0558 -0.2029 -0.1557
30063W        W43477   2.888  10.958  11.428 -0.0450  0.0536 -0.2155
30064W        W43478  17.774  18.182  15.032  0.1744  0.1811 -0.0981
30065W        W43479  14.355  16.646   5.566 -0.0707 -0.0496  0.5059
30066W        W43480   0.377  18.001  12.615  0.0336  0.1318 -0.0575
30067W        W43481   2.887  12.628  16.400 -0.0720 -0.2775  0.0943
30068W        W43482  11.060  16.524   0.590  0.0209  0.0196  0.0709
30069W        W43483  13.237   9.122   4.056 -0.1879 -0.2136  0.1994
30070W        W43484   5.430  16.634  13.381 -0.2680  0.0046  0.0525
30071W        W43485   4.992   0.303   1.740  0.0050  0.2609  0.2402
30072W        W43486   3.949   4.680  14.787 -0.1620 -0.1168  0.2245
30073W        W43487  16.239   6.151  15.065  0.0364  0.0188  0.1743
30074W        W43488  14.116   4.869  15.920  0.1689 -0.0172  0.3260
30075W        W43489  16.566   0.864   5.289  0.0820 -0.0839 -0.0676
30076W        W43490  17.656  13.299   4.160 -0.0227 -0.2585  0.2506
30077W        W43491  16.180  11.257   1.287 -0.4517 -0.1994  0.1577
30078W        W43492   1.105   0.750  10.943  0.1210  0.1053  0.3469
30079W        W43493  13.597  10.467   5.447  0.0965  0.0888  0.3541
30080W        W43494  16.022   3.360  10.639 -0.0864  0.3484  0.1648
30081W        W43495   8.103  13.590   0.866  0.0648  0.0278  0.2013
30082W        W43496   7.740   1.403  12.866  0.0477 -0.1978  0.0572
30083W        W43497   7.179  10.671  13.519  0.0784 -0.0283 -0.1941
30084W        W43498   9.039  18.241   3.207 -0.2250  0.1705  0.0707
30085W        W43499   2.464  14.518   0.095  0.1252 -0.2400  0.1034
30086W        W43500  16.891   0.751   0.494  0.0809  0.0206 -0.0275
30087W        W43501  12.012  15.551  10.365  0.2784  0.1851  0.1485
30088W        W43502  16.691  13.926   5.259 -0.2203  0.1540 -0.1934
30089W        W43503   1.931   5.817  15.807  0.0458  0.2490 -0.1058
30090W        W43504  15.917   9.477  14.358  0.3531  0.3795 -0.0779
30091W        W43505   9.187  17.695   2.997 -0.2090  0.0586 -0.0971
30092W        W43506  14.719   8.941  11.249 -0.2458  0.0337 -0.0501
30093W        W43507   2.035   8.718  16.400 -0.0199  0.2384 -0.1493
30094W        W43508  10.889   8.327  11.386 -0.1253  0.1004 -0.1507
30095W        W43509   2.506  12.720  13.779  0.1527  0.0935  0.2593
30096W        W43510   2.239  15.109  12.265 -0.1695 -0.1412  0.1409
30097W        W43511   8.790  17.090  14.682 -0.0525  0.2734  0.1418
30098W        W43512  12.718   1.762  13.354 -0.2656  0.0163 -0.2061
30099W        W43513   4.923   3.729  11.308 -0.3301 -0.3291  0.2926
30100W        W43514  12.769   4.040  15.644  0.0316 -0.0399  0.1076
30101W        W43515   1.520   6.695  12.198  0.1011  0.1568  0.1610
30102W        W43516   6.001  16.393   2.148  0.2264 -0.0215  0.2013
30103W        W43517   4.749   5.612   2.736  0.0573  0.0216  0.1896
30104W        W43518  17.263  15.086  15.465 -0.2512 -0.0437 -0.2332
30105W        W43519   1.759  13.457   2.221  0.1086 -0.3174  0.1777
30106W        W43520  13.085  15.351   1.364  0.1614 -0.4282  0.1603
30107W        W43521   2.426  12.428  15.233  0.0215 -0.0999 -0.1813
30108W        W43522  14.025   6.843   2.375 -0.2050  0.2515 -0.1133
30109W        W43523  14.032  12.353  14.264 -0.0673  0.0499 -0.1433
30110W        W43524   7.877  13.814   5.103 -0.0935  0.0566 -0.2903
30111W        W43525   1.287   1.367   2.420 -0.2790  0.1027  0.1335
30112W        W43526  14.553   0.792   1.815  0.0695  0.3443 -0.1352
30113W        W43527  10.175  15.286  11.402 -0.0821 -0.1107 -0.0573
30114W        W43528  16.340  10.196  13.851  0.1725  0.0965 -0.2761
30115W        W43529   0.068   0.367   1.403 -0.0024  0.1098 -0.3762
30116W        W43530  11.282   1.324  15.593  0.1502  0.0396  0.2536
30117W        W43531  15.572  13.370  10.824  0.2210 -0.0251  0.0541
30118W        W43532   8.436   8.998   2.080  0.1628 -0.0513  0.0728
30119W        W43533   9.898   0.880   2.209  0.0086 -0.0759  0.1786
30120W        W43534   6.671   1.852  11.306 -0.1859  0.3084  0.0757
30121W        W43535   4.525  14.951  15.097 -0.0413 -0.2022  0.0685
30122W        W43536   5.132  16.757  11.943 -0.0526  0.3471  0.2553
30123W        W43537  11.717  11.193   2.380  0.3046  0.2284  0.2918
30124W        W43538   5.792   2.045  11.616 -0.4583  0.4302 -0.1818
30125W        W43539   9.182   5.859  15.657 -0.0191  0.2394 -0.0600
30126W        W43540   1.251   5.508  15.021 -0.0045 -0.4721  0.2127
30127W        W43541   8.424  14.082  10.754 -0.0047  0.0362 -0.1180
30128W        W43542   7.795   3.288   2.085  0.2038 -0.0726 -0.2673
30129W        W43543   3.609  10.197   3.977 -0.1792 -0.0736 -0.0753
30130W        W43544   9.318   2.598  12.582 -0.1083 -0.0859 -0.0374
30131W        W43545  11.823   9.121   5.713 -0.1571 -0.0625  0.0095
30132W        W43546   8.622   8.992   3.431  0.0515 -0.2830  0.1525
30133W        W43547   4.089  16.379  13.966 -0.1270  0.1003 -0.0986
30134W        W43548   2.328   0.232  11.517 -0.1239 -0.0756  0.0196
30135W        W43549   8.421   5.406   5.324 -0.1343 -0.0953 -0.0206
30136W        W43550   8.103  15.506  14.682  0.0434  0.2750  0.0270
30137W        W43551  14.840  15.949   1.972  0.3786  0.1532  0.3088
30138W        W43552   5.259   2.085  11.850 -0.2041  0.0708  0.0777
30139W        W43553   9.899   0.186  13.052  0.1408  0.4225 -0.0179
30140W        W43554   9.434   1.486  11.561  0.0494  0.0526 -0.2135
30141W        W43555   6.268   7.449   1.794  0.2121  0.1511  0.1400
30142W        W43556  15.931  15.649   3.252 -0.0679 -0.1501  0.1517
30143W        W43557  10.330   9.711  10.196 -0.0058  0.1100 -0.1901
30144W        W43558   9.144   1.079   5.530  0.1104 -0.0735  0.2920
30145W        W43559  17.845   9.156  11.190  0.2850  0.0269  0.1040
30146W        W43560   5.640   5.355  10.783 -0.0904 -0.0571 -0.3090
30147W        W43561  10.659  16.100   2.159 -0.2302 -0.2769  0.1934
30148W        W43562   7.434  10.362  16.482  0.1129 -0.2259 -0.0395
30149W        W43563  10.127  17.440   1.962 -0.1396  0.0786  0.0536
30150W        W43564   5.818   6.822   3.394  0.1182 -0.0330 -0.0166
30151W        W43565   4.042   6.062  14.227  0.4609  0.1978  0.1578
30152W        W43566   1.477  16.546   5.220  0.1139 -0.0323  0.2558
30153W        W43567   4.184   6.368   3.191 -0.2300 -0.1848 -0.0567
30154W        W43568  13.262  14.570  13.092  0.1454 -0.5383  0.0096
30155W        W43569  10.242  10.741   0.948  0.3645  0.3039 -0.3587
30156W        W43570  14.779   9.364  10.913  0.0515  0.0466 -0.1022
30157W        W43571  10.907   7.136  11.587 -0.2156  0.0865 -0.2087
30158W        W43572  13.522   8.216  13.413  0.1503 -0.0281  0.0999
30159W        W43573  13.814   1.572  12.012 -0.1346 -0.1229 -0.2175
30160W        W43574   4.510   8.643  12.648  0.2450 -0.1046 -0.1688
30161W        W43575  14.597   5.309   0.632  0.3032  0.0472  0.0365
30162W        W43576  14.482  11.544   1.393 -0.0612  0.2288 -0.1175
30163W        W43577   9.901   2.119   6.175  0.0594  0.0845  0.0498
30164W        W43578  12.715   2.605  14.704  0.0490  0.4109 -0.2977
30165W        W43579   5.431   0.451   5.134  0.0654  0.2060 -0.0606
30166W        W43580   8.388   1.627   1.405  0.0682 -0.0985  0.1779
30167W        W43581  17.418   8.188   3.347  0.1290 -0.2079 -0.5416
30168W        W43582  11.916  11.101   4.876 -0.0161  0.0584 -0.4301
30169W        W43583   3.627   0.075   0.100 -0.2411 -0.0567 -0.0882
30170W        W43584   9.279  12.162   1.243 -0.0426 -0.0501  0.0005
30171W        W43585   9.494   2.540  13.034  0.1311 -0.2589  0.0712
30172W        W43586  11.033   4.521   2.626 -0.3284  0.0961  0.0608
30173W        W43587   0.256  14.268   0.957  0.0124  0.0716  0.3055
30174W        W43588   6.752   3.959  16.226  0.0939 -0.0368  0.1314
30175W        W43589  15.289   2.246  11.425  0.0079  0.0069  0.2240
30176W        W43590   7.879   2.536   0.696  0.0925 -0.0570  0.2346
30177W        W43591  11.569  16.691  12.029  0.1562 -0.3535 -0.1732
30178W        W43592  10.957   6.838  10.339  0.0070 -0.0523  0.1750
30179W        W43593  17.113  10.344  14.492  0.0030  0.0793 -0.0910
30180W        W43594  15.512  11.040  12.627 -0.1383  0.0743  0.1277
30181W        W43595   1.687   3.703   1.352 -0.0615 -0.2684  0.3373
30182W        W43596  16.321   7.452  14.631  0.0713 -0.0334  0.0848
30183W        W43597   5.677   7.257   3.828  0.1198  0.0916 -0.0140
30184W        W43598  16.871  17.634  13.189 -0.1573 -0.1787  0.2147
30185W        W43599  12.563  14.430   2.188  0.0282  0.0229  0.0161
30186W        W43600   8.104  14.400  14.956  0.1576 -0.5309  0.0188
30187W        W43601   2.189  15.646  11.675  0.1342  0.1585  0.0982
30188W        W43602   5.927  12.559  13.367  0.0248 -0.2647  0.2902
30189W        W43603  16.390   6.399   4.769  0.0654 -0.3448 -0.0435
30190W        W43604   7.812  13.002   0.322 -0.0983 -0.0988  0.0072
30191W        W43605   5.116  18.199  15.269  0.0435  0.1213  0.1646
30192W        W43606  17.642  11.985   1.635 -0.1205 -0.1035 -0.2598
30193W        W43607   0.587  14.267   0.057  0.0170 -0.1578  0.1229
30194W        W43608  10.757   5.624   0.521 -0.1532  0.0076 -0.1140
30195W        W43609  11.136   8.229  11.905  0.0960  0.3183 -0.1815
30196W        W43610   5.574   6.954   1.477  0.0646 -0.0166  0.2683
30197W        W43611  17.610   1.003  14.395 -0.0700  0.1849  0.1862
30198W        W43612  15.152   9.614  15.719  0.0803  0.4744 -0.0039
30199W        W43613  18.094   8.716  13.294  0.1433 -0.1700  0.2782
30200W        W43614  11.586   8.499   0.495  0.3139  0.1245  0.0295
30201W        W43615   9.587   1.819   0.837  0.1304 -0.2206 -0.1696
30202W        W43616  13.482  11.476   6.319 -0.0525  0.1079 -0.0526
30203W        W43617  17.335   8.015   1.812  0.1437 -0.1284  0.0992
30204W        W43618   5.445   3.064  11.749 -0.0821  0.0979  0.0192
30205W        W43619   9.746  16.680   5.669  0.0641 -0.0918 -0.1551
30206W        W43620  13.177   0.369   2.559  0.4504 -0.2599 -0.0961
30207W        W43621   3.100  13.848  16.402  0.1262  0.1341  0.0967
30208W        W43622   2.544   1.627  11.331 -0.0816 -0.2393 -0.0388
30209W        W43623  14.135   3.705  13.306 -0.1578 -0.1997  0.0605
30210W        W43624  13.124   9.899   2.794 -0.0256  0.0901  0.3813
30211W        W43625   8.252  15.607   3.822 -0.1218  0.1106 -0.2730
30212W        W43626   1.479  16.261   4.348 -0.2332 -0.2788 -0.1028
30213W        W43627   0.374  11.147  15.697 -0.0687 -0.0935 -0.0026
30214W        W43628   6.829   7.352   4.715 -0.1180  0.0494  0.2541
30215W        W43629   0.407   4.203  15.303  0.2249 -0.0188  0.0979
30216W        W43630   4.918   5.440  14.081  0.0533  0.0161 -0.2714
30217W        W43631   4.297   0.915   1.646  0.0925 -0.2639  0.0372
30218W        W43632   9.206   8.699   1.436 -0.2562  0.1052 -0.4466
30219W        W43633   9.714   3.798   5.270  0.2465  0.1278 -0.2015
30220W        W43634   0.134   6.011   0.253 -0.0499 -0.0377 -0.2846
30221W        W43635   9.134  13.562   2.042 -0.0213  0.1867 -0.0054
30222W        W43636   6.037   4.590  12.500  0.1475 -0.0137 -0.0398
30223W        W43637   0.547  17.799   2.202  0.0070  0.0835  0.0219
30224W        W43638  16.054   2.376  14.587  0.3316 -0.0593  0.0645
30225W        W43639  11.098   0.674  14.929 -0.0770 -0.1500 -0.2253
30226W        W43640   3.221  12.831  15.016  0.0240 -0.1103 -0.0029
30227W        W43641   7.491   2.890  13.913  0.0268  0.1105 -0.1469
30228W        W43642   7.488  14.494  10.827 -0.0103  0.1909 -0.0496
30229W        W43643   2.161  12.523  11.929  0.0617  0.2709  0.1982
30230W        W43644   8.916  11.836   2.403 -0.0399  0.1345 -0.1949
30231W        W43645  15.578   7.589  10.778  0.0258 -0.1742 -0.3808
30232W        W43646  14.027  10.354  15.129  0.1295 -0.1083 -0.1839
30233W        W43647   8.709  13.354   2.155  0.2050  0.3228  0.1601
30234W        W43648  14.994   1.482   3.505 -0.0938  0.0605 -0.0048
30235W        W43649  10.697   2.532   2.546  0.0083 -0.0690 -0.2370
30236W        W43650  17.214   4.270  15.879  0.3111 -0.0928 -0.0370
30237W        W43651   2.810   4.669  14.548  0.2496  0.1965  0.0889
30238W        W43652  10.488   9.696   1.900 -0.3376 -0.0624  0.0887
30239W        W43653  13.607  16.466   3.491 -0.3752  0.0836  0.1106
30240W        W43654   4.326   9.052   5.385 -0.0607 -0.2154 -0.0805
30241W        W43655   3.067   7.606  12.723 -0.1966  0.1013  0.2986
30242W        W43656   6.499   0.178   1.365 -0.2989 -0.0294 -0.3883
30243W        W43657   7.907  11.397  11.669  0.3850  0.1876 -0.1746
30244W        W43658   0.756   9.280   1.834 -0.0077  0.0494  0.3610
30245W        W43659   5.348  13.518  14.439 -0.0365  0.2782  0.2900
30246W        W43660   2.275  15.021  11.169  0.0452  0.1045 -0.3465
30247W        W43661  11.864  13.225  12.011 -0.2977 -0.2887 -0.1406
30248W        W43662   4.404   8.536   0.141  0.2488  0.0867 -0.1218
30249W        W43663   9.066  17.029  15.359  0.2151  0.1555  0.1862
30250W        W43664   3.005  17.506   2.846 -0.1711 -0.5734  0.2158
30251W        W43665  14.492  15.742  14.130 -0.0806  0.2307  0.0690
30252W        W43666   8.671   5.875   2.250  0.1192 -0.2472 -0.0048
30253W        W43667   8.373   3.631   2.919 -0.1791 -0.3407  0.2418
30254W        W43668   6.935  17.046   0.427 -0.2391 -0.0923  0.2076
30255W        W43669  14.990  17.030   1.243  0.0685  0.0297 -0.2350
30256W        W43670   7.760   8.628  15.676 -0.0386  0.1027 -0.2182
30257W        W43671  14.280   1.557  14.772 -0.0514  0.0705  0.0671
30258W        W43672   7.756  15.516   3.115  0.1918  0.5285  0.0557
30259W        W43673  17.189   0.737  11.617  0.0353 -0.2041 -0.0960
30260W        W43674  12.745  10.807  10.896  0.0616 -0.1574 -0.1232
30261W        W43675   1.971  10.842  15.125  0.0206 -0.1836 -0.1090
30262W        W43676  16.455  16.892  13.075  0.1061 -0.2312 -0.2183
30263W        W43677  15.475   0.514  12.034  0.0687 -0.0643  0.2436
30264W        W43678   6.222   7.604  14.053 -0.0609 -0.1715  0.1750
30265W        W43679  11.889  10.908   3.828 -0.0945 -0.2289  0.1762
30266W        W43680   4.187  12.879   5.711 -0.1454 -0.1184  0.1042
30267W        W43681  10.869   8.946  12.844 -0.3078  0.1234  0.2858
30268W        W43682  10.325   6.411   0.470 -0.1392  0.2165 -0.1256
30269W        W43683   6.121   8.638  15.059 -0.2322 -0.1940 -0.0837
30270W        W43684   8.992   5.139   5.252 -0.2117  0.1632  0.0345
30271W        W43685   9.772  11.207   3.401 -0.0875 -0.1510 -0.0054
30272W        W43686   1.783   5.391   1.129 -0.2913  0.0294 -0.2269
30273W        W43687   2.024   2.146   1.164 -0.3849  0.1952 -0.2118
30274W        W43688  12.898   3.113  14.770  0.1334  0.1614 -0.0825
30275W        W43689   7.768  14.313  12.873 -0.1244  0.2987 -0.0220
30276W        W43690   9.213   4.581   2.975  0.1581  0.2113 -0.0278
30277W        W43691   6.999   7.067   2.896  0.2421 -0.3636  0.0235
30278W        W43692   9.142  16.335   5.843  0.2570 -0.0067  0.2996
30279W        W43693  15.496   1.745   5.180  0.0869 -0.1442 -0.1397
30280W        W43694  16.834  17.498   1.483  0.0195 -0.2278  0.0097
30281W        W43695   0.982   8.238  11.978  0.0555 -0.1679  0.0589
30282W        W43696   9.157   3.162   1.541  0.1892  0.0038  0.1759
30283W        W43697  11.724   5.717  13.746  0.1570 -0.0155  0.2731
30284W        W43698  17.167   3.022   3.322 -0.0866  0.0486  0.0404
30285W        W43699   5.422  12.642  10.779  0.0141  0.3453 -0.0187
30286W        W43700   5.175   3.095  16.039 -0.0140 -0.2597  0.0203
30287W        W43701   2.174  10.407  14.519 -0.0011  0.3590  0.1201
30288W        W43702   3.301   8.322  12.241  0.1712  0.2399 -0.0059
30289W        W43703   9.383   8.147  13.396 -0.0081 -0.1052 -0.0674
30290W        W43704   9.574   6.687   1.471  0.0561 -0.0800 -0.0856
30291W        W43705   5.534   8.463   2.130  0.0600 -0.0636 -0.2016
30292W        W43706   5.299  18.170   4.543  0.1252 -0.2122 -0.0368
30293W        W43707  10.386   9.060  14.412 -0.2027 -0.1267  0.1988
30294W        W43708   6.038  15.533  12.357  0.0459  0.0483 -0.2722
30295W        W43709   6.250   0.243  11.279 -0.0556  0.1571 -0.1316
30296W        W43710  12.514  14.237  12.520 -0.2461  0.0300  0.0310
30297W        W43711   4.149  18.100  11.294  0.0500  0.1295 -0.1134
30298W        W43712   4.746   7.141  11.169  0.0095 -0.0689 -0.0619
30299W        W43713  15.603  13.616   1.932 -0.0496  0.1421 -0.1795
30300W        W43714   6.555   1.168  15.808 -0.3041  0.3002  0.2155
30301W        W43715   4.793   4.729   3.019 -0.0299  0.1798  0.0165
30302W        W43716   1.653   4.418  15.076 -0.0377 -0.0210  0.0847
30303W        W43717   4.369  14.218   2.799 -0.1366 -0.2399 -0.1615
30304W        W43718   7.743   9.530   0.879 -0.1087  0.1522  0.1853
30305W        W43719  15.869   4.986  12.191 -0.1913  0.0660 -0.0468
30306W        W43720  16.686   2.549  12.202  0.1368 -0.0106  0.1847
30307W        W43721   6.969   8.290  11.201  0.1194 -0.2449  0.2403
30308W        W43722  13.098  11.299   1.512 -0.0619 -0.2866  0.1090
30309W        W43723   8.126  14.704   3.621  0.1244 -0.0558  0.1739
30310W        W43724   6.306   9.843   0.610  0.0148  0.2571 -0.0882
30311W        W43725  10.304  17.177  13.455  0.2752  0.1786  0.2004
30312W        W43726  13.790  15.119   1.568 -0.0933 -0.1634  0.0955
30313W        W43727   6.523   7.015   2.004 -0.0515 -0.1025  0.2956
30314W        W43728   9.123   2.339  13.845  0.0675  0.2838 -0.0689
30315W        W43729   0.750   3.069  10.200  0.2335  0.1370 -0.0678
30316W        W43730  15.507   1.939  13.543  0.2608  0.0338 -0.1515
30317W        W43731   8.756  17.425  11.474 -0.1320 -0.0127 -0.2482
30318W        W43732   9.238  10.968  12.927 -0.0487  0.1660 -0.1729
30319W        W43733   2.957   9.094  16.113 -0.1193  0.0497  0.0075
30320W        W43734  17.498  10.971  10.816  0.2044 -0.1027 -0.0378
30321W        W43735  12.102   3.212   5.782 -0.0290 -0.2268 -0.2111
30322W        W43736   9.091   0.166   6.582 -0.1709 -0.3365  0.0757
30323W        W43737  13.195   1.360   2.928  0.2245  0.0115 -0.3389
30324W        W43738   1.211  11.767   5.130 -0.1220  0.0106  0.3623
30325W        W43739  18.058   1.696  13.956  0.1872  0.1988 -0.3562
30326W        W43740  14.831   1.803   5.206  0.1509 -0.0398 -0.0429
30327W        W43741  18.225  13.263   2.927 -0.0434 -0.0990  0.0608
30328W        W43742  17.687  16.708   6.396  0.0857 -0.0448  0.2030
30329W        W43743  13.235  14.747   3.499  0.2076 -0.0269  0.3050
30330W        W43744  15.630   1.530  13.867  0.0275 -0.0933 -0.3865
30331W        W43745   1.049   2.757  14.228 -0.0798  0.3166  0.2789
30332W        W43746  11.764   4.570  10.283  0.3758 -0.0013 -0.2110
30333W        W43747   0.115   0.068  13.461 -0.1723 -0.1792 -0.2052
30334W        W43748  11.142   8.740   0.635 -0.1249 -0.1432 -0.3826
30335W        W43749  13.946   9.381  13.357 -0.0714 -0.2316  0.2653
30336W        W43750  16.098  18.052  12.210  0.1825  0.2108  0.3316
30337W        W43751  10.458   8.829  11.326 -0.0219 -0.0650  0.2091
30338W        W43752   1.102  10.213   3.647 -0.0374 -0.1550  0.3714
30339W        W43753  14.174   8.366   3.777 -0.0360 -0.3107 -0.1573
30340W        W43754  10.527  12.863  13.468  0.0926  0.2347 -0.2441
30341W        W43755  11.391   1.387   4.446 -0.0168 -0.2433  0.1601
30342W        W43756  10.491  17.095   3.210 -0.0498  0.2058  0.3354
30343W        W43757   5.725   0.026  12.594  0.0371 -0.0378  0.0849
30344W        W43758   7.118   2.527   4.662 -0.0784 -0.1432  0.1404
30345W        W43759   3.308   1.651  12.558 -0.2180 -0.1179  0.3520
30346W        W43760   8.822   0.650   4.501  0.0788  0.0335  0.0511
30347W        W43761   1.129   6.205   9.975 -0.0025 -0.0106 -0.0305
30348W        W43762  15.250  17.106  11.314 -0.0069  0.2839  0.1337
30349W        W43763   8.289  12.558  11.886  0.0300  0.0561  0.0612
30350W        W43764  15.597  10.464  14.359 -0.0385 -0.2652  0.1006
30351W        W43765  15.218   0.327   4.132  0.0207  0.2320 -0.5565
30352W        W43766   7.389   3.557  13.692 -0.0788  0.1224  0.1894
30353W        W43767   9.104  12.110  14.774  0.1588  0.1640 -0.1526
30354W        W43768  11.044  15.828   1.442 -0.0047  0.0882  0.0670
30355W        W43769   9.448   4.152  12.346 -0.0518 -0.1661 -0.2789
30356W        W43770  16.748  16.112  14.546  0.0192 -0.3087 -0.0019
30357W        W43771   8.026  11.635  12.195  0.0808  0.2790 -0.3520
30358W        W43772  16.255   6.183  15.655 -0.1161 -0.0347 -0.0942
30359W        W43773  12.886   5.595   2.314  0.2203  0.1761 -0.0947
30360W        W43774  15.328   5.814   4.063 -0.2014  0.1539 -0.0408
30361W        W43775   1.675  17.714  16.341 -0.1394 -0.4473  0.0630
30362W        W43776  16.298   6.489  14.693  0.3427 -0.1230  0.1143
30363W        W43777   6.231  13.142  10.843  0.3724  0.0754  0.2740
30364W        W43778   9.775  10.405   0.713  0.0191 -0.0507  0.1144
30365W        W43779   5.495  10.334  15.729 -0.3278  0.0270 -0.2703
30366W        W43780   7.443   9.015  13.063  0.0207  0.3279 -0.0698
30367W        W43781  15.513   4.453  14.900  0.2083  0.1185 -0.2171
30368W        W43782  15.384  10.046  16.006  0.0888  0.1502  0.0767
30369W        W43783   3.537  10.961  14.131  0.1240 -0.0537 -0.1225
30370W        W43784  15.656  11.486  13.722  0.0282  0.1240 -0.1628
30371W        W43785  15.149   0.356  14.262 -0.0353 -0.1415 -0.1815
30372W        W43786   1.416   7.492  15.484  0.1436  0.3749  0.1968
30373W        W43787  15.743  17.028  15.099  0.0714  0.0053 -0.0887
30374W        W43788   6.935  11.896   6.184 -0.3357 -0.0277  0.0625
30375W        W43789  16.622  16.890   5.102 -0.0026  0.1381  0.0180
30376W        W43790   5.039   8.077   0.817 -0.1596  0.2262  0.1273
30377W        W43791  14.607   0.367   1.375 -0.2196 -0.2377  0.2592
30378W        W43792   3.637  12.655  16.324  0.0206 -0.1134 -0.0469
30379W        W43793   8.912   5.089  12.883  0.1355  0.0064 -0.1210
30380W        W43794  10.453   4.200  16.044  0.1727  0.2969  0.1942
30381W        W43795   9.562   4.072   0.992 -0.0421 -0.2038 -0.0685
30382W        W43796   6.955  15.076   0.968  0.0448  0.1760  0.1476
30383W        W43797  12.166  16.047   4.072 -0.1598 -0.1528  0.1369
30384W        W43798   8.401  17.328   5.684  0.2263 -0.1390 -0.0064
30385W        W43799   8.352  16.228   5.931 -0.1750  0.0446 -0.1897
30386W        W43800   6.951  14.376   4.067  0.1873  0.0763  0.0615
30387W        W43801   7.990   9.605  16.559  0.0789  0.1513 -0.0238
30388W        W43802   2.628   1.785  13.669  0.0072 -0.0220  0.0356
30389W        W43803  10.413  17.502   2.758  0.0419  0.2150 -0.3623
30390W        W43804   9.939   5.923  11.142  0.0331 -0.2418  0.1616
30391W        W43805  12.257  12.734  13.765 -0.0969 -0.0920  0.3007
30392W        W43806   8.515   4.910   5.217 -0.0122  0.0890 -0.2919
30393W        W43807   3.928   0.793   3.296  0.1641 -0.1833  0.0649
30394W        W43808   5.459  13.170   5.248 -0.2362  0.0287  0.0993
30395W        W43809   8.182  10.054   2.615 -0.0470 -0.3277  0.2096
30396W        W43810   6.787   2.017  14.525 -0.2335  0.1995 -0.0156
30397W        W43811  15.904   5.466   3.433  0.2742 -0.0819  0.0557
30398W        W43812  13.420   2.641  10.978  0.0508  0.0780  0.1067
30399W        W43813   2.307   5.540  12.456 -0.1366  0.1468  0.0011
30400W        W43814   1.925  15.124   5.469  0.0932  0.0903  0.1170
30401W        W43815  10.166   5.497  15.730  0.0448 -0.1828  0.0668
30402W        W43816   2.598   8.144   3.638 -0.0690 -0.1069  0.0906
30403W        W43817  17.258   1.244   5.644  0.0819  0.1918  0.1510
30404W        W43818   8.875   1.531   5.639 -0.2054  0.2044  0.1369
30405W        W43819  10.854   8.150   1.940 -0.1851  0.0330 -0.1563
30406W        W43820  13.649  16.056   5.263  0.0650 -0.1691  0.2436
30407W        W43821   7.759  17.709  15.167  0.1595 -0.4351  0.1881
30408W        W43822   7.501  16.613   4.056  0.1074 -0.1571 -0.2084
30409W        W43823   4.930   3.187  13.104 -0.1808  0.2400 -0.0007
30410W        W43824  16.610  10.230  14.250 -0.3634 -0.0365  0.0864
30411W        W43825  15.620  11.332   5.831  0.0825  0.0049 -0.2033
30412W        W43826   1.671  15.581  13.083 -0.1604 -0.1349 -0.0234
30413W        W43827  17.419   7.987  10.026  0.0326 -0.1141 -0.0471
30414W        W43828   2.888   3.168  15.247 -0.1750 -0.2003  0.0656
30415W        W43829  10.983   3.565   0.132 -0.1207  0.0916  0.2457
30416W        W43830   0.422  14.681   0.224  0.1946 -0.0636  0.1229
30417W        W43831  10.897  17.632   3.929  0.1584 -0.3436 -0.0749
30418W        W43832   0.888   9.860  16.419  0.3129 -0.2817  0.2737
30419W        W43833   9.510  10.454   5.409  0.3104 -0.0979 -0.0284
30420W        W43834  10.167   8.631  13.328  0.1489  0.2581 -0.2888
30421W        W43835   4.631   7.996   1.402 -0.0065 -0.2057 -0.1698
30422W        W43836  17.481  15.722   3.344 -0.0917 -0.1512  0.1453
30423W        W43837  16.743  16.477   1.438  0.0552  0.0829  0.1574
30424W        W43838   5.259   2.140   3.178 -0.0875 -0.2315 -0.0298
30425W        W43839  11.934   4.209  15.607 -0.0169  0.2136  0.1103
30426W        W43840   4.397  12.166   2.638  0.1038  0.0046 -0.2734
30427W        W43841   8.685  17.334   5.245  0.3395  0.1915 -0.2199
30428W        W43842  15.789   5.460  11.439 -0.0956 -0.2193 -0.0458
30429W        W43843   7.755  14.317  15.704  0.0988  0.0879 -0.1300
30430W        W43844   5.692   3.429   4.449  0.0055 -0.1135 -0.0309
30431W        W43845  12.966   2.409   0.634 -0.1315  0.3017  0.2161
30432W        W43846  17.499  15.596  12.192  0.0466 -0.4996  0.1310
30433W        W43847  11.959  15.460   4.242 -0.0052  0.5105  0.0732
30434W        W43848   3.708  13.145  13.620 -0.0107 -0.3421 -0.5468
30435W        W43849   5.992   4.906   5.650  0.1943 -0.0395  0.3103
30436W        W43850  10.401   7.430   1.401  0.2852  0.2079 -0.1461
30437W        W43851  13.655   0.797   0.603  0.1415 -0.0247 -0.0605
30438W        W43852   7.556  17.772  13.784  0.0889  0.1896  0.0285
30439W        W43853   7.156   1.997  13.714  0.0509  0.0940  0.0025
30440W        W43854  11.564  17.751  12.460 -0.0785  0.2211  0.2402
30441W        W43855   1.019   0.220   5.549  0.1779  0.3509 -0.1744
30442W        W43856   5.666   5.069   6.084  0.1133 -0.2669  0.4586
30443W        W43857   9.767  13.140   5.426 -0.1149 -0.1411 -0.3812
30444W        W43858  12.137  15.562  14.829  0.0435  0.2353 -0.1392
30445W        W43859   3.700  14.516  13.940 -0.0087 -0.1454  0.4115
30446W        W43860  14.460   7.462   1.447 -0.0718 -0.3365 -0.0984
30447W        W43861   9.936  10.275  14.304  0.1775  0.0637 -0.0267
30448W        W43862   4.977  10.228   2.902 -0.3687 -0.1823  0.0997
30449W        W43863   0.073  17.929  14.887  0.0890 -0.2326  0.0560
30450W        W43864   2.714   1.203   4.028  0.1749 -0.0095 -0.3246
30451W        W43865   5.147  11.058  14.702 -0.2265 -0.0337  0.4595
30452W        W43866  17.958  11.670  12.901 -0.0786  0.1333  0.1341
30453W        W43867  15.964   4.604  11.910 -0.1072  0.1015  0.0664
30454W        W43868   1.741  13.067  16.239  0.0544  0.1405 -0.2683
30455W        W43869   9.887   1.866  12.646  0.1754  0.3153 -0.1256
30456W        W43870   1.416   5.791  15.862  0.0648  0.0153  0.0558
30457W        W43871   8.223  16.789   2.378 -0.2021 -0.0152  0.0555
30458W        W43872   1.645  11.080  13.909 -0.0471  0.1943 -0.1565
30459W        W43873   2.961   6.359  12.819  0.2623 -0.1285 -0.1543
30460W        W43874   7.476   2.912  15.433 -0.1134  0.1334  0.1896
30461W        W43875  16.128  17.146   0.946 -0.2998  0.0382 -0.0386
30462W        W43876   0.705   4.186  13.101 -0.2544  0.0754 -0.1141
30463W        W43877   9.435   9.926   1.504 -0.0437 -0.0375 -0.0386
30464W        W43878   8.850   2.173  11.883  0.2341 -0.0292  0.0829
30465W        W43879   8.889   6.558  13.913  0.6526 -0.2085 -0.0772
30466W        W43880   6.799   4.491  13.171 -0.1120  0.1360  0.0173
30467W        W43881   6.920   1.775   1.980 -0.2644 -0.1044 -0.0612
30468W        W43882   6.539  16.173   1.947  0.1951 -0.0106 -0.4540
30469W        W43883  18.032  10.071  15.839 -0.2719 -0.1332  0.1328
30470W        W43884   0.886   8.025  10.065 -0.0254 -0.0162  0.0010
30471W        W43885  18.258   4.952  10.075 -0.0200  0.1442 -0.1210
30472W        W43886   7.120   0.705  15.238 -0.2831 -0.0291  0.2900
30473W        W43887   6.191  10.763   0.099  0.0605  0.2355  0.0829
30474W        W43888   8.908  12.962   6.423  0.1584 -0.2358 -0.0924
30475W        W43889   4.351   2.430   5.957 -0.0035 -0.0506  0.1243
30476W        W43890  14.582  12.449   0.024  0.0618 -0.2067  0.3625
30477W        W43891  10.970   1.429  14.068 -0.2537 -0.0541 -0.1989
30478W        W43892  15.834  10.007   3.985  0.1811 -0.1036  0.2260
30479W        W43893   2.330  16.298  15.505  0.2716 -0.1695 -0.2611
30480W        W43894   4.823  14.564   1.439 -0.1152  0.1569 -0.3052
30481W        W43895   6.691   9.716  10.972  0.2367  0.0270 -0.4045
30482W        W43896  14.653  16.313  13.042  0.1033 -0.1645  0.0784
30483W        W43897   6.393   9.269  12.042  0.0010  0.0168  0.2213
30484W        W43898  15.337  15.952   2.755 -0.1536 -0.2098  0.2641
30485W        W43899   4.789   9.237   1.627 -0.2234 -0.3188  0.0971
30486W        W43900   2.287   5.094  13.806 -0.0711  0.3312  0.1128
30487W        W43901   1.818  10.714   3.535  0.0405  0.1576 -0.0531
30488W        W43902   0.485  12.822  10.436 -0.1393 -0.4309 -0.2118
30489W        W43903  17.538  15.049  14.108  0.0047  0.1457  0.2637
30490W        W43904   2.858   9.558   1.836 -0.2661 -0.3187 -0.0810
30491W        W43905   8.554  16.556  13.315  0.1963  0.1269 -0.0300
30492W        W43906   9.464  12.852   5.800 -0.2073  0.0245  0.0580
30493W        W43907  13.959  15.759   1.753 -0.0903 -0.0232 -0.0264
30494W        W43908   4.499   9.556   5.273 -0.0856 -0.3352  0.2206
30495W        W43909  17.785  18.183   3.737 -0.0332  0.0039 -0.0993
30496W        W43910   3.476   3.748  16.172  0.0623  0.3805 -0.2852
30497W        W43911   2.832  13.931  15.938  0.1499  0.0060 -0.1267
30498W        W43912  18.033  17.570   1.017  0.1669  0.2563  0.3590
30499W        W43913   2.114  16.789   4.726  0.1030 -0.0883  0.0405
30500W        W43914  10.323   9.753   5.605  0.2540  0.4936 -0.1672
30501W        W43915   0.300   2.308   5.444 -0.1289  0.1123 -0.2897
30502W        W43916  10.197  17.502   3.218  0.4011  0.1417 -0.1706
30503W        W43917   0.676   4.493   1.966 -0.0363  0.0755  0.2015
30504W        W43918  11.008  13.308  14.120  0.2013 -0.1558  0.0711
30505W        W43919  13.212   9.141  16.102 -0.0998 -0.2308 -0.1052
30506W        W43920  17.570   8.889  12.656  0.0962  0.1299 -0.0955
30507W        W43921   8.620   1.844   5.381  0.0672 -0.1366  0.3253
30508W        W43922   0.115  15.888   0.627 -0.0484  0.0186  0.1095
30509W        W43923  12.619   5.222   1.458  0.1869  0.2860 -0.0598
30510W        W43924   1.191  12.149   6.027 -0.3174 -0.1701  0.2197
30511W        W43925  11.153  15.862  15.758  0.1015  0.0302  0.1484
30512W        W43926   9.792  17.984   2.104 -0.1807 -0.0183  0.0851
30513W        W43927  14.142  17.278   3.837  0.2154  0.1798 -0.0293
30514W        W43928  10.011   2.672  13.968  0.1293 -0.0287 -0.0128
30515W        W43929   8.275   9.932  10.252  0.2157 -0.1406  0.0474
30516W        W43930   0.577   5.716  16.143  0.4099  0.0308 -0.0100
30517W        W43931   7.559   7.139   5.350  0.2350  0.0730 -0.1893
30518W        W43932  15.980   6.975  14.639 -0.1397 -0.1175  0.1398
30519W        W43933   2.677   2.584  14.501 -0.1270 -0.1219  0.0260
30520W        W43934  10.748  14.557   1.499 -0.1765 -0.1384  0.1585
30521W        W43935   9.975  11.778   5.105 -0.0197 -0.2028 -0.2055
30522W        W43936   5.381  10.236  16.245 -0.0503 -0.3793  0.0239
30523W        W43937   7.649  16.614  15.989 -0.0451  0.2034  0.0958
30524W        W43938  12.010  12.688   1.869 -0.0468 -0.1935 -0.1368
30525W        W43939   4.687  13.439  16.171 -0.0549  0.0170  0.0688
30526W        W43940  12.035  13.519   0.615 -0.5466 -0.0440 -0.1872
30527W        W43941   0.706   6.779  14.818  0.0653  0.0620  0.2303
30528W        W43942   2.673   2.171  11.361  0.2168 -0.0659 -0.0162
30529W        W43943   4.888   4.251   3.034  0.1117  0.4371 -0.0581
30530W        W43944   4.395   6.009   1.683 -0.1022 -0.1180 -0.1481
30531W        W43945   2.685   3.537  13.344 -0.0655 -0.0641  0.0846
30532W        W43946  15.859   7.366  13.559  0.2562  0.0234 -0.1159
30533W        W43947  12.785   2.680  15.588 -0.0451  0.0264 -0.1791
30534W        W43948   9.633   8.594  16.073  0.0635 -0.0699 -0.0960
30535W        W43949   7.156   1.245  11.431 -0.2159  0.2032  0.0609
30536W        W43950  11.193  13.268   3.885  0.2001  0.1235 -0.1472
30537W        W43951  14.003  10.455  16.381  0.0880 -0.2484 -0.0978
30538W        W43952   0.268  11.997   0.276  0.1420  0.0526  0.0607
30539W        W43953  14.082  17.086   2.344  0.3172 -0.2013 -0.0999
30540W        W43954   0.429   7.913   6.127  0.0537  0.0649  0.2503
30541W        W43955   9.786  18.045   0.278 -0.0426 -0.2657 -0.0834
30542W        W43956   7.534   7.640   0.241  0.2773  0.1274 -0.0958
30543W        W43957  15.394  14.947   4.753  0.1499  0.0668 -0.1223
30544W        W43958   3.457  16.886   2.417 -0.0409 -0.0743  0.2004
30545W        W43959  17.989   4.624   0.630  0.0612 -0.2031  0.0032
30546W        W43960   5.239  17.787  11.824  0.1089 -0.2056  0.0625
30547W        W43961  14.602  13.937   3.198  0.1340  0.3528 -0.0668
30548W        W43962   2.590   4.035  13.411  0.1966  0.1483 -0.2743
30549W        W43963   9.107   5.991   3.468  0.0253 -0.2121 -0.1864
30550W        W43964   3.896   9.354   0.390 -0.2236 -0.1403 -0.1962
30551W        W43965  13.094   6.743   0.268 -0.2297  0.1554 -0.1622
30552W        W43966   4.124   6.464  12.692  0.1145 -0.0987 -0.1546
30553W        W43967  15.983  16.486  16.368 -0.0250  0.0355  0.1431
30554W        W43968  13.577  12.611  10.567  0.2715 -0.1272  0.0293
30555W        W43969   2.828   2.995  12.599  0.0417  0.3597 -0.1132
30556W        W43970  17.550   4.583   2.348  0.0843  0.0988  0.0350
30557W        W43971  13.276  17.566  12.843  0.0353 -0.3211 -0.2778
30558W        W43972  18.076   9.747  14.848 -0.2731  0.0329  0.1388
30559W        W43973   7.773   4.423  11.999 -0.2962  0.0760 -0.0849
30560W        W43974   7.923   4.678   1.061  0.2365 -0.4308 -0.1164
30561W        W43975  10.863  10.871  10.784  0.0477  0.1824 -0.1309
30562W        W43976   9.199   2.583   6.685 -0.0732 -0.3869  0.1335
30563W        W43977   4.791   6.580   4.363  0.2777  0.0939 -0.3126
30564W        W43978   8.746  10.442  12.203 -0.1442 -0.0648 -0.1098
30565W        W43979  15.541  12.221   4.143  0.1145  0.1133 -0.1346
30566W        W43980  16.518   3.321  10.556 -0.1023 -0.0942 -0.1632
30567W        W43981   6.344  17.999   2.557 -0.4116 -0.1204 -0.1064
30568W        W43982   2.352   2.043  15.853  0.2349  0.0937 -0.1966
30569W        W43983   4.239  11.454   3.930  0.3340  0.0551 -0.0699
30570W        W43984   6.442  16.318   0.859  0.1701  0.1209  0.0861
30571W        W43985   8.910  11.587   5.854 -0.0351  0.0318  0.2111
30572W        W43986   0.722  11.767   0.474 -0.0713  0.1307 -0.0993
30573W        W43987   6.964  17.131  11.017  0.2527  0.0432 -0.0949
30574W        W43988   8.394  16.403  15.206  0.0814  0.2507 -0.1981
30575W        W43989   1.413  13.557  14.657  0.0722  0.0637 -0.0006
30576W        W43990  10.506   3.062   0.648  0.1791 -0.1777 -0.3841
30577W        W43991   6.873   5.304  11.607 -0.1546  0.1883 -0.0280
30578W        W43992  10.775  14.609   6.326  0.0326  0.1012 -0.1143
30579W        W43993   0.773   3.075  11.516  0.3534  0.1582 -0.1544
30580W        W43994   3.414  11.057   2.415  0.1650  0.2041 -0.3946
30581W        W43995   2.954  11.184   5.099  0.0025 -0.0165 -0.0536
30582W        W43996   5.434   1.054  16.015  0.0896  0.0353  0.4582
30583W        W43997   7.169   4.164   9.910 -0.0732 -0.0341  0.2592
30584W        W43998   0.112   7.799  10.666  0.0589  0.2574 -0.1976
30585W        W43999  15.686  16.397   1.102 -0.4068  0.0465 -0.0441
30586W        W44000  15.679   6.140   2.314 -0.1547 -0.1200 -0.3492
30587W        W44001   5.795   3.759  13.446  0.2760  0.3729 -0.1527
30588W        W44002  17.956  18.003  11.012 -0.0594 -0.0640 -0.0327
30589W        W44003   7.611  13.953   2.277 -0.2931  0.0128 -0.0424
30590W        W44004  16.483   8.055   0.450 -0.0607 -0.0586 -0.1687
30591W        W44005   0.079   6.309  10.810  0.1091  0.0610  0.2259
30592W        W44006   7.906  16.512   6.343 -0.0661 -0.0120 -0.1314
30593W        W44007   3.973  14.826   1.866  0.3230 -0.1938  0.1454
30594W        W44008   3.332   4.467  15.653 -0.0980 -0.2987  0.0059
30595W        W44009  14.305  12.020   2.815 -0.0010  0.1774 -0.1565
30596W        W44010   3.339   8.690  11.928 -0.3163  0.2945  0.2700
30597W        W44011   3.072   0.187   3.381 -0.1160 -0.1739  0.3142
30598W        W44012   9.422  13.505  12.976  0.1119 -0.2476 -0.0575
30599W        W44013   7.202   8.193   2.912 -0.0210 -0.0144  0.2291
30600W        W44014   0.501   7.440   1.746 -0.1329 -0.0597 -0.0141
30601W        W44015  15.276  18.252  13.952 -0.2214 -0.2776 -0.0937
30602W        W44016  15.437   4.150   9.989  0.0664  0.0195  0.5479
30603W        W44017  13.140   5.217  16.227 -0.0016  0.1102 -0.1891
30604W        W44018  15.280  14.120   7.042  0.0844 -0.0501 -0.1954
30605W        W44019  15.095  17.995  12.930  0.1181  0.3321 -0.0162
30606W        W44020   6.966   6.064   0.772  0.0432  0.0387 -0.1673
30607W        W44021  16.276   2.069  12.838 -0.3331  0.4153  0.0976
30608W        W44022   4.632   1.012   0.613 -0.0354 -0.0767  0.2303
30609W        W44023  12.688   4.063  11.015 -0.0668  0.0479  0.1173
30610W        W44024  13.069   3.462   1.139  0.0138 -0.4943  0.0587
30611W        W44025   9.274   9.705  15.660 -0.1048 -0.4611  0.1213
30612W        W44026   6.457  12.706  10.747 -0.0912 -0.4290  0.0326
30613W        W44027   7.760  17.959   4.964  0.1246 -0.1633 -0.2789
30614W        W44028   2.364   7.032  12.967  0.2192 -0.2885 -0.0736
30615W        W44029  17.755  13.910  16.321  0.1330  0.2149 -0.0953
30616W        W44030   5.754  12.928   3.157 -0.0402  0.3143 -0.1503
30617W        W44031  15.249   0.029   5.225  0.0529  0.0342 -0.2425
30618W        W44032   5.323   1.316   1.076  0.1052 -0.1550  0.0016
30619W        W44033  13.638   5.143   5.783 -0.2538 -0.0429 -0.2183
30620W        W44034  13.549   1.191  12.259  0.1012 -0.0447  0.3587
30621W        W44035   1.128   1.620  14.359 -0.1190  0.0518 -0.2764
30622W        W44036  16.130  10.718   4.658  0.2132 -0.1427  0.1591
30623W        W44037   6.975  16.069  13.319 -0.2133 -0.0533 -0.3736
30624W        W44038   3.672   0.418  15.952 -0.1399 -0.0628 -0.0983
30625W        W44039  15.116   4.755  12.940  0.2988 -0.1916 -0.3800
30626W        W44040  16.224  15.935  15.350 -0.0125 -0.0779 -0.0827
30627W        W44041  14.819   6.006  15.215  0.0849  0.2020  0.4275
30628W        W44042  10.859  11.925  11.124 -0.0386  0.1175 -0.0166
30629W        W44043   8.650  18.053  15.994  0.1049 -0.1459 -0.1811
30630W        W44044  16.285  16.350   0.231 -0.0981 -0.1480  0.1651
30631W        W44045  16.893   3.654   1.710 -0.2512  0.1563 -0.1398
30632W        W44046  16.363  16.824   3.707  0.0217 -0.1058 -0.0379
30633W        W44047   9.925   9.097   0.179  0.0379 -0.2247 -0.0510
30634W        W44048   2.981   5.822  11.959  0.1595 -0.0061  0.1322
30635W        W44049   0.039   5.832   5.888 -0.1121  0.2492 -0.5783
30636W        W44050  17.078   2.896  10.822 -0.0566 -0.0449  0.0226
30637W        W44051   7.813   3.730  15.876 -0.3353 -0.0070  0.0535
30638W        W44052  12.984   3.839  13.382 -0.0177 -0.0313 -0.1865
30639W        W44053  12.136   1.671  11.197  0.1953  0.1101  0.0461
30640W        W44054  12.403  13.524  14.822 -0.1120  0.2377 -0.2896
30641W        W44055   1.485  10.349  14.150  0.2831  0.2294 -0.1122
30642W        W44056  11.860   7.360   1.543  0.0162 -0.1010  0.2998
30643W        W44057   9.495  14.280   0.288  0.1371  0.0199 -0.1615
30644W        W44058   5.242   9.269  16.510  0.0754  0.0542 -0.1949
30645W        W44059  12.373  18.155  12.551  0.0782 -0.1253  0.0609
30646W        W44060   6.666  13.652   5.391 -0.0391 -0.2527  0.2607
30647W        W44061   7.659   3.823  16.350 -0.3787  0.2560 -0.3517
30648W        W44062   3.603  13.339   5.202 -0.2896 -0.0003 -0.0865
30649W        W44063   0.886   6.998   9.876  0.1473 -0.2748 -0.0166
30650W        W44064   6.489   6.569  13.126 -0.4823 -0.1470 -0.1922
30651W        W44065  15.782   9.072   0.239  0.1910 -0.0140 -0.0260
30652W        W44066   9.810  11.525  12.973  0.3165 -0.2506 -0.0715
30653W        W44067  17.288  13.271  14.345 -0.3272  0.1749 -0.1376
30654W        W44068   7.195  17.874   4.028 -0.2039  0.0915  0.1089
30655W        W44069   5.078  16.119  11.110  0.2116  0.2497 -0.3698
30656W        W44070  17.324   3.452  14.934 -0.0846 -0.1005  0.3446
30657W        W44071  17.518   1.063  13.011  0.0465 -0.1680 -0.1896
30658W        W44072  10.076   1.852   2.573  0.1152 -0.0547 -0.2607
30659W        W44073  17.496   9.082   3.454  0.1085  0.0659  0.4214
30660W        W44074  16.708  15.763  10.592  0.2120  0.0006  0.1035
30661W        W44075   7.635   7.835  14.332  0.1117  0.2822 -0.1231
30662W        W44076   5.607  15.005  14.352 -0.0803  0.0797 -0.1276
30663W        W44077  18.056  11.050  14.812 -0.0213 -0.3037 -0.0215
30664W        W44078  12.566   8.463   3.754  0.1605 -0.1831 -0.0053
30665W        W44079   9.199  16.714   5.463 -0.2259 -0.0808 -0.0706
30666W        W44080  11.602   2.990  14.048  0.2505 -0.1046  0.1207
30667W        W44081  12.695   1.559  15.652  0.1229  0.0354 -0.1373
30668W        W44082  12.703  13.836  12.321  0.0875  0.0194 -0.3711
30669W        W44083  10.462  16.150   3.321 -0.0191 -0.0574  0.2927
30670W        W44084  14.407  11.245  14.720 -0.1232  0.1695 -0.0310
30671W        W44085   1.437  14.283  13.688  0.2237 -0.1555 -0.1645
30672W        W44086   3.479  12.019  11.221  0.0712  0.0393  0.3362
30673W        W44087  14.548   4.077   4.730 -0.1309 -0.1477  0.2757
30674W        W44088   6.305   4.229  14.026 -0.1582  0.0485  0.0054
30675W        W44089   9.437   6.309   5.150 -0.0971 -0.1405 -0.0824
30676W        W44090   9.019   7.433  15.415 -0.0695  0.1329  0.3143
30677W        W44091   1.566   5.700  10.171 -0.1345  0.0827  0.0616
30678W        W44092   6.256   5.491  14.634  0.0432  0.0096  0.0814
30679W        W44093  16.648   4.177   9.596  0.0564 -0.0194 -0.0862
30680W        W44094  12.567   3.050   5.718 -0.2536  0.0371 -0.4012
30681W        W44095  15.625  16.548  13.812 -0.1614 -0.2810 -0.1898
30682W        W44096  15.105  17.083   0.740  0.0280  0.1586 -0.2875
30683W        W44097  15.030   3.592  14.587 -0.2677 -0.3740 -0.2421
30684W        W44098  12.349  13.485   3.832  0.3791  0.0234  0.0655
30685W        W44099  11.287  13.355   3.355  0.2123 -0.3023 -0.0207
30686W        W44100   4.078   6.506   1.850 -0.0732  0.2960  0.0751
30687W        W44101   1.555  12.160  15.316 -0.2697  0.0177 -0.1065
30688W        W44102   7.208  13.409  14.646 -0.0575 -0.0190  0.3377
30689W        W44103  13.698  17.449   4.017  0.2045 -0.0376 -0.0405
30690W        W44104   7.859  13.996   0.469  0.0051  0.2596  0.0599
30691W        W44105   5.839   3.119   5.520  0.0434  0.2079  0.0514
30692W        W44106  11.101   8.510   1.252 -0.1428  0.1625  0.0911
30693W        W44107  11.817   5.449   3.699 -0.2650 -0.0826 -0.3048
30694W        W44108  11.537   3.462  15.671  0.2523  0.0886 -0.1387
30695W        W44109   5.085  12.418  11.209 -0.1881 -0.1293  0.1361
30696W        W44110   9.061   8.230   5.915  0.0409  0.0370  0.4745
30697W        W44111   0.603   0.788   3.812 -0.0497 -0.1414 -0.1245
30698W        W44112  11.909  10.558   3.258 -0.1615 -0.2474 -0.1562
30699W        W44113   4.097  16.440   3.710  0.0698  0.1454  0.1818
30700W        W44114  10.073  16.385   6.151 -0.4197  0.2675  0.0844
30701W        W44115   9.948   5.962   2.659 -0.2998 -0.0293  0.0301
30702W        W44116  13.178   7.879   3.776 -0.1125 -0.4735 -0.2600
30703W        W44117   7.169  10.366   4.534 -0.1038  0.0191  0.0667
30704W        W44118   3.420  12.590   5.665 -0.1364  0.0196  0.0500
30705W        W44119   6.930  15.673  12.762 -0.0483  0.0170  0.3147
30706W        W44120   1.689   3.349  15.244 -0.1303  0.1744 -0.1022
30707W        W44121  14.743  10.475  14.203 -0.0885 -0.2975 -0.0738
30708W        W44122   2.678   4.167  15.412  0.1098  0.0191  0.0620
30709W        W44123   5.065   6.781   3.833  0.0458 -0.0010 -0.0903
30710W        W44124  11.637  12.153   5.829  0.3453 -0.1289 -0.0792
30711W        W44125   6.157   2.892  11.209 -0.3765  0.3830  0.1412
30712W        W44126  16.369   5.398   1.009  0.0713 -0.0834 -0.0659
30713W        W44127  16.977  17.440  15.832 -0.1292  0.3429 -0.1936
30714W        W44128  11.395   5.295  13.607  0.1305 -0.2434  0.0161
30715W        W44129  10.965  10.295   4.296  0.0411 -0.1848 -0.3805
30716W        W44130  12.385   8.457  10.532  0.0111 -0.0124  0.0337
30717W        W44131   8.341  15.461   0.728 -0.0401 -0.1399  0.4079
30718W        W44132  10.413   5.009  10.864 -0.0750  0.1408 -0.1008
30719W        W44133   8.937  14.921  14.912  0.0102 -0.3084  0.0435
30720W        W44134   6.298  17.480  15.640  0.1650 -0.1839 -0.2385
30721W        W44135  13.011  15.249  14.477 -0.0915  0.0233  0.1629
30722W        W44136  14.198   1.835  14.254  0.2315  0.1319 -0.3074
30723W        W44137   2.288  15.401   2.414  0.1912 -0.0251  0.3978
30724W        W44138   3.535  14.634   5.060 -0.0616  0.0836 -0.0372
30725W        W44139  14.082   0.771  15.026  0.0762  0.6066  0.0802
30726W        W44140  15.033   1.905  13.908  0.1327 -0.0723  0.0800
30727W        W44141   7.723   4.785   1.571  0.0941  0.1072 -0.2271
30728W        W44142  12.428   2.326  10.106 -0.1280 -0.0162 -0.3612
30729W        W44143  13.579  17.580   0.376  0.1673  0.3143 -0.5339
30730W        W44144  11.708  14.059  11.688 -0.0497  0.0168  0.0541
30731W        W44145  10.239   2.814   2.441 -0.1228  0.0507 -0.0242
30732W        W44146   7.590  15.723   5.644 -0.2967  0.0926 -0.2661
30733W        W44147   4.831   1.533  15.075 -0.0602 -0.0392  0.2247
30734W        W44148  16.826  11.168  10.731 -0.2266  0.0486  0.0115
30735W        W44149   0.297   9.868  15.133  0.0680 -0.5541 -0.5034
30736W        W44150  13.707  17.514   5.669  0.0811 -0.1173 -0.0653
30737W        W44151  12.055   6.106   4.425 -0.2237  0.0806  0.0094
30738W        W44152  15.739   3.648   1.562  0.1266 -0.2040  0.0129
30739W        W44153   3.059   0.149  15.861  0.0674 -0.1710 -0.0136
30740W        W44154   8.751  14.901   3.549  0.2403  0.0543 -0.0649
30741W        W44155  14.690  14.382  14.921  0.1298  0.1995  0.1946
30742W        W44156  11.341   0.444   3.885  0.0479 -0.2114 -0.0829
30743W        W44157  14.243  15.307  12.904  0.0580  0.1039  0.0357
30744W        W44158  18.198   8.775  12.810  0.0826  0.0296 -0.1677
30745W        W44159   1.559  11.709   4.761  0.0877  0.0646 -0.0503
30746W        W44160   6.783  16.988  16.449  0.0587  0.3684  0.0311
30747W        W44161   7.981  15.665  12.522 -0.0987  0.1583  0.0470
30748W        W44162   7.877   1.733  12.440  0.2252  0.0125  0.0816
30749W        W44163  16.874   6.994   3.507  0.1536 -0.1987 -0.3974
30750W        W44164  17.419  10.024   2.107 -0.0302 -0.1830 -0.1374
30751W        W44165   9.269  12.751   5.265  0.0081 -0.1572 -0.0065
30752W        W44166   3.408  14.056   1.609 -0.2856  0.0790  0.3919
30753W        W44167  15.987   7.616   3.543 -0.4112  0.0447  0.0644
30754W        W44168  11.068  17.099  14.932 -0.1011  0.0318 -0.0334
30755W        W44169   6.369  11.365  11.056 -0.2239 -0.1493  0.3864
30756W        W44170  12.108  11.363  16.063 -0.3751  0.0697 -0.2686
30757W        W44171  17.185  10.001   0.446 -0.1205  0.2205  0.2986
30758W        W44172   5.258   8.568   4.193  0.0985  0.1819 -0.1830
30759W        W44173  13.385   1.394  12.894  0.0838 -0.0385  0.1791
30760W        W44174  15.531   9.603  13.814 -0.0901 -0.1162 -0.2999
30761W        W44175  11.440  14.382  12.641 -0.2026 -0.0573 -0.2722
30762W        W44176   9.547   9.938  15.333 -0.2800  0.0338 -0.0304
30763W        W44177  10.156   0.093   4.700 -0.0327  0.1095 -0.1805
30764W        W44178  15.178   7.149  14.086  0.1257 -0.0867  0.0314
30765W        W44179  12.770  14.365   1.287 -0.1836 -0.0885 -0.0983
30766W        W44180   6.028  14.177   3.821 -0.3586 -0.1519 -0.3489
30767W        W44181  11.016  12.886   6.065  0.0221 -0.0549 -0.1021
30768W        W44182   3.983   5.520   0.731 -0.1727 -0.0658 -0.1186
30769W        W44183   0.752   1.168  10.932 -0.1339  0.3901  0.0074
30770W        W44184   3.188   9.458  16.321  0.2262 -0.1082 -0.0480
30771W        W44185   7.508  15.889   0.896 -0.3022 -0.1086 -0.3370
30772W        W44186  17.037  11.687  11.459  0.1366 -0.1493  0.2822
30773W        W44187   3.427  11.243  11.929 -0.0443 -0.0026 -0.0881
30774W        W44188   1.437  11.589   6.170  0.2044 -0.0668 -0.0530
30775W        W44189   4.755   7.037   4.200 -0.3090 -0.0970 -0.2348
30776W        W44190  17.287  16.911   6.020  0.1823 -0.3543 -0.2917
30777W        W44191   5.254   1.874  11.339  0.2406  0.2298 -0.0481
30778W        W44192  13.116   1.343  12.485 -0.0874  0.2149 -0.1333
30779W        W44193   7.066   5.278  13.659 -0.1557  0.4373 -0.0802
30780W        W44194   2.424  17.011   0.165 -0.1204  0.0458 -0.1461
30781W        W44195   3.821   9.816   3.231 -0.1208 -0.0043  0.1777
30782W        W44196  11.478   0.341  12.685 -0.4393 -0.1120 -0.0973
30783W        W44197  11.440  15.489   2.357  0.0485  0.0061  0.3195
30784W        W44198   5.980   9.795   1.502 -0.0100 -0.0740 -0.0164
30785W        W44199   5.453   7.163   1.921  0.1046  0.1718 -0.1980
30786W        W44200   8.171  13.002  12.289  0.2465 -0.1387  0.1867
30787W        W44201   7.369   5.317   2.619  0.1494 -0.1718  0.2493
30788W        W44202  17.671   0.571   5.771 -0.0218 -0.1066  0.1284
30789W        W44203   9.167  13.816   1.104  0.1755 -0.1255  0.1855
30790W        W44204   3.744  10.734  10.286  0.0997  0.0474 -0.0232
30791W        W44205   6.360   6.446   1.190 -0.2883  0.0656 -0.1880
30792W        W44206   9.497   5.325   3.245  0.2897  0.3270  0.1038
30793W        W44207  13.664  16.710   0.535  0.0085 -0.0677  0.0529
30794W        W44208  11.128   4.497  11.520  0.1972  0.1399  0.2005
30795W        W44209   9.877   0.828  15.742 -0.0349  0.1666 -0.0038
30796W        W44210   7.061  17.777   3.067  0.0592 -0.1307 -0.1912
30797W        W44211  13.299   1.656  12.123 -0.1604 -0.1168  0.1116
30798W        W44212   6.367   8.936  12.655 -0.1957  0.0372 -0.1787
30799W        W44213   7.582   5.861   4.658  0.0124  0.0938  0.1400
30800W        W44214  17.886   8.215  15.268 -0.0324 -0.1567 -0.3277
30801W        W44215   6.006   7.987   1.029  0.1490  0.2927 -0.2819
30802W        W44216   6.390   4.069   3.916  0.1920 -0.1481  0.1574
30803W        W44217   4.141  11.330  13.668 -0.1788 -0.0235 -0.0892
30804W        W44218  17.984  17.411  11.563 -0.0279  0.0846 -0.1792
30805W        W44219  15.026   8.548   3.604  0.2001  0.2509  0.0320
30806W        W44220  12.050   7.589   3.612 -0.2084  0.2480 -0.2294
30807W        W44221  10.512   8.064  14.625  0.2825 -0.1724 -0.0776
30808W        W44222  14.143   5.254  12.446 -0.1525  0.0190 -0.1745
30809W        W44223  12.334  15.676   0.334 -0.1831 -0.2707  0.1602
30810W        W44224   3.281  12.236   1.449  0.0630  0.1293 -0.1777
30811W        W44225   1.961  10.793   6.017 -0.0417  0.0416 -0.0442
30812W        W44226   0.061  12.817  13.888  0.0884  0.0284  0.1161
30813W        W44227  14.335  14.894   5.350 -0.2455  0.2754  0.1839
30814W        W44228   3.642  16.018   6.284 -0.3134 -0.2000 -0.2994
30815W        W44229   3.871   7.728   5.152  0.0874 -0.3213 -0.1716
30816W        W44230   2.151   6.851   3.989 -0.0219 -0.0450 -0.2952
30817W        W44231  10.275  13.287  15.683 -0.1563  0.0962  0.2997
30818W        W44232   0.422   3.230   1.293 -0.0451 -0.0807 -0.0449
30819W        W44233   3.696  13.507  15.029  0.0011 -0.0552  0.1290
30820W        W44234  13.870  13.474  11.610  0.0174  0.3107 -0.1078
30821W        W44235  13.034   5.283   4.121 -0.0550 -0.2532  0.2158
30822W        W44236  12.103  15.103  12.604  0.0859  0.0418  0.0990
30823W        W44237   9.849   5.271  11.167 -0.1102 -0.0746 -0.1995
30824W        W44238  15.956   7.911  15.006  0.0688  0.0026  0.3304
30825W        W44239   5.850   2.339   1.382  0.0986 -0.0115 -0.0115
30826W        W44240   2.237  18.275   4.633 -0.2387 -0.0369  0.1357
30827W        W44241   6.580  11.867  10.471 -0.1953 -0.0009 -0.4582
30828W        W44242   2.987  16.121   4.938 -0.0042 -0.3593  0.1743
30829W        W44243  11.109  11.234  11.761  0.0488  0.3583  0.1930
30830W        W44244  12.632   3.770  11.445  0.2586 -0.3722 -0.0807
30831W        W44245   9.880   3.432   0.114 -0.0823  0.0464 -0.3770
30832W        W44246  16.067   7.581   3.998  0.1155  0.0452  0.0159
30833W        W44247  15.315  16.890   2.484  0.1500 -0.2828 -0.0633
30834W        W44248   7.887   9.528  15.469  0.2518 -0.2442 -0.2061
30835W        W44249   0.333  12.917   0.663 -0.2497 -0.1587  0.2438
30836W        W44250  16.192  14.125  11.079 -0.0497 -0.0118 -0.4058
30837W        W44251  10.565  16.426   0.651 -0.1328 -0.1797  0.5720
30838W        W44252   1.419   3.857   1.821 -0.3394 -0.0932 -0.0772
30839W        W44253   6.677   4.428  15.974 -0.1632 -0.2134 -0.0369
30840W        W44254  13.232   8.438  10.037  0.0947 -0.4009 -0.3309
30841W        W44255   1.355   3.605   4.304 -0.0259 -0.0731 -0.0146
30842W        W44256   6.938  14.306   4.969 -0.2523 -0.0128  0.1424
30843W        W44257   8.599  12.026  13.367 -0.0026  0.0729  0.1363
30844W        W44258   4.307  10.275  14.144 -0.0129  0.1406 -0.0209
30845W        W44259   6.754  10.619  15.791  0.2407 -0.2104 -0.1365
30846W        W44260   1.537   7.895  10.743  0.0184  0.1137 -0.2080
30847W        W44261   1.803  13.208   0.293  0.0160 -0.0995  0.1113
30848W        W44262  17.528  17.562   2.488  0.3283 -0.4297  0.1181
30849W        W44263   5.536   4.799   3.477 -0.0093 -0.1064  0.0144
30850W        W44264   7.018  10.910   2.996 -0.2891 -0.1740  0.0233
30851W        W44265   9.204   2.531  12.060 -0.1905 -0.2809  0.0982
30852W        W44266   1.045   8.529   5.729 -0.0874  0.1149  0.1186
30853W        W44267   2.026   7.837  13.013  0.0283 -0.1876  0.0199
30854W        W44268  16.655  15.816   4.425  0.2217  0.1687  0.1831
30855W        W44269   7.859  13.569  12.967 -0.2043 -0.2190  0.0336
30856W        W44270   4.044  11.542  12.301 -0.2375 -0.0972  0.2743
30857W        W44271  11.527   9.108   4.377 -0.0186 -0.2184  0.1720
30858W        W44272   4.001  13.771  11.180  0.1813 -0.1572 -0.0773
30859W        W44273   4.563   1.977   5.867 -0.1715  0.1953 -0.0863
30860W        W44274  17.748  11.066  13.411  0.1129 -0.2117  0.2484
30861W        W44275  11.224  11.883   4.572  0.1258 -0.1316 -0.0727
30862W        W44276   2.231  16.330   5.009  0.0049 -0.1457 -0.0891
30863W        W44277   0.495  15.351  15.246 -0.2931  0.2165 -0.3908
30864W        W44278  15.776   8.587  15.349  0.1401 -0.0236  0.0534
30865W        W44279  16.477  16.007   2.569 -0.1144 -0.0440  0.2312
30866W        W44280   2.539   3.407   2.183  0.2221  0.1445  0.2856
30867W        W44281  13.897   1.085  12.687 -0.2826  0.0923  0.2811
30868W        W44282  14.147   7.549   2.935 -0.3721 -0.2094 -0.0190
30869W        W44283   1.110  14.216   5.898  0.1705  0.1613  0.2658
30870W        W44284  16.841  16.237  12.725 -0.1689 -0.1321 -0.3674
30871W        W44285   3.067  16.192   0.389 -0.1878 -0.2356  0.0101
30872W        W44286  14.808  13.651   5.202 -0.6278 -0.0240  0.0678
30873W        W44287   4.408  13.573   0.504  0.1220  0.0194  0.1637
30874W        W44288  16.399   4.024  13.103  0.0832  0.2406  0.2878
30875W        W44289   7.355  17.673   4.932  0.2722 -0.0353  0.2749
30876W        W44290  12.222   8.345   4.121 -0.1304  0.0018  0.0349
30877W        W44291   6.187   2.379   0.451  0.0663  0.0121 -0.0203
30878W        W44292   3.057   1.058   4.411  0.0437 -0.2610 -0.0949
30879W        W44293  11.530   4.709   4.114  0.0681  0.0155  0.1469
30880W        W44294  15.558  10.174   2.296  0.2176  0.2246  0.0756
30881W        W44295   3.717   3.642   3.913  0.2636  0.2831 -0.0226
30882W        W44296  17.801  11.852   3.392  0.1494  0.1221  0.1488
30883W        W44297   2.844   9.211  14.065  0.1234 -0.0266  0.0579
30884W        W44298   6.873  14.831  15.031 -0.0043 -0.3531  0.0422
30885W        W44299   9.628   4.300   5.125 -0.0552  0.4530 -0.0265
30886W        W44300   6.554  16.724  14.231  0.2501  0.0678 -0.1999
30887W        W44301   1.404   0.311   6.307 -0.0462  0.3538 -0.1511
30888W        W44302   5.150  14.486  16.396 -0.1731  0.3508 -0.0222
30889W        W44303  14.089   2.870  12.059 -0.1352  0.1974  0.1767
30890W        W44304   8.616  17.241   4.571  0.0449 -0.0707  0.1966
30891W        W44305   1.836   7.767  13.447  0.0145  0.2015  0.3032
30892W        W44306  13.424   7.245  15.205  0.3015 -0.3629 -0.0486
30893W        W44307   1.234   9.385  13.161  0.1310  0.0445  0.1093
30894W        W44308  10.483   4.234  13.435 -0.0789 -0.0323  0.0722
30895W        W44309   6.732   2.518   4.304 -0.3270 -0.0867 -0.2164
30896W        W44310  11.104   0.203  15.070 -0.0916  0.1073 -0.1090
30897W        W44311   7.472  13.758   2.790  0.0418 -0.0319  0.0905
30898W        W44312  17.009  13.510   2.837  0.0385 -0.1142  0.0505
30899W        W44313   7.252   9.914  11.679  0.1783 -0.0939  0.0994
30900W        W44314   5.666   9.467  16.152  0.1339  0.1632 -0.2587
30901W        W44315   6.205   3.190   4.792 -0.0925  0.0446 -0.3128
30902W        W44316  14.684   2.126  13.543 -0.1302 -0.1001 -0.0983
30903W        W44317   5.195  12.364   0.448 -0.0747  0.2740 -0.1461
30904W        W44318  17.764  13.123   3.141  0.0106 -0.4271  0.2327
30905W        W44319   3.852   2.933   2.101 -0.1978  0.1851  0.1286
30906W        W44320   2.719  12.209  12.274 -0.0150 -0.1532 -0.0888
30907W        W44321   2.467  17.589   5.067 -0.0490 -0.1462 -0.0198
30908W        W44322  16.181  11.497   0.682 -0.0738 -0.0391 -0.1664
30909W        W44323  12.364   3.997   0.800 -0.0171 -0.0773 -0.1287
30910W        W44324   1.664   4.322   2.837 -0.0450 -0.4675 -0.1822
30911W        W44325   7.594  12.833  10.583  0.0666  0.0621 -0.2057
30912W        W44326  10.756  12.470   5.218 -0.3796 -0.0900 -0.0278
30913W        W44327   4.792  14.647   4.313 -0.0843  0.0090 -0.0726
30914W        W44328   6.591   5.275   3.182 -0.2159  0.1241  0.1124
30915W        W44329  11.571  13.621  11.938 -0.0771 -0.1179  0.0181
30916W        W44330   7.005  18.274   3.360 -0.4249 -0.0224 -0.1259
30917W        W44331   7.413   4.246   5.867 -0.4420  0.1830 -0.1755
30918W        W44332   2.099  10.722   0.798 -0.1649 -0.1167 -0.1598
30919W        W44333   4.790   4.335   0.239  0.0921  0.2259  0.1183
30920W        W44334   8.975  13.975  14.121  0.2433 -0.2543  0.1622
30921W        W44335  17.941  10.174  11.641 -0.0848 -0.0822  0.0715
30922W        W44336  16.080   0.524   5.382  0.1280  0.0231  0.0587
30923W        W44337  15.343  14.952  11.748 -0.0296 -0.2707  0.0959
30924W        W44338   9.860  12.160   2.520  0.0164 -0.2663  0.2749
30925W        W44339  15.084   9.861   5.433 -0.2327 -0.1555  0.0142
30926W        W44340  15.160  16.415   5.805  0.0699  0.0941 -0.0007
30927W        W44341  16.326   5.524   4.747  0.2281 -0.1081  0.1543
30928W        W44342  14.064  16.809  13.570  0.1584 -0.0826 -0.0979
30929W        W44343  17.351   3.394  13.940  0.0528 -0.1636 -0.1052
30930W        W44344   3.382   0.806   0.642  0.0256  0.1053  0.1498
30931W        W44345   3.000   1.517   2.275  0.0851  0.0033  0.2546
30932W        W44346   0.717  13.411   0.477  0.0663  0.1485  0.1523
30933W        W44347   4.588   2.776   1.782 -0.0527  0.0101 -0.0173
30934W        W44348   7.861  10.491  14.137 -0.3482 -0.0756  0.0844
30935W        W44349  17.665  17.661   5.388 -0.1959  0.3938  0.2002
30936W        W44350  16.186  10.383  13.433 -0.0497  0.1926  0.1115
30937W        W44351   7.625  14.277   1.817 -0.0242  0.0308 -0.2242
30938W        W44352   5.065   5.987  14.924  0.0534  0.2369 -0.0907
30939W        W44353  10.367   8.164  14.146 -0.2290  0.2537  0.0135
30940W        W44354  10.754   6.182  14.484 -0.1131  0.0093  0.0123
30941W        W44355   3.004  16.801   3.417  0.1452 -0.0339  0.0957
30942W        W44356   4.334  11.983  15.448  0.0955  0.1212  0.1129
30943W        W44357  18.281   5.349  12.700  0.0535 -0.3222  0.0012
30944W        W44358   3.278   1.952   4.785 -0.0749 -0.1552 -0.0206
30945W        W44359  12.846   6.030   0.165  0.1859  0.0365  0.2353
30946W        W44360   6.893  11.515  14.211  0.0954  0.2893  0.2973
30947W        W44361  16.561  14.876  14.159  0.3122 -0.0457 -0.1793
30948W        W44362  12.024   4.952  12.329  0.0429  0.2027 -0.1565
30949W        W44363  10.321   9.568  14.644  0.2280 -0.3182  0.0047
30950W        W44364   2.286   4.798   2.257 -0.1091  0.3194 -0.0416
30951W        W44365  17.615   7.821  13.567  0.2416 -0.0538  0.0670
30952W        W44366   6.850  14.597   0.713 -0.1249 -0.2118  0.1195
30953W        W44367   4.061  17.065  12.885 -0.4502  0.0950 -0.2624
30954W        W44368  10.845  15.708   3.685  0.0321 -0.3208 -0.1235
30955W        W44369   8.715  10.732   5.698 -0.1582  0.0690 -0.2752
30956W        W44370   5.893   8.706  12.767 -0.2917 -0.0285 -0.2865
30957W        W44371   8.743   9.903  11.986  0.2955 -0.1609  0.2030
30958W        W44372   6.723  16.507   6.174 -0.1452  0.0260  0.0552
30959W        W44373   0.479  15.324  11.853 -0.3049  0.0508 -0.0317
30960W        W44374  18.251   3.187  12.271  0.2645  0.0869  0.2756
30961W        W44375   6.289   1.305   5.426  0.4595  0.2772  0.2114
30962W        W44376   5.608   1.390   2.308 -0.0098  0.0056  0.2571
30963W        W44377   1.454  16.233   3.112 -0.1324 -0.1580 -0.1083
30964W        W44378  17.353  15.280  16.305  0.0579  0.0522 -0.2745
30965W        W44379  15.019  17.875   5.381 -0.1783  0.0906  0.1942
30966W        W44380   0.427   6.351  11.893  0.0390 -0.0213  0.2519
30967W        W44381   9.018   7.963   3.142  0.0915 -0.0151  0.2919
30968W        W44382   1.329   0.672  14.321 -0.1610 -0.0407  0.1122
30969W        W44383   9.130   8.378  10.190 -0.1848  0.2076 -0.0944
30970W        W44384   3.160   0.744  11.379 -0.0447  0.0253  0.1570
30971W        W44385   1.471  13.428   1.101  0.2450  0.1209 -0.1696
30972W        W44386   3.488  15.978  15.088  0.0855 -0.0433 -0.1979
30973W        W44387   8.598   9.943  14.951  0.0624  0.1745 -0.2455
30974W        W44388   5.545  14.330   3.902 -0.1639  0.3029  0.4727
30975W        W44389   0.115   6.524   4.773  0.2090 -0.0114  0.2275
30976W        W44390   4.201  11.663   2.515  0.0299 -0.2166 -0.4700
30977W        W44391   2.650   0.116  14.551 -0.1039 -0.1458  0.2101
30978W        W44392  10.740   0.838  14.467 -0.1366  0.1067 -0.0668
30979W        W44393  11.006  12.840  11.072  0.0925 -0.0273  0.2498
30980W        W44394   3.396   5.006  12.633  0.0562  0.0763 -0.3027
30981W        W44395   4.725   9.606  15.074  0.2514 -0.1824  0.2751
30982W        W44396  13.469   8.214   4.572 -0.3788  0.0579  0.1883
30983W        W44397  16.168   3.407   0.683 -0.2560  0.1487  0.2892
30984W        W44398  14.316   9.196   4.168 -0.2075  0.0483 -0.1902
30985W        W44399  12.976   6.197   3.746  0.0817  0.3735  0.0449
30986W        W44400   5.423   5.510  14.047 -0.0374  0.2577 -0.0367
30987W        W44401  16.110   9.613  14.841 -0.4151  0.2206  0.1703
30988W        W44402   0.772   5.658  13.412 -0.5936 -0.1212 -0.0552
30989W        W44403  11.704  14.732   2.516 -0.1840 -0.0287 -0.0180
30990W        W44404  17.177   0.963   4.097  0.3022 -0.1709  0.0009
30991W        W44405   5.324   0.932  10.969 -0.0459 -0.1480 -0.2431
30992W        W44406  10.790   6.884   4.308 -0.0430  0.0457 -0.0309
30993W        W44407  10.463   7.678   4.553  0.0134 -0.0307  0.1436
30994W        W44408   5.550   7.734   3.901 -0.0588 -0.2150  0.2115
30995W        W44409   4.004   1.021  12.184  0.0464  0.1538 -0.1816
30996W        W44410   7.740  10.581  12.355 -0.1042 -0.0070  0.2455
30997W        W44411   6.597   8.077  15.652  0.0600  0.1817 -0.3367
30998W        W44412  10.597   7.059  10.600 -0.1159  0.2193 -0.0690
30999W        W44413   4.698   7.271  14.645 -0.1602  0.3015 -0.0551
31000W        W44414  14.621   3.875  15.998 -0.2414  0.0592  0.1704
31001W        W44415  16.015   7.015   2.699 -0.0395 -0.2399 -0.0284
31002W        W44416   3.962   8.845   2.695  0.0491 -0.0842 -0.0353
31003W        W44417  10.090  16.063  14.355 -0.2318  0.0740  0.1947
31004W        W44418   8.522   0.392  15.749  0.1112  0.0214  0.2925
31005W        W44419  16.661   4.256   3.338 -0.0752 -0.0644  0.0369
31006W        W44420  11.077   4.451  15.111 -0.1650 -0.3324  0.0933
31007W        W44421  10.860   7.848   9.776  0.0536  0.2156 -0.0919
31008W        W44422  12.752  17.309  15.101  0.0922  0.0511 -0.1452
31009W        W44423  15.399   4.860  13.929  0.2791  0.2275  0.1760
31010W        W44424   7.421  13.548   0.547  0.0116  0.1279 -0.2610
31011W        W44425  16.106  10.653   1.631  0.1684  0.0932 -0.4790
31012W        W44426  16.092  16.869  16.094  0.4232 -0.1178  0.1757
31013W        W44427  13.365   4.559  14.603 -0.1480  0.1308 -0.2042
31014W        W44428   8.202  17.972   3.631  0.3627  0.1365  0.3354
31015W        W44429   1.162   0.738   3.198 -0.0573  0.0320  0.0618
31016W        W44430   0.581  15.832  14.165  0.0422  0.2717 -0.0748
31017W        W44431   8.826   3.416   4.233 -0.2054 -0.2011  0.0406
31018W        W44432   3.819   0.765   0.869  0.1039 -0.0449  0.2831
31019W        W44433   3.397  15.798   3.164 -0.0735  0.2103  0.1202
31020W        W44434  12.683   2.059   4.291  0.1107 -0.0117  0.0602
31021W        W44435   3.779   4.344  16.534 -0.0827 -0.1667 -0.1294
31022W        W44436   3.581   7.674  15.826  0.0700 -0.0156  0.1550
31023W        W44437  15.564  10.630   4.837 -0.1982 -0.0299  0.0667
31024W        W44438   2.913  10.719  15.852  0.0031 -0.0219  0.1097
31025W        W44439   8.841   4.630   6.193 -0.1769 -0.2975  0.1934
31026W        W44440   5.842  10.222  10.127  0.2776  0.2280 -0.0246
31027W        W44441  10.831   8.597  16.245  0.1434  0.0696  0.1379
31028W        W44442  12.171  12.300   3.065 -0.0863 -0.5214  0.2335
31029W        W44443   1.717  17.139   3.499  0.0967  0.0691  0.2333
31030W        W44444  12.761   4.142  11.913  0.0016  0.1176 -0.0031
31031W        W44445  10.157   6.362  16.260 -0.1100  0.1061 -0.2629
31032W        W44446   5.756  15.033   2.764 -0.2491  0.3430  0.0978
31033W        W44447   2.233  11.314   2.877 -0.1309  0.1330 -0.1676
31034W        W44448   7.473   8.605   5.204  0.4144  0.0971  0.0908
31035W        W44449   5.172   2.838   5.712 -0.0691 -0.1500  0.1448
31036W        W44450  12.861   1.058   1.162 -0.0299  0.1118  0.0740
31037W        W44451   3.354   0.458   1.567  0.0649  0.0134  0.1271
31038W        W44452   7.684  18.240   5.863 -0.1073  0.1268  0.0503
31039W        W44453  11.931   5.606  11.787 -0.0964  0.0174 -0.2820
31040W        W44454   4.095   6.113  15.541  0.0754 -0.1422  0.1924
31041W        W44455   1.207  15.555  11.269 -0.0962 -0.1489 -0.1937
31042W        W44456  13.858   0.207   0.139  0.1067 -0.4010  0.2167
31043W        W44457  14.694  10.981  16.297 -0.0247  0.0795 -0.1059
31044W        W44458   1.556   0.644   0.273 -0.2864  0.1870  0.0294
31045W        W44459  12.575   4.261   1.301 -0.1262 -0.1753 -0.0780
31046W        W44460  14.471   4.438  10.282  0.0788  0.1674 -0.2572
31047W        W44461  14.580  15.921  15.991  0.2555 -0.1294  0.1363
31048W        W44462  16.074   8.411   3.292  0.0425  0.0417 -0.0965
31049W        W44463   0.731   5.324  11.227 -0.0284  0.0107  0.2060
31050W        W44464  18.007  16.054   1.842  0.0233 -0.4006 -0.1476
31051W        W44465   5.756   1.093  11.071 -0.2420  0.2636  0.1097
31052W        W44466   6.048   4.107  12.771  0.0013 -0.1054  0.0242
31053W        W44467  17.987  16.526   4.685 -0.1162  0.0223  0.0512
31054W        W44468   9.861  14.788   0.804 -0.0610 -0.2038 -0.0154
31055W        W44469  14.150  11.926   5.788 -0.0978 -0.4745  0.2987
31056W        W44470   5.769  17.259   2.597  0.0377 -0.1759  0.0776
31057W        W44471   9.729  15.308  10.821 -0.0599  0.1894 -0.0065
31058W        W44472  13.361   0.338   4.106  0.1873 -0.1881  0.2377
31059W        W44473  16.740   0.127  16.477  0.0070  0.3484  0.3402
31060W        W44474  12.445  14.852   0.862 -0.0168  0.0230 -0.2014
31061W        W44475   6.613   5.143  14.679  0.1100 -0.0395  0.1465
31062W        W44476  17.226   8.466  11.283  0.0630  0.0582  0.0003
31063W        W44477  13.732   6.018   4.315 -0.2350 -0.2403  0.2678
31064W        W44478  14.023  13.405  13.425  0.1263  0.2401  0.2990
31065W        W44479  16.806   8.778   4.573 -0.2227 -0.2144 -0.1804
31066W        W44480   0.591  13.751  12.817  0.0057  0.1542 -0.2230
31067W        W44481   2.825  17.565  13.650  0.0321 -0.1582 -0.1004
31068W        W44482   9.089  10.428  14.609  0.1216 -0.0067 -0.0924
31069W        W44483  10.285  10.243   0.847 -0.1833 -0.1093  0.3208
31070W        W44484  14.016  15.047  15.236 -0.0625 -0.0955  0.3645
31071W        W44485  16.772  17.667  13.697 -0.1456  0.1132  0.1098
31072W        W44486   9.010   9.864   3.972 -0.1084 -0.0652 -0.0430
31073W        W44487  11.428   7.176  14.517 -0.1102 -0.2127 -0.1617
31074W        W44488   7.539   0.523  14.959  0.0512  0.0243  0.1580
31075W        W44489   3.526   8.398   0.640 -0.3579 -0.0992 -0.3016
31076W        W44490   5.654   5.410  12.838  0.0667 -0.0399 -0.3626
31077W        W44491  12.001   1.816   2.529 -0.2239 -0.3494  0.0402
31078W        W44492   3.010  14.786  16.186 -0.0669  0.0416 -0.0317
31079W        W44493  14.346   9.253  13.044 -0.1523 -0.0335 -0.0296
31080W        W44494   4.845  12.677  12.756 -0.3088 -0.2521 -0.1606
31081W        W44495   3.098  12.848   6.872  0.1265  0.1302 -0.1214
31082W        W44496  10.550  16.944  13.126 -0.0954 -0.3092  0.1729
31083W        W44497   4.647  17.630   5.130 -0.2035 -0.0672 -0.2232
31084W        W44498  11.798   9.079  11.009 -0.1685  0.1517  0.0207
31085W        W44499   1.120  13.276  12.133 -0.0066 -0.1945 -0.2178
31086W        W44500   2.512   8.344  13.558 -0.1187 -0.2294  0.1341
31087W        W44501  12.804  10.773   3.430  0.0754 -0.0066 -0.2316
31088W        W44502  10.226   3.639  12.255 -0.0242 -0.4212 -0.1295
31089W        W44503  10.751   3.820  14.200  0.0655 -0.1492 -0.1092
31090W        W44504   2.075  17.318   0.289 -0.0405  0.0249  0.0243
31091W        W44505   4.810   6.116   0.707 -0.1231 -0.1436  0.0612
31092W        W44506  11.365  14.505  11.671 -0.1900 -0.1975 -0.1217
31093W        W44507  13.401  10.820   3.602 -0.0197  0.0930 -0.3031
31094W        W44508   1.777   0.188   0.252 -0.1430  0.0883 -0.2127
31095W        W44509  10.562   0.262   1.282 -0.1185 -0.0184 -0.0830
31096W        W44510   2.669   9.572  13.091  0.0487 -0.1503 -0.1227
31097W        W44511   2.697   1.063  11.501 -0.3578 -0.1770  0.1788
31098W        W44512   6.500  16.623   5.372  0.0163 -0.0725 -0.0725
31099W        W44513  17.608  14.749  11.310  0.1955 -0.0662 -0.0236
31100W        W44514   8.236   3.379  10.810 -0.0458 -0.0190  0.4546
31101W        W44515   9.886   7.100   4.876  0.0256  0.1844  0.0700
31102W        W44516  12.181  13.811  14.491  0.2147  0.2395 -0.1724
31103W        W44517  11.898  15.794   2.792  0.0382  0.2067  0.1007
31104W        W44518   4.612   1.844  13.631 -0.2643  0.2215 -0.0848
31105W        W44519  17.519   4.279  13.635 -0.0147 -0.1357  0.0500
31106W        W44520  17.013  14.448   1.740  0.0462  0.1820  0.1105
31107W        W44521   8.338  15.119  10.853 -0.0335  0.0351  0.0829
31108W        W44522  15.514   4.612  12.027 -0.2312 -0.2095 -0.2025
31109W        W44523   9.130  11.163   1.740  0.1323 -0.1120 -0.2318
31110W        W44524   1.809   7.353  15.761 -0.2127  0.0306  0.1245
31111W        W44525   1.611  11.599   3.386  0.3374  0.0428 -0.0448
31112W        W44526   8.936  14.687   0.929  0.0936  0.2195 -0.2637
31113W        W44527  12.871  15.196  13.998  0.0709  0.1282  0.3863
31114W        W44528   5.596   8.528  11.480 -0.0468 -0.1568 -0.0751
31115W        W44529   8.316  15.610  10.821  0.1203 -0.1466 -0.1627
31116W        W44530   3.471  12.435  10.829 -0.0463  0.0804 -0.2943
31117W        W44531  12.032   6.664   4.401  0.5135 -0.1197  0.0826
31118W        W44532  12.998  14.844   0.206  0.0209 -0.0157  0.0138
31119W        W44533   8.421   6.781   1.870 -0.0327  0.1129  0.2094
31120W        W44534  11.117   5.218  11.990  0.0486  0.2257  0.1591
31121W        W44535   1.331   2.722  13.027 -0.1113  0.2557 -0.2430
31122W        W44536  10.974  13.027  13.652 -0.3513  0.0345 -0.0297
31123W        W44537   7.344   8.602   5.775  0.1635  0.1285  0.1626
31124W        W44538  13.154   3.649   6.166  0.0003 -0.0280 -0.0604
31125W        W44539  18.263  10.001   1.795  0.0355 -0.1393 -0.1318
31126W        W44540   3.545  16.006   0.436  0.0247  0.0365 -0.1568
31127W        W44541  17.917  14.113   3.580 -0.2296  0.1903  0.0484
31128W        W44542   3.524   0.066   5.284  0.1110  0.2625  0.1819
31129W        W44543   6.063   1.208   2.317  0.0016  0.0379 -0.1103
31130W        W44544   4.835  11.413  14.896  0.1670  0.2344  0.1096
31131W        W44545   4.069  14.051   0.404  0.1633 -0.0627  0.0245
31132W        W44546   1.098   1.212  13.266 -0.1822 -0.0568  0.0379
31133W        W44547   7.799   7.102  15.154 -0.2938  0.2734 -0.0859
31134W        W44548  15.213   3.591  15.085  0.0937 -0.2745 -0.0357
31135W        W44549  12.152   9.426   1.120 -0.0080  0.1180  0.0716
31136W        W44550  10.150   1.420   2.874 -0.1707  0.3238  0.1776
31137W        W44551   1.345   7.040   2.884  0.1542 -0.1471 -0.0121
31138W        W44552   4.515   6.574   5.633  0.0194  0.0185  0.0002
31139W        W44553   1.144   7.932   4.658  0.1718 -0.0772 -0.1150
31140W        W44554   7.722   9.528  14.958  0.1044 -0.2034 -0.0686
31141W        W44555   9.278  16.305  13.973  0.0577  0.5468  0.0746
31142W        W44556   9.270  16.560   1.388 -0.0105  0.1001 -0.2255
31143W        W44557   9.938  17.142  14.349 -0.2589 -0.0514  0.1471
31144W        W44558  10.365   7.407   1.898 -0.3428  0.2431  0.0385
31145W        W44559   9.786  18.258   0.997  0.1490  0.0734  0.3568
31146W        W44560   8.988   9.216   1.398 -0.2136 -0.0954 -0.0180
31147W        W44561  17.471   4.168  10.420  0.0568 -0.0142  0.0189
31148W        W44562  15.032   9.006   3.417  0.0029 -0.1695 -0.0777
31149W        W44563   3.919   3.884   1.134  0.1038 -0.0757  0.3635
31150W        W44564   7.329   1.684  12.766  0.0474  0.1613  0.1590
31151W        W44565  15.324  17.616  11.157  0.2337 -0.1846 -0.0393
31152W        W44566   6.282  15.732  16.315  0.3150 -0.0359  0.1071
31153W        W44567   9.544   7.240   5.294 -0.3218  0.0292 -0.1510
31154W        W44568  12.666   3.362   1.566  0.1519  0.0008  0.0256
31155W        W44569   7.404  12.829  11.872 -0.2287 -0.1257  0.0672
31156W        W44570   1.340  10.713   3.789 -0.0268 -0.1697 -0.2469
31157W        W44571  12.042  12.347   4.836 -0.1532 -0.0177  0.0410
31158W        W44572   6.865   2.775  12.147  0.1615  0.0241  0.1389
31159W        W44573   6.427   2.014   2.527  0.2529 -0.1195 -0.4647
31160W        W44574  11.506  13.152  14.404 -0.1751 -0.2499  0.0803
31161W        W44575   1.919   7.857   4.977 -0.0968  0.1569  0.1538
31162W        W44576   8.157   6.636  13.486  0.3612 -0.1171 -0.0336
31163W        W44577  17.974   9.057   3.244 -0.0670 -0.2421  0.1954
31164W        W44578   7.986   2.160   3.757 -0.0800  0.0557  0.0249
31165W        W44579   5.080   6.774   2.730  0.0335  0.0083 -0.2420
31166W        W44580  10.774   9.965  16.024  0.0423  0.1863 -0.3729
31167W        W44581  17.286   0.284  16.407  0.2627 -0.6274  0.1872
31168W        W44582  16.464   7.471  12.944  0.0223 -0.1083 -0.0496
31169W        W44583   4.461   0.291  11.855  0.0012 -0.0829 -0.2741
31170W        W44584   5.729  13.472  16.343 -0.0026 -0.1884 -0.1621
31171W        W44585  15.126   6.134  13.534  0.1799  0.1040  0.3578
31172W        W44586   8.723  14.100   3.202 -0.5328 -0.1456 -0.0151
31173W        W44587  13.942   5.719   1.189  0.1765 -0.0653  0.1682
31174W        W44588  15.165   6.250   4.314 -0.0039  0.0369  0.0247
31175W        W44589  10.209   2.429   3.904  0.2325 -0.1446  0.2185
31176W        W44590  15.652  13.211  14.974  0.1360  0.0258 -0.1998
31177W        W44591  13.418  11.629  13.223  0.0112 -0.1371 -0.1754
31178W        W44592   1.989   6.449   3.698 -0.2177  0.0274 -0.3898
31179W        W44593  18.053   0.957   2.906  0.2857 -0.2671  0.1352
31180W        W44594  18.195   5.557   2.084  0.2029  0.1295  0.2356
31181W        W44595  15.392   0.895   3.212 -0.0266 -0.0527  0.2901
31182W        W44596  14.603  17.984  11.487 -0.1961 -0.0495 -0.1727
31183W        W44597   7.661   9.595   4.634  0.0160 -0.2967 -0.0801
31184W        W44598   7.948  14.259  11.723  0.0310 -0.0679  0.0707
31185W        W44599  11.251  14.646   3.326  0.1438 -0.0032  0.1449
31186W        W44600   9.829  11.265   0.788 -0.1736  0.0860 -0.1509
31187W        W44601   9.923   1.546   1.057  0.0144 -0.1941 -0.2049
31188W        W44602   7.830  11.332  13.081 -0.1151  0.2439 -0.2236
31189W        W44603  10.835   6.598  11.652 -0.0557 -0.0808 -0.2042
31190W        W44604  13.676  12.490   1.957  0.0996  0.0882  0.2347
31191W        W44605  14.834   3.147   3.163 -0.0799  0.0491 -0.0101
31192W        W44606   6.311   4.384   2.586 -0.1667 -0.3490  0.0483
31193W        W44607  12.397  18.181  16.496 -0.1207  0.0188  0.0971
31194W        W44608   8.636   9.970   4.527 -0.0692 -0.2664 -0.0468
31195W        W44609  17.634  11.912  11.567 -0.2009 -0.0217 -0.2014
31196W        W44610  10.412  17.563   1.303 -0.3402 -0.1303 -0.0792
31197W        W44611  11.283  14.592  12.253  0.0613  0.1214  0.0532
31198W        W44612  14.109   4.798   4.690 -0.0872  0.0194 -0.0393
31199W        W44613   6.934   5.859  11.880  0.0187  0.2645  0.1791
31200W        W44614  13.378   5.639  12.051  0.1391 -0.0249 -0.1543
31201W        W44615   1.067   2.707  10.846 -0.0966  0.1749 -0.2179
31202W        W44616  17.734  13.166   5.652  0.0159 -0.0203 -0.1832
31203W        W44617  10.753   1.785  11.636  0.1607 -0.0489  0.1487
31204W        W44618   3.643   9.176   6.078  0.2786  0.2640  0.0513
31205W        W44619   3.298   5.176  13.738 -0.1369 -0.0895 -0.2253
31206W        W44620  10.522   3.491   4.236 -0.2239 -0.1429 -0.1735
31207W        W44621  14.030   9.778  12.470 -0.1200  0.1462 -0.0212
31208W        W44622   1.202   1.498  11.656  0.2563 -0.0775 -0.1294
31209W        W44623   6.645   3.441  10.682  0.2971  0.2055 -0.2924
31210W        W44624  11.371  17.457   2.431 -0.1915  0.1633  0.2480
31211W        W44625  18.201   4.045  11.624  0.0146 -0.0816  0.1636
31212W        W44626   1.088  14.316  14.133 -0.1140  0.1096  0.1238
31213W        W44627  10.091   0.069  16.027 -0.3688  0.2976 -0.2210
31214W        W44628  12.579  10.041   0.561 -0.3570  0.3340  0.2398
31215W        W44629   1.702  12.588  14.159  0.1376  0.0598  0.0351
31216W        W44630   4.167  13.868   0.866 -0.1977  0.1878  0.2466
31217W        W44631  15.393  16.466  12.159 -0.0022 -0.4722  0.0719
31218W        W44632  12.931  14.927   6.542 -0.6005  0.0388  0.0907
31219W        W44633  13.849  16.059  11.927  0.0385  0.2075  0.4005
31220W        W44634   5.849   6.614   4.369  0.1060 -0.1210 -0.3339
31221W        W44635   4.862  16.240   2.536 -0.2236 -0.0425 -0.1780
31222W        W44636  13.308   9.205   0.060 -0.1553  0.4243  0.1235
31223W        W44637  14.683   0.980  13.099 -0.2684 -0.2766 -0.3910
31224W        W44638  16.743   0.865   3.794 -0.0076  0.0305 -0.1138
31225W        W44639   9.850   3.981  14.560 -0.0360 -0.1530  0.3987
31226W        W44640  16.921  15.346   0.152  0.0646  0.1143 -0.3442
31227W        W44641  15.309   3.435   2.440 -0.1417  0.3007 -0.1587
31228W        W44642   4.975   4.702  10.976  0.0761 -0.3183 -0.0118
31229W        W44643  15.526   9.651   1.176 -0.0971  0.0606 -0.3986
31230W        W44644   7.073   0.220   1.416 -0.1639  0.1485  0.0848
31231W        W44645  14.947  16.005   4.493 -0.1715 -0.2402 -0.1703
31232W        W44646  15.264  12.752   3.372 -0.0289  0.1926  0.0281
31233W        W44647  17.328  17.342   1.664 -0.2816  0.1282 -0.1288
31234W        W44648  18.071   0.017  14.169 -0.1705 -0.0916 -0.0363
31235W        W44649  11.919   6.628  15.014  0.2876  0.3072  0.0265
31236W        W44650   1.486   4.430   9.756 -0.0868 -0.0022  0.0247
31237W        W44651   8.757   7.113  11.630  0.0217 -0.3909  0.1269
31238W        W44652   1.319   2.077  15.483 -0.1667 -0.1254 -0.0489
31239W        W44653   4.166   1.669  15.495 -0.3791 -0.2509  0.1402
31240W        W44654   6.201   5.539   0.850  0.0775  0.3364 -0.1831
31241W        W44655   3.004   8.157  16.433 -0.1085 -0.0725  0.0868
31242W        W44656  10.568  11.767   0.258 -0.0757  0.1605 -0.2328
31243W        W44657  14.317   7.102  12.154  0.2943 -0.1071  0.1554
31244W        W44658   0.379  17.922  14.479  0.0854  0.3830 -0.0992
31245W        W44659   9.569   8.656   3.902 -0.3458  0.0970  0.1573
31246W        W44660  17.355  14.803  16.256  0.3020  0.0610  0.0095
31247W        W44661  10.260   0.087  11.599 -0.1702  0.2959 -0.0770
31248W        W44662   4.434  17.701   6.545 -0.0286  0.2248  0.1310
31249W        W44663  13.346   0.295  14.001  0.2691 -0.2185 -0.0187
31250W        W44664  14.163  11.689  15.872  0.0216  0.0381  0.0616
31251W        W44665  12.884  14.613   1.843  0.0598 -0.0397 -0.3208
31252W        W44666  16.755   1.933   1.123 -0.2856  0.1407 -0.0696
31253W        W44667  17.714  14.138   5.772 -0.0283  0.1576 -0.1911
31254W        W44668   5.052  15.863  15.789  0.0429  0.2263 -0.1355
31255W        W44669  17.289  11.859   3.532 -0.1895 -0.2318 -0.1978
31256W        W44670  10.030  16.928   6.016 -0.1216  0.1496  0.0090
31257W        W44671   0.360   4.698  15.803  0.0490  0.1481  0.1664
31258W        W44672  17.394   4.486  10.052  0.1490  0.0425  0.2364
31259W        W44673   4.880   0.626   6.079 -0.2348 -0.1311 -0.3569
31260W        W44674  13.844  12.656   3.465 -0.1662 -0.0398  0.1910
31261W        W44675   0.602   6.075   3.674 -0.3514 -0.3916  0.1130
31262W        W44676   7.038  13.109   2.292  0.1306 -0.4004 -0.2177
31263W        W44677  17.650  15.474  12.643 -0.1016  0.0160 -0.1459
31264W        W44678  18.265   9.503  15.307 -0.3846 -0.1492  0.4162
31265W        W44679   4.632  17.243   0.057 -0.0286  0.1649 -0.1928
31266W        W44680   6.564   2.240   3.904  0.1773 -0.0343 -0.1122
31267W        W44681   7.886   5.184  14.073 -0.3745 -0.1474 -0.2277
31268W        W44682   5.016   2.331   1.209  0.3897  0.1984  0.1158
31269W        W44683   2.274  13.045   2.636 -0.2687 -0.0332 -0.0758
31270W        W44684  11.967   7.236  15.711  0.1953 -0.0717 -0.0336
31271W        W44685   1.929  16.540  13.172 -0.0076  0.1650 -0.1046
31272W        W44686   9.713  14.044   5.491 -0.0457 -0.0193  0.1719
31273W        W44687   6.681  16.263   3.856  0.1197 -0.1107  0.1121
31274W        W44688   2.176   2.414  10.186  0.1768  0.0186  0.3039
31275W        W44689   7.055   7.645  13.510  0.0083  0.3996 -0.0897
31276W        W44690   8.088   9.677   2.364 -0.2440 -0.0740  0.1439
31277W        W44691  12.338   7.609  10.788 -0.0475  0.1101  0.3793
31278W        W44692   0.737   2.492   0.686 -0.0984 -0.3240  0.1837
31279W        W44693   3.949  12.501  13.099 -0.2253 -0.1493  0.0802
31280W        W44694  14.035  14.253  11.859  0.1038  0.0844  0.1790
31281W        W44695  12.351   5.104   4.519  0.2512  0.0130  0.0169
31282W        W44696  14.120   0.802  10.534  0.1239 -0.4069  0.3036
31283W        W44697  13.431   7.535   5.849 -0.0246 -0.1041  0.0612
31284W        W44698  17.917  17.708  14.997 -0.1819 -0.0879 -0.0678
31285W        W44699   7.314  17.237  11.559  0.1834  0.4206  0.0944
31286W        W44700   8.736  13.607   3.009  0.1547  0.1484  0.2020
31287W        W44701   4.573   1.498  13.029  0.1921 -0.0430  0.5008
31288W        W44702  18.020   3.104   1.455  0.0469  0.0990  0.2624
31289W        W44703   1.096   3.919   0.634  0.1812 -0.3591 -0.2653
31290W        W44704  15.595   9.449  11.973  0.1558 -0.0276 -0.0147
31291W        W44705  17.180   2.314   1.324  0.0267 -0.1274  0.1370
31292W        W44706   9.935  10.193   3.075  0.0712  0.1113  0.0982
31293W        W44707  16.056   0.220   2.063 -0.0452  0.3198 -0.1110
31294W        W44708  12.947   5.186  13.291 -0.0672  0.1672  0.0121
31295W        W44709   2.020   9.228   5.455 -0.0057 -0.0219  0.0795
31296W        W44710  11.460   8.232   5.248  0.1670  0.1089  0.1714
31297W        W44711   5.115   6.189  15.395  0.1778  0.0915 -0.0181
31298W        W44712   1.285  13.292   2.562  0.1470  0.2141  0.0962
31299W        W44713   5.651   2.332   4.849 -0.0101  0.1250  0.1747
31300W        W44714  17.704  15.629   1.903  0.2212  0.2170  0.1078
31301W        W44715  16.609  17.867  16.404  0.0991  0.1422 -0.0226
31302W        W44716   6.326   2.431  12.978  0.1565 -0.1681 -0.1291
31303W        W44717  14.994   6.693   4.364  0.1280 -0.2533  0.1432
31304W        W44718  11.321  15.278   0.234 -0.1075  0.3170 -0.0955
31305W        W44719   1.709   1.463  11.495  0.1580 -0.0611 -0.0348
31306W        W44720   2.954  14.057   5.474 -0.1109 -0.3879 -0.0585
31307W        W44721   6.775  14.089  16.523  0.2222  0.2010  0.1167
31308W        W44722   2.879   0.079  12.598 -0.1272 -0.1233  0.2774
31309W        W44723   1.364  14.328  14.599 -0.1336  0.1417  0.0233
31310W        W44724   9.841   4.942  15.494  0.0493  0.0476  0.1650
31311W        W44725   7.399   6.878   0.350 -0.2505 -0.2082  0.0747
31312W        W44726   6.800  13.308   0.959  0.0647  0.1490  0.0155
31313W        W44727   6.615  11.517   3.561 -0.0145 -0.1876  0.0059
31314W        W44728   1.139  14.607  15.977 -0.1178 -0.0612 -0.2485
31315W        W44729  11.511   6.905   2.493 -0.2076 -0.2435  0.0943
31316W        W44730   7.589   0.919   0.780  0.0399 -0.3449  0.0606
31317W        W44731   8.378  11.163  16.516 -0.1165  0.1113 -0.1349
31318W        W44732   0.050  13.997  12.494  0.2128 -0.2550 -0.1497
31319W        W44733  14.753  16.217  14.972 -0.2240 -0.3811 -0.0926
31320W        W44734  11.884  15.779  15.164 -0.2545 -0.3318 -0.5104
31321W        W44735   5.113   6.320  13.787 -0.0324  0.1376 -0.3743
31322W        W44736  12.748  13.463   2.964  0.0047  0.0133  0.0098
31323W        W44737  14.287   7.614  13.159 -0.1048 -0.1749 -0.0755
31324W        W44738   7.740   1.045  10.895  0.0396 -0.0898 -0.1239
31325W        W44739  16.487  14.849  15.132 -0.1350  0.1833  0.2433
31326W        W44740   2.171  11.573   5.378 -0.2484  0.2165 -0.1140
31327W        W44741  16.665   7.334   1.280  0.0910 -0.0917  0.1810
31328W        W44742   5.898  16.157   0.148 -0.5563  0.0848 -0.2415
31329W        W44743   7.392   1.271  11.887  0.4639 -0.3633 -0.2870
31330W        W44744   2.675  10.056   3.764 -0.2649  0.2853 -0.0618
31331W        W44745  11.087   2.508   4.965  0.3309  0.2870 -0.0329
31332W        W44746  17.424  13.890   6.113  0.0974 -0.0344  0.2471
31333W        W44747  10.175   0.676  15.230 -0.3806  0.1593 -0.0446
31334W        W44748  10.528  14.090  11.112  0.0829  0.2131 -0.0801
31335W        W44749  16.027  11.765   1.195  0.0835 -0.0749  0.1438
31336W        W44750   2.976   5.858   5.634 -0.1037 -0.0435  0.2766
31337W        W44751  11.715  14.304   5.859 -0.1302 -0.0800 -0.1531
31338W        W44752   8.746   1.581  12.995  0.0680 -0.0135  0.2254
31339W        W44753  11.916  13.707  12.896 -0.1432 -0.2949 -0.2227
31340W        W44754  17.210   3.510   2.085  0.2970 -0.1758 -0.4003
31341W        W44755   9.563   1.581  14.000  0.0443  0.1067 -0.0556
31342W        W44756   7.908  13.200  15.457 -0.1544 -0.2778  0.2200
31343W        W44757  18.204  11.226   2.972  0.2199 -0.2755 -0.2664
31344W        W44758   2.066  13.436   1.076 -0.3343  0.3228  0.0710
31345W        W44759   0.076   5.457  11.741 -0.1219  0.1316 -0.0774
31346W        W44760   1.113  14.772  12.420  0.0415  0.2569  0.0910
31347W        W44761   1.162  16.894   1.955 -0.2625  0.0296  0.1114
31348W        W44762   6.158  13.393   2.257  0.0883  0.0226  0.1571
31349W        W44763   7.194   5.874  13.092  0.1364 -0.1126 -0.1502
31350W        W44764  10.133  16.688  14.171  0.0515  0.0715  0.0819
31351W        W44765   4.615   0.693   6.562 -0.0499 -0.2336 -0.0326
31352W        W44766  12.724   6.568  13.303  0.2924 -0.1555 -0.1081
31353W        W44767   8.233  17.794  13.921  0.2135 -0.1771 -0.2604
31354W        W44768   9.987   6.207   5.299 -0.0859  0.1287  0.2049
31355W        W44769  18.254   5.977   1.162 -0.2340  0.1191  0.0479
31356W        W44770  14.283   5.398   1.955  0.0886 -0.0241  0.2817
31357W        W44771   2.511   5.223   5.044 -0.0475  0.1178  0.1002
31358W        W44772  15.940   7.955  12.620  0.1521 -0.0125  0.2144
31359W        W44773   6.914   6.301  13.115 -0.1717 -0.1403  0.0517
31360W        W44774   7.355   7.281   5.826  0.1794 -0.3308 -0.1481
31361W        W44775   2.329   4.342   5.379  0.2787 -0.4340  0.1899
31362W        W44776  13.894  10.509   5.885  0.0229  0.1412 -0.0753
31363W        W44777   1.908  18.034   0.586  0.1540  0.1460  0.1676
31364W        W44778   6.586  14.475   1.660 -0.0505 -0.4438 -0.2736
31365W        W44779  13.931   2.437   0.543 -0.1283 -0.0510  0.1084
31366W        W44780   5.957  17.393   0.355  0.0954 -0.1758 -0.1091
31367W        W44781  17.218  16.933  11.341 -0.1955 -0.0935 -0.0762
31368W        W44782  11.614   7.263   5.118  0.2226  0.0503  0.2846
31369W        W44783   7.186   4.967   4.380 -0.5914  0.0630  0.2793
31370W        W44784  12.047  16.355   1.576  0.0947  0.3183  0.1757
31371W        W44785  14.867   8.110   1.931  0.0738 -0.0855 -0.1750
31372W        W44786   5.829   9.284   4.634 -0.0355 -0.1415 -0.2068
31373W        W44787  16.013   6.636  16.418 -0.2163  0.0182  0.0341
31374W        W44788   7.686   5.175   4.143  0.3264 -0.4360 -0.1657
31375W        W44789   1.365   0.168   2.866 -0.1498  0.0728 -0.0540
31376W        W44790   0.606  17.819  16.160 -0.0779  0.3781  0.0736
31377W        W44791  10.039  12.640   2.704  0.0660 -0.0717 -0.1837
31378W        W44792  10.878   5.632  11.511  0.0728 -0.1095  0.1058
31379W        W44793  10.531   4.475  12.259  0.0558  0.4821  0.2388
31380W        W44794   0.197   0.906   4.736 -0.0886 -0.0469 -0.1055
31381W        W44795   1.098   1.040   2.804  0.0200  0.0709 -0.0952
31382W        W44796  12.051   2.710   0.265 -0.1033  0.2363  0.1920
31383W        W44797  17.770   6.107  12.776  0.0528 -0.1869 -0.2347
31384W        W44798   7.711   6.674  16.452 -0.0235 -0.0805  0.1791
31385W        W44799  11.626  17.476  13.692  0.3361 -0.1650  0.1887
31386W        W44800   6.305   0.682  12.285  0.2389 -0.1041  0.0506
31387W        W44801  14.604   9.707   2.213  0.2708 -0.3282  0.1493
31388W        W44802  18.040   5.991   3.268 -0.3695 -0.2096 -0.1916
31389W        W44803   5.061  12.950  13.625  0.1507 -0.2591  0.1204
31390W        W44804  13.962   0.255  15.027  0.1133  0.1605 -0.4537
31391W        W44805  14.677  10.742  14.814  0.1275 -0.1893 -0.2852
31392W        W44806   8.207  16.543   2.847 -0.1587 -0.0783  0.1978
31393W        W44807  13.975  11.775   6.275 -0.0269 -0.4270 -0.0169
31394W        W44808  13.726  13.405  16.022 -0.1217  0.0724 -0.0801
31395W        W44809  10.946   8.753   0.153 -0.0039 -0.4203  0.3110
31396W        W44810   1.708   3.901   0.435 -0.0907  0.0251 -0.4290
31397W        W44811  11.781  12.205  12.964 -0.0960 -0.4703  0.0722
31398W        W44812   5.438   1.211   2.829  0.2237  0.1623  0.3163
31399W        W44813   0.683  10.510  13.852  0.1504  0.0181  0.2059
31400W        W44814   4.762   4.372   0.750 -0.0654  0.2701 -0.2055
31401W        W44815  15.081  12.147  12.310 -0.0972 -0.1008 -0.0599
31402W        W44816  17.916  12.657  10.978 -0.1189 -0.1918 -0.1369
31403W        W44817  14.403   0.630  11.770 -0.0970 -0.0573  0.0210
31404W        W44818  13.434   8.145   3.316 -0.3249 -0.2098 -0.1400
31405W        W44819  12.582  14.990  15.421 -0.0694  0.1638 -0.1957
31406W        W44820  10.921  17.100   3.718 -0.1310  0.0972 -0.1312
31407W        W44821  14.545   3.783  12.053  0.1031  0.0848  0.0800
31408W        W44822   6.728  11.589  15.595  0.1698 -0.0344  0.0087
31409W        W44823   1.298  18.216  13.800 -0.0501  0.2202 -0.1695
31410W        W44824  12.013  10.844   2.817 -0.1049 -0.2618 -0.1976
31411W        W44825   2.543   7.285   2.392 -0.2131  0.1449  0.0306
31412W        W44826  14.171  10.189   1.648 -0.2741 -0.0241  0.2590
31413W        W44827   7.975   5.201  10.820 -0.0873 -0.0208 -0.1993
31414W        W44828  11.190  16.082   2.149  0.0028  0.1132 -0.0094
31415W        W44829   6.354   5.521   4.252 -0.0351  0.1873 -0.0200
31416W        W44830   3.671   0.735  14.686  0.0153 -0.1752 -0.3528
31417W        W44831   3.163   5.342  11.096 -0.0766  0.1794 -0.0164
31418W        W44832  16.823   6.306  11.902  0.0174  0.0320 -0.2466
31419W        W44833  16.411   1.905   1.811  0.0411 -0.0485  0.0996
31420W        W44834   8.742   5.879   4.102 -0.3804 -0.0257  0.1953
31421W        W44835   9.197  14.147  11.941 -0.3198 -0.2249 -0.0748
31422W        W44836   3.617   4.737  16.198 -0.0956  0.2442  0.0243
31423W        W44837   4.007   9.730  16.366  0.0720 -0.0343  0.1477
31424W        W44838   0.598  16.260   4.677 -0.1472  0.0283 -0.2972
31425W        W44839  14.634   9.625   0.911  0.2446  0.3513 -0.0076
31426W        W44840   9.993   2.689  13.056 -0.2317  0.0711  0.2230
31427W        W44841   1.837  17.467   6.137  0.1354 -0.1845  0.0149
31428W        W44842  16.616  16.526  16.385  0.1689  0.0398 -0.0338
31429W        W44843  12.586   3.113   1.142 -0.1180 -0.0914 -0.0168
31430W        W44844  14.645  14.957   1.685 -0.1801  0.3446 -0.0954
31431W        W44845   3.968   4.605   1.774  0.5685  0.0932 -0.0170
31432W        W44846  13.066  12.140   5.125  0.4997 -0.1494 -0.0507
31433W        W44847   5.384  11.777   3.091 -0.0212  0.0419  0.1592
31434W        W44848  13.584   2.567   3.269 -0.0282 -0.2063  0.0771
31435W        W44849  11.964   1.013   5.177  0.4924  0.1032  0.0314
31436W        W44850  11.687  17.254   4.401 -0.3294 -0.1072 -0.0218
31437W        W44851   0.683  17.620  13.364  0.0120 -0.2034 -0.2653
31438W        W44852   6.130  13.828   0.607 -0.2407 -0.1744 -0.0258
31439W        W44853   4.609   4.760   0.445 -0.2563 -0.1672  0.0534
31440W        W44854  11.868   3.287   3.489 -0.1659 -0.0507 -0.1548
31441W        W44855   7.616  12.677  14.744  0.0227  0.0424 -0.1103
31442W        W44856  12.196  10.541  16.120 -0.1683  0.3043  0.1909
31443W        W44857  13.124   4.485  10.232 -0.1539 -0.0842  0.0695
31444W        W44858   3.705  10.385  15.120 -0.1350  0.2000  0.3867
31445W        W44859   8.892  14.874   4.016  0.0923 -0.0516 -0.4956
31446W        W44860   3.170   9.609   2.701  0.1887  0.1664  0.0459
31447W        W44861   3.823  11.751  13.781  0.0203 -0.0681  0.0958
31448W        W44862   0.341  17.340   1.646 -0.2723  0.1153 -0.2983
31449W        W44863   0.948  17.849  15.776  0.1309  0.1747 -0.1115
31450W        W44864  13.766  17.688   0.835  0.1036 -0.0712 -0.3505
31451W        W44865   8.352  11.509   1.299 -0.1026 -0.3455  0.1375
31452W        W44866   8.807   3.770   1.952 -0.0976  0.1675 -0.0026
31453W        W44867  11.818   5.977  11.185 -0.0616 -0.1420 -0.1680
31454W        W44868  11.696  12.072   3.266 -0.0784  0.1839  0.0346
31455W        W44869  13.122   4.021   4.833 -0.1939 -0.1706  0.1591
31456W        W44870   4.434   7.131   1.584  0.1131 -0.2607  0.0614
31457W        W44871   6.622  13.980  11.541  0.0396 -0.0397  0.2320
31458W        W44872   3.820   8.278   1.437 -0.1938 -0.0329  0.0261
31459W        W44873   6.997  13.905  16.001  0.0808 -0.1544  0.1023
31460W        W44874   9.096  14.358   4.894  0.2275 -0.2373  0.1517
31461W        W44875  13.322  16.039  12.407 -0.0126 -0.0626 -0.0054
31462W        W44876   4.378   6.830   4.453 -0.0934 -0.0239  0.0456
31463W        W44877  15.224   2.656   0.830  0.0718 -0.0131 -0.0438
31464W        W44878   4.297   5.076  15.449 -0.1436  0.3365 -0.0223
31465W        W44879   2.960   2.061  13.918 -0.2074 -0.0765 -0.1869
31466W        W44880   3.980   0.345   5.938 -0.1237  0.0355  0.0767
31467W        W44881   6.456  15.763  15.755  0.2245 -0.2139 -0.0303
31468W        W44882   9.364   3.268  11.029  0.1406  0.0103 -0.1266
31469W        W44883   6.353   6.746  15.210  0.0316  0.0270 -0.1040
31470W        W44884   6.670   1.287   1.865 -0.0941 -0.0162  0.1941
31471W        W44885   8.662  10.765  14.749 -0.2369 -0.2245 -0.1077
31472W        W44886  10.744  12.189   2.933 -0.0428  0.1032  0.1370
31473W        W44887   5.400   5.427   2.531  0.2211 -0.2135  0.0852
31474W        W44888   0.162   4.672  15.374 -0.0491  0.1452 -0.3270
31475W        W44889  10.607  11.392  10.228 -0.1000 -0.1940  0.2064
31476W        W44890   2.308  16.700   2.329  0.3542  0.0956  0.0591
31477W        W44891  16.718  10.578  13.851  0.1308  0.1763 -0.0047
31478W        W44892   0.327  15.125   0.595 -0.1643 -0.0487  0.0176
31479W        W44893   9.858  17.090   0.224 -0.0191 -0.0988 -0.1404
31480W        W44894   8.847   4.781  15.035 -0.2389 -0.0560  0.0399
31481W        W44895   8.777   9.999  16.292 -0.1037 -0.0674 -0.2508
31482W        W44896   6.103  13.953  10.297  0.0670  0.2146 -0.4506
31483W        W44897  11.105   8.639   2.632  0.0248  0.1624  0.1706
31484W        W44898  11.048   6.849  12.046 -0.2598 -0.0439 -0.0909
31485W        W44899  11.225   0.132   5.630 -0.0087 -0.2196  0.2669
31486W        W44900   4.906   8.435  12.647 -0.1435 -0.2292 -0.0613
31487W        W44901   8.906   7.927  15.650 -0.1050  0.1925 -0.1605
31488W        W44902   5.460   8.985  16.113  0.0023  0.2901  0.0249
31489W        W44903  15.275  15.867   2.279  0.1660  0.3661  0.1754
31490W        W44904   6.145   0.210   2.407 -0.3237  0.2945 -0.0453
31491W        W44905   2.896   0.878  12.396 -0.2282 -0.1776 -0.1029
31492W        W44906   2.379   1.589   5.735  0.0094  0.1703  0.1501
31493W        W44907  10.718  15.517  11.028  0.0830 -0.1047 -0.3528
31494W        W44908   3.814   0.067   4.840  0.1291 -0.1777 -0.1624
31495W        W44909  14.003  11.768   3.181 -0.3390  0.3332 -0.0105
31496W        W44910  11.483  10.178  11.134 -0.1791 -0.0563 -0.0363
31497W        W44911  15.255   6.370   1.024  0.2192  0.2493 -0.2134
31498W        W44912  16.283  10.806  12.095  0.1260  0.0221 -0.1230
31499W        W44913  15.898   0.909  15.401  0.3510 -0.1820 -0.0422
31500W        W44914  16.952  12.872   3.594  0.1032  0.0570  0.2440
31501W        W44915  11.782  12.622  14.204  0.2445 -0.0138 -0.0573
31502W        W44916  14.645   1.922  14.696 -0.0751 -0.0063 -0.1713
31503W        W44917   5.038  11.668   1.345 -0.2382  0.0499  0.0313
31504W        W44918  13.710   8.574  15.158 -0.0626 -0.3069  0.0855
31505W        W44919   5.024  17.502  12.414  0.1481 -0.3497  0.0152
31506W        W44920  13.044   9.733  12.300 -0.2074  0.1270  0.1278
31507W        W44921  10.737  16.220   1.060 -0.1426  0.2621  0.0738
31508W        W44922   8.541  14.370   0.676 -0.0860  0.1818  0.0964
31509W        W44923   4.662  13.680   4.175 -0.0730 -0.2219  0.0569
31510W        W44924   6.062   6.238   1.577 -0.2189  0.2041 -0.4542
31511W        W44925   3.758   7.158   4.969 -0.5537  0.2015  0.0154
31512W        W44926  10.145  13.739  13.579  0.0734 -0.2869 -0.0714
31513W        W44927  11.171   6.221  15.553  0.0263  0.0204 -0.0799
31514W        W44928  18.025   9.357  14.424 -0.0857  0.0662 -0.0510
31515W        W44929   9.298   8.663   5.959 -0.2113 -0.1637 -0.1576
31516W        W44930  10.069   7.654   0.103  0.0242 -0.0815  0.1347
31517W        W44931   3.067   0.444   0.775  0.3993  0.0838 -0.0021
31518W        W44932   2.340   8.370  11.020 -0.0817  0.2532 -0.2208
31519W        W44933  14.126   5.726  11.610 -0.1022 -0.2347 -0.0323
31520W        W44934   4.189   8.974   3.132 -0.1431  0.2434 -0.0676
31521W        W44935  14.313  13.292   1.941  0.1244 -0.3288 -0.3061
31522W        W44936  16.668   8.018  16.359 -0.2237  0.0904 -0.0459
31523W        W44937   0.738   2.914  12.799  0.2785  0.0301  0.2998
31524W        W44938   0.440   5.245  16.029  0.3530 -0.2006  0.0210
31525W        W44939  15.739   3.332  11.578  0.1323  0.0627  0.1750
31526W        W44940  17.953   5.427   3.501  0.3041  0.0620 -0.1980
31527W        W44941  14.929   6.893  14.473  0.0453  0.1919  0.1025
31528W        W44942   8.688   8.889   3.949 -0.0868 -0.0699 -0.3889
31529W        W44943   2.759   8.820  13.643  0.3179  0.1244 -0.2317
31530W        W44944   0.335   7.703  11.695 -0.0067  0.0591  0.0747
31531W        W44945  16.850  11.340   0.610 -0.0336  0.0538  0.0447
31532W        W44946   2.990  17.282   6.119  0.3460  0.1730  0.0563
31533W        W44947  14.483   9.923   0.309 -0.2100 -0.0256  0.3997
31534W        W44948   9.141  17.581  15.307  0.0610  0.0436 -0.1536
31535W        W44949  13.814   9.728   3.654 -0.1438  0.2422  0.0934
31536W        W44950  14.686   0.203  11.526  0.0798  0.4277  0.0786
31537W        W44951   7.487   5.762   4.001 -0.1192  0.1785  0.0958
31538W        W44952   8.256  14.241   3.387 -0.0905 -0.0334  0.1010
31539W        W44953  10.965  16.103   5.581  0.1649 -0.0478  0.0471
31540W        W44954  14.209  10.847  16.550 -0.1041 -0.0460 -0.0785
31541W        W44955  14.933  16.029  15.485  0.0112 -0.1520 -0.3173
31542W        W44956   1.569  12.519   1.329  0.0109  0.0506 -0.2086
31543W        W44957  14.993   9.021  15.724  0.1623 -0.1959 -0.1854
31544W        W44958  14.327   6.960  11.639  0.1346 -0.1558 -0.1180
31545W        W44959  11.949   1.644  16.469 -0.1158 -0.0204 -0.1929
31546W        W44960   1.065   6.864   4.669  0.3198  0.1712 -0.3786
31547W        W44961   8.788  11.846  11.990 -0.0904 -0.1196  0.0927
31548W        W44962   1.193   5.602   1.853 -0.0604  0.0641 -0.2004
31549W        W44963   3.485  14.796  13.167 -0.1743  0.1774  0.1469
31550W        W44964  10.903   1.314  13.592 -0.0571  0.2295 -0.1962
31551W        W44965   4.576  12.969  16.240 -0.3402  0.0192 -0.2151
31552W        W44966  10.473  14.442  15.331  0.0429 -0.0187 -0.0375
31553W        W44967  16.989  15.656  16.270  0.3096  0.2407 -0.2157
31554W        W44968  14.938  17.221  14.164  0.0635 -0.1704  0.1640
31555W        W44969   3.053   5.957   4.224  0.1285 -0.0417  0.0914
31556W        W44970   4.348  12.059  14.863  0.0691  0.1456 -0.0953
31557W        W44971   8.130  13.869  14.696 -0.0611  0.0933  0.0858
31558W        W44972  10.720   6.088  15.377  0.1884  0.0930 -0.0982
31559W        W44973   2.252   7.566  16.319  0.1210 -0.1421  0.0825
31560W        W44974  10.848   8.365   2.957 -0.0036 -0.2070 -0.1002
31561W        W44975   6.128   4.318   0.656  0.1259  0.3297 -0.2676
31562W        W44976   2.374  10.867   0.478 -0.0851 -0.0362  0.0871
31563W        W44977  11.742   8.872  14.239  0.0721  0.1750 -0.0722
31564W        W44978   1.548   6.222  15.533  0.3857 -0.1642  0.1982
31565W        W44979   1.246  13.399   3.853  0.0108  0.0474 -0.2098
31566W        W44980   3.204   5.043  16.306  0.0125  0.2632  0.0476
31567W        W44981  12.218  12.716  10.914 -0.0173  0.3711 -0.0478
31568W        W44982  16.868   2.095   3.640 -0.2603  0.1602  0.2161
31569W        W44983   7.387  18.016   1.647  0.1298  0.0549 -0.0517
31570W        W44984  11.960  11.130   1.400  0.1342 -0.2237  0.3229
31571W        W44985  11.421  10.075   0.859 -0.2068  0.1367 -0.0492
31572W        W44986  16.908  11.344   3.538  0.1380 -0.1576 -0.1187
31573W        W44987  18.174   6.060   5.006 -0.1500 -0.2663  0.1216
31574W        W44988   0.061  17.871  13.585 -0.2205 -0.1475 -0.0592
31575W        W44989   6.248   2.953  13.793 -0.0127  0.1935 -0.1891
31576W        W44990   0.732   0.737   2.091  0.1407 -0.3754  0.0315
31577W        W44991  12.851   8.644  10.304  0.1540  0.0019 -0.1405
31578W        W44992  17.084   4.032  12.393 -0.2469  0.0874  0.1304
31579W        W44993  11.230  14.483  13.132 -0.0840  0.1089 -0.0327
31580W        W44994   8.478   7.812   0.933  0.1127 -0.0681 -0.0051
31581W        W44995   1.518   9.118  13.501  0.1693 -0.1843 -0.3268
31582W        W44996   8.887  10.310   3.746  0.0698  0.1168  0.0262
31583W        W44997  17.765   6.679  16.178 -0.1679  0.1109  0.1288
31584W        W44998  16.493  10.073  12.669  0.1079  0.0836  0.2381
31585W        W44999  11.780  11.069  11.214 -0.0092  0.1627  0.2107
31586W        W45000  14.066  10.169  12.829 -0.0436 -0.0043 -0.2722
31587W        W45001   2.552  18.037  14.903  0.1690 -0.0625 -0.2152
31588W        W45002   0.079   0.255  15.684 -0.1984  0.2979 -0.1666
31589W        W45003  16.785  14.576  11.590 -0.0441 -0.0840  0.0266
31590W        W45004   5.414  15.519   5.263 -0.2665  0.2232  0.0641
31591W        W45005   0.905  12.967  15.383 -0.2959  0.2935 -0.2365
31592W        W45006   9.212  14.228  15.509 -0.2279  0.1451 -0.1712
31593W        W45007   7.672  16.901  13.283 -0.1194 -0.1696  0.0708
31594W        W45008   8.604  13.252   3.344 -0.0666  0.0195 -0.0320
31595W        W45009  13.489   7.526  16.538  0.0453 -0.3085  0.1325
31596W        W45010  12.626  16.082  11.151  0.1182 -0.3108 -0.1454
31597W        W45011   9.922  16.120  11.541  0.0483 -0.3459  0.0723
31598W        W45012  18.233   0.453  16.268 -0.1234  0.0821  0.1488
31599W        W45013   8.367  14.482   1.138  0.3419  0.0012 -0.0843
31600W        W45014  17.852   1.574  13.524 -0.1635  0.1076  0.1917
31601W        W45015   6.015   3.126  12.356  0.1974 -0.2932 -0.3605
31602W        W45016  11.717  16.255  12.370 -0.1947  0.0389  0.0984
31603W        W45017   9.811   5.170   1.229 -0.0687 -0.0996  0.2371
31604W        W45018   2.381   5.682   3.254 -0.1425 -0.0180  0.0593
31605W        W45019   4.299   4.417   1.000 -0.0689  0.2262 -0.0250
31606W        W45020   1.962  15.313   0.989 -0.0595 -0.0252 -0.0984
31607W        W45021   7.838  15.730   2.558 -0.0762  0.2127 -0.0687
31608W        W45022   7.757  11.116  15.289 -0.0507 -0.2516 -0.0226
31609W        W45023   2.448  14.448   4.772 -0.0868  0.1900 -0.3285
31610W        W45024  11.695  11.054  14.843  0.1940 -0.0212  0.2287
31611W        W45025   2.130  14.344  16.288  0.0973  0.2646 -0.0374
31612W        W45026  10.312  16.744   3.571 -0.0676 -0.0039  0.0183
31613W        W45027   7.491  17.203   5.231 -0.0184  0.2242 -0.0752
31614W        W45028   4.964   5.683  13.235 -0.2547 -0.2667  0.1364
31615W        W45029  15.808   3.281  16.019 -0.5103 -0.3367 -0.1272
31616W        W45030   6.964   8.946   1.203  0.0104 -0.2720  0.4449
31617W        W45031   9.951  11.400  11.320  0.0159  0.0403  0.3598
31618W        W45032   8.388  10.909   4.262 -0.1142  0.0278 -0.0147
31619W        W45033   6.685   4.787  13.740 -0.1462  0.2264  0.1159
31620W        W45034  11.017   0.701  15.496  0.0003  0.0799 -0.1641
31621W        W45035   4.303   8.441   3.584  0.2692  0.2650 -0.0714
31622W        W45036  16.864   8.176  11.031  0.0234  0.0502 -0.1638
31623W        W45037  12.210   2.098   5.572  0.0732  0.2240  0.0343
31624W        W45038  10.308   1.473   0.231  0.1711 -0.0688  0.1579
31625W        W45039   1.808   9.419   5.862 -0.1886 -0.3466 -0.0572
31626W        W45040   8.793  10.751  11.618 -0.0927  0.1177 -0.1107
31627W        W45041   9.319   3.529  13.217 -0.2876 -0.2155  0.1231
31628W        W45042   6.044  10.948   3.108 -0.0322 -0.1425  0.2431
31629W        W45043   7.154   0.039   5.738 -0.0566 -0.3401 -0.0208
31630W        W45044  16.331   2.505   1.857  0.2648  0.1091 -0.0442
31631W        W45045   5.546  11.831  14.449 -0.0397  0.0793 -0.0103
31632W        W45046   1.034  14.852   1.226  0.0375  0.0163  0.1340
31633W        W45047  12.260   0.770   3.228  0.0238  0.0562  0.0665
31634W        W45048  17.680   2.637  10.658  0.0253  0.3503 -0.1468
31635W        W45049  12.149  16.725   0.406  0.2400 -0.1242 -0.1739
31636W        W45050   9.761   6.072   0.549 -0.1627  0.1235 -0.1865
31637W        W45051   0.702   8.069   4.437 -0.0929 -0.1295 -0.1441
31638W        W45052   1.659   4.006  13.161  0.2352  0.0836  0.0357
31639W        W45053  12.473   6.748   3.075 -0.1591 -0.2896 -0.1017
31640W        W45054   9.915  12.773   6.568  0.0718  0.0979  0.0724
31641W        W45055  16.742   3.527  13.099  0.1643 -0.1741 -0.0532
31642W        W45056   5.065  12.491   3.661  0.3655 -0.1860 -0.2148
31643W        W45057  15.669   7.393   0.711  0.1051  0.2354 -0.2973
31644W        W45058   3.226   3.741   6.011 -0.2559  0.1941 -0.2123
31645W        W45059  10.525  13.053  14.825  0.0237  0.1393 -0.1227
31646W        W45060   8.708   2.466   0.135  0.0913  0.3448  0.0256
31647W        W45061  17.267   4.888   3.818 -0.0493 -0.1956  0.2208
31648W        W45062  16.854   0.754   4.870 -0.1292  0.1950  0.1559
31649W        W45063  10.954   0.810  11.290  0.0394  0.1269 -0.1529
31650W        W45064   0.576   1.617   0.539  0.2025 -0.2796  0.1164
31651W        W45065   1.424  14.276   2.223  0.1716 -0.2530  0.0648
31652W        W45066  15.292  11.656  11.960 -0.1309 -0.2413 -0.1166
31653W        W45067  10.461  12.396  13.345 -0.1541 -0.0893 -0.0592
31654W        W45068  15.579  17.250  10.931  0.5002 -0.3693 -0.1988
31655W        W45069  11.678  14.019   0.690  0.1093  0.2036 -0.1585
31656W        W45070  17.016   2.424   5.222  0.2026 -0.0298 -0.2432
31657W        W45071  17.710   6.126  13.455 -0.0296 -0.1513  0.1154
31658W        W45072   4.358   0.955  12.623  0.3791 -0.0619 -0.3728
31659W        W45073  12.520  13.467   0.816 -0.2454  0.1395 -0.0001
31660W        W45074  10.269   5.169   1.511 -0.0169  0.0409 -0.1835
31661W        W45075  16.603   4.394   5.027  0.0659  0.0211 -0.0409
31662W        W45076   1.709   9.016  14.623 -0.0339  0.1551  0.2092
31663W        W45077   3.177  15.795   3.745  0.1503  0.0720 -0.0479
31664W        W45078   0.629  13.875  15.749 -0.4071 -0.2807  0.0468
31665W        W45079  10.475  12.599  12.748  0.1188  0.1408 -0.2750
31666W        W45080   3.863   6.070  12.421 -0.0056 -0.0814 -0.3204
31667W        W45081   9.512  10.966  10.525  0.4807 -0.0437  0.0111
31668W        W45082   7.055   8.904  13.486 -0.1648  0.1499  0.2231
31669W        W45083  15.975   3.151   1.510 -0.1649  0.0793  0.1242
31670W        W45084  11.414   7.051  12.337 -0.0646 -0.0330 -0.1757
31671W        W45085  11.580  12.939   3.523  0.1185 -0.0930  0.2251
31672W        W45086  17.407  10.481  10.732  0.1238  0.1703 -0.1853
31673W        W45087   5.996  10.801  11.923 -0.1631  0.2880  0.0579
31674W        W45088  12.660  17.800  11.951 -0.2511  0.0395  0.1183
31675W        W45089   9.296  13.905   3.479 -0.2101  0.0133  0.0014
31676W        W45090   7.498  13.477  15.422 -0.3549  0.1386 -0.3420
31677W        W45091  15.302   8.914   3.022 -0.0388  0.1290  0.1124
31678W        W45092   0.752  10.567  11.397  0.1064 -0.0792 -0.2992
31679W        W45093  10.690   1.024  13.917  0.2570  0.0401  0.0586
31680W        W45094   7.462   0.277   3.337 -0.0066  0.3232  0.3251
31681W        W45095  15.625  14.443  11.910 -0.1896  0.0456 -0.3539
31682W        W45096   3.155   9.434  11.394 -0.0958  0.1247 -0.1320
31683W        W45097  16.477   2.991  11.999 -0.2387 -0.0592 -0.2428
31684W        W45098  10.108  16.208   2.307  0.0673  0.4853 -0.2387
31685W        W45099   3.188   2.893  12.244  0.0763 -0.2691 -0.1528
31686W        W45100  14.273   3.129   3.882 -0.0103 -0.2138 -0.2476
31687W        W45101   5.307   4.226  12.303  0.2700 -0.3035  0.1523
31688W        W45102   8.128   3.500   1.764 -0.1519  0.4487 -0.0909
31689W        W45103   1.838  16.984   5.175  0.1264 -0.3504 -0.0013
31690W        W45104   0.466  14.907  13.967  0.1575 -0.0350 -0.1684
31691W        W45105   7.875  12.394   5.191  0.1850  0.3021  0.0093
31692W        W45106   6.633   4.317   1.768 -0.1752 -0.5496 -0.1510
31693W        W45107   4.900  15.502   1.159 -0.2160  0.3494 -0.0577
31694W        W45108   8.234   2.949  11.553 -0.1739  0.0141  0.0295
31695W        W45109  15.608   3.905   4.629  0.0815 -0.1286 -0.1394
31696W        W45110   6.622   1.628   5.317  0.2189 -0.1083 -0.3157
31697W        W45111   8.547  10.807  13.870 -0.3355 -0.0372  0.2135
31698W        W45112  13.609   0.411  16.312 -0.0703 -0.0582 -0.0261
31699W        W45113   1.407  15.420   6.203  0.1868 -0.1580 -0.1000
31700W        W45114   0.044  15.751  11.691  0.0926 -0.2546  0.2298
31701W        W45115   9.533  11.927   1.723  0.2129  0.2874  0.1044
31702W        W45116  11.471   1.336   3.211 -0.0548  0.3298 -0.2055
31703W        W45117   3.157   4.597  16.125  0.0342  0.0127  0.0891
31704W        W45118  16.372  14.693   0.515 -0.1501 -0.0833  0.1274
31705W        W45119   8.590  17.976   2.300 -0.0004 -0.0315  0.1884
31706W        W45120   4.754  13.764  12.605  0.0167  0.0298  0.0557
31707W        W45121   8.352  14.320  12.118  0.0237 -0.0567 -0.0316
31708W        W45122   8.066   0.050   4.030  0.1200 -0.2704  0.0814
31709W        W45123  17.687   8.386   0.860  0.0480 -0.0395  0.0032
31710W        W45124  18.224  14.729   0.098  0.2065 -0.2112  0.0874
31711W        W45125  16.442   6.202   1.666 -0.3704  0.2441 -0.3385
31712W        W45126   2.674   3.225  15.761 -0.0782 -0.2484  0.1148
31713W        W45127  17.735  12.407   3.392  0.3346  0.0254 -0.2303
31714W        W45128   0.514   9.443  16.368  0.0111  0.1590 -0.0250
31715W        W45129  12.760   8.949  11.099 -0.1891  0.0851 -0.2923
31716W        W45130  18.052  16.753  15.486 -0.3713 -0.0422  0.1080
31717W        W45131  12.153  16.072  13.985 -0.0991 -0.1364 -0.3366
31718W        W45132  15.140   7.524   2.049 -0.3025 -0.4910  0.0676
31719W        W45133   0.600   0.080  15.639  0.1841  0.1336  0.2351
31720W        W45134   8.979  11.917   0.173  0.1492 -0.1821 -0.1527
31721W        W45135  14.176   7.331  13.591  0.1206  0.0530 -0.0500
31722W        W45136   8.347   8.822  10.285  0.3100 -0.5980 -0.0847
31723W        W45137   0.126   6.116  15.006  0.1553  0.1078  0.1046
31724W        W45138   9.687  16.420  14.346  0.0752 -0.0225  0.2532
31725W        W45139   7.833   8.615  13.903 -0.1261 -0.1897  0.0843
31726W        W45140   2.097  17.961  16.245  0.2495  0.4172  0.1920
31727W        W45141  17.718   6.314   5.184 -0.0307  0.0243 -0.2474
31728W        W45142   5.760   3.537   1.171 -0.1077 -0.0655 -0.0463
31729W        W45143   7.502  11.801  11.179 -0.1075 -0.3630 -0.0555
31730W        W45144   4.195   2.000   4.945 -0.0712  0.1367 -0.1693
31731W        W45145   4.785   7.073   3.214 -0.0059 -0.2991  0.1709
31732W        W45146   7.056  11.451   0.413 -0.1718  0.0014 -0.2251
31733W        W45147  18.093  16.101  13.859  0.0624 -0.0969  0.0242
31734W        W45148   0.786  16.618  13.155 -0.2000 -0.0390 -0.0004
31735W        W45149  16.595   6.379  10.635 -0.0726  0.0938  0.1614
31736W        W45150  17.864  11.305   3.419  0.0031  0.0404 -0.1517
31737W        W45151  12.168  14.679   1.886  0.0247  0.0967  0.1526
31738W        W45152   2.435   3.938  16.362  0.1833 -0.0961  0.1167
31739W        W45153   3.946   6.008   2.695 -0.0122  0.1789 -0.1267
31740W        W45154  15.579  13.001   3.045  0.0762  0.1557  0.2634
31741W        W45155   5.902  10.891   5.069  0.3284  0.1022 -0.1020
31742W        W45156  14.168   8.662  15.402  0.0314 -0.1495  0.1233
31743W        W45157   9.414   5.137   1.553  0.1530  0.1087  0.3222
31744W        W45158   1.657   1.771   2.692  0.1483 -0.1470 -0.3095
31745W        W45159   2.507   7.007   3.210  0.0708 -0.0409 -0.1089
31746W        W45160   3.101   7.469   4.450 -0.1849 -0.2595  0.1674
31747W        W45161  11.615  11.308  13.479  0.0997 -0.3195  0.0421
31748W        W45162   6.354   0.026  10.240 -0.0343  0.0411 -0.3526
31749W        W45163   7.940  10.660   4.504 -0.0953  0.2273 -0.2283
31750W        W45164  14.986  10.099  10.784  0.0103  0.0102  0.0476
31751W        W45165   2.787  14.089  11.203 -0.0548  0.2996 -0.1359
31752W        W45166   5.454   8.853  14.340 -0.0531  0.0346  0.1517
31753W        W45167   0.958  17.208  12.626 -0.2714 -0.4317 -0.2938
31754W        W45168   9.672  13.316  15.026  0.1597 -0.0910 -0.1684
31755W        W45169   6.025  12.518  12.288  0.2135 -0.2057 -0.0601
31756W        W45170   2.481  16.422   4.172 -0.1114 -0.1010 -0.1186
31757W        W45171   6.668   0.906   3.231 -0.0194 -0.1785 -0.0939
31758W        W45172   5.401   0.438   2.999 -0.0405  0.0166 -0.4294
31759W        W45173   3.253   7.825  11.820  0.1731 -0.2306  0.1216
31760W        W45174   1.066   7.173   3.302  0.0678  0.0747 -0.5065
31761W        W45175   4.396  12.481   5.905 -0.0357 -0.0369  0.1828
31762W        W45176   1.609   4.670  15.953  0.0971  0.0676  0.0669
31763W        W45177   1.550  11.040   6.009 -0.1724 -0.2144 -0.0544
31764W        W45178  12.906   9.122  10.188  0.0107  0.0536  0.0359
31765W        W45179  10.795  10.244   5.704 -0.0451  0.2182  0.0088
31766W        W45180   0.720  16.670   6.097  0.1575  0.1634  0.0618
31767W        W45181   3.389   4.867  15.325 -0.3861  0.1086  0.2372
31768W        W45182  16.427   4.236  10.730 -0.0959 -0.2616 -0.0098
31769W        W45183   0.210   9.879  14.601  0.0034  0.0471 -0.0833
31770W        W45184   5.528   9.293   2.815 -0.2771  0.1737 -0.2167
31771W        W45185  10.421   6.864  11.662 -0.0258  0.0586  0.0300
31772W        W45186   3.665  16.821  11.057  0.1758  0.1356  0.0680
31773W        W45187   2.500   2.671  10.852 -0.2066 -0.0889 -0.0288
31774W        W45188  17.046  17.672   0.123  0.3185  0.0443 -0.0926
31775W        W45189  11.561  13.562   0.490 -0.0826 -0.0988  0.1337
31776W        W45190   7.159   4.689  15.835 -0.0028 -0.1880  0.2349
31777W        W45191  16.670  16.223   5.691  0.0510 -0.1992  0.2026
31778W        W45192   1.337  15.770   4.379 -0.1990  0.1305 -0.1473
31779W        W45193  13.365   0.019   4.491 -0.1710 -0.0075 -0.0343
31780W        W45194   6.092   9.550  14.949 -0.0889  0.1002 -0.0538
31781W        W45195  17.184   1.326  10.359 -0.1894  0.1895  0.2209
31782W        W45196  15.962   0.487  11.296 -0.2459  0.0670  0.0815
31783W        W45197  12.595  17.655   2.845 -0.0093 -0.0918  0.0603
31784W        W45198  15.748   5.418   2.723  0.1154  0.0345 -0.1675
31785W        W45199  17.666   1.534  15.721 -0.1569  0.0378  0.2588
31786W        W45200   1.901   4.477   1.446  0.1222 -0.0738 -0.0454
31787W        W45201   5.265  12.343   3.210  0.1484 -0.3830  0.1203
31788W        W45202   3.122   3.937   0.353  0.0227 -0.1915 -0.0895
31789W        W45203  11.507  17.228   6.365 -0.0717  0.0331  0.2995
31790W        W45204  15.870  16.608  11.866 -0.0573 -0.0947 -0.0955
31791W        W45205  13.721   0.648   1.812  0.0082 -0.3674  0.0309
31792W        W45206   3.530  13.762  11.004  0.3306  0.1858  0.0374
31793W        W45207  17.703  18.001   0.521  0.3156  0.3196  0.2725
31794W        W45208   2.290  10.350   1.784 -0.0292  0.0644  0.2087
31795W        W45209  14.185  12.505   0.862 -0.1818 -0.0052 -0.1891
31796W        W45210  16.777   7.203  15.324  0.1079 -0.0533  0.0154
31797W        W45211   3.865  13.233   4.069 -0.0977 -0.2747  0.1597
31798W        W45212  14.873   3.428  12.854  0.0137  0.2044  0.0330
31799W        W45213   5.925   1.271  13.880  0.3473  0.0006  0.0673
31800W        W45214   4.841  17.757  16.369  0.1246 -0.0677  0.2538
31801W        W45215   5.640   3.012  13.855  0.0265 -0.3016  0.0923
31802W        W45216   5.292   9.953   2.651  0.1686 -0.0561  0.2227
31803W        W45217   0.726   5.734   1.584 -0.2736  0.1191 -0.0280
31804W        W45218  17.172   0.594   3.660  0.1233 -0.0837  0.3509
31805W        W45219  12.242   3.504   1.778 -0.0400  0.2169 -0.0521
31806W        W45220   0.205  12.962  11.725 -0.1095 -0.1401  0.1354
31807W        W45221   6.552   2.045  12.639 -0.2154  0.4150  0.0702
31808W        W45222   0.565   0.045   5.370 -0.2996 -0.1333 -0.2212
31809W        W45223  10.539   9.481  14.180 -0.0467  0.4031 -0.4129
31810W        W45224   5.455   8.038   0.423  0.3224  0.2217 -0.0553
31811W        W45225   6.368   6.205  15.996  0.0858  0.0348 -0.3014
31812W        W45226   4.559   7.745  12.233 -0.0518  0.1257 -0.2246
31813W        W45227   1.108   0.618   0.006  0.1733 -0.1586 -0.0823
31814W        W45228   8.023   8.137   0.813 -0.1159 -0.0242 -0.1679
31815W        W45229  12.877   1.467   0.387 -0.1234 -0.0805 -0.0933
31816W        W45230   0.633  11.260   1.234 -0.0733 -0.0316  0.1126
31817W        W45231  14.592   5.249  14.154  0.2228  0.0823 -0.0452
31818W        W45232   6.194   0.197  12.567  0.0577 -0.2275  0.0238
31819W        W45233   2.526  15.676  15.743  0.0059 -0.4741 -0.1165
31820W        W45234   3.738  16.192   5.108 -0.1049  0.3577  0.1893
31821W        W45235   5.698   6.704   2.035 -0.1191  0.1061 -0.0553
31822W        W45236  13.397  14.054  15.062 -0.3312  0.0903  0.2647
31823W        W45237   8.206  10.218   4.465 -0.0422  0.0629  0.0574
31824W        W45238   8.351  17.229  13.880  0.0513 -0.2225  0.1400
31825W        W45239   4.815   4.690   4.831  0.0191 -0.1963  0.1338
31826W        W45240   8.305  15.332   1.248  0.1070  0.0443 -0.1759
31827W        W45241   6.833   9.121  12.387 -0.0897 -0.2213  0.0011
31828W        W45242   9.177  10.583   2.825 -0.1043 -0.3589 -0.3763
31829W        W45243  15.364   2.677  14.923 -0.2754 -0.2590 -0.0046
31830W        W45244   2.237  11.498  12.022  0.0347 -0.0124  0.1199
31831W        W45245   5.338   7.164  16.149 -0.1632 -0.1756 -0.0538
31832W        W45246  12.835  17.668  16.330  0.2664  0.0024 -0.1108
31833W        W45247   7.177  16.181  16.061 -0.3227  0.0444  0.0293
31834W        W45248  15.612  10.183   5.308  0.1104 -0.2930 -0.2964
31835W        W45249  13.422  17.199  15.847 -0.1119 -0.2863  0.0851
31836W        W45250  17.131  14.133   0.993  0.1153  0.0412 -0.1392
31837W        W45251  16.476   5.197   3.941  0.0799 -0.0207  0.0562
31838W        W45252   6.295   5.876   5.565  0.0129 -0.0426  0.0613
31839W        W45253   4.697  14.033   5.431 -0.0381 -0.1026 -0.2604
31840W        W45254  11.547   0.368   4.433 -0.2716 -0.0795  0.0094
31841W        W45255  10.976  11.686   0.568 -0.1549  0.1042  0.3090
31842W        W45256  11.397  15.952  12.569  0.1224 -0.0691  0.3635
31843W        W45257   7.601  16.547   5.489  0.0758 -0.0003 -0.2024
31844W        W45258   0.594  12.360   1.322 -0.0347  0.0627  0.1043
31845W        W45259  12.922   9.452  11.008 -0.2060  0.3005 -0.2951
31846W        W45260  12.744  11.426   5.864 -0.2260  0.2599  0.1579
31847W        W45261  14.658   8.024  14.142  0.2042  0.0139 -0.1237
31848W        W45262   1.164   9.718  14.177  0.2399 -0.0338 -0.0866
31849W        W45263  12.335   0.936  15.166 -0.1583  0.2180 -0.0362
31850W        W45264  10.688   6.909  15.092  0.2261  0.0603  0.1768
31851W        W45265  10.665  13.815   2.021  0.0229 -0.2424  0.3126
31852W        W45266  13.398  16.679   1.505 -0.0052 -0.0706  0.0560
31853W        W45267   0.185  14.232  15.114 -0.0152 -0.1100  0.1486
31854W        W45268   7.168  18.062  14.702  0.1276 -0.0554 -0.0537
31855W        W45269   1.341  11.258   1.990 -0.0251 -0.1191 -0.0913
31856W        W45270  16.129   9.715  16.430 -0.2031  0.2891  0.2496
31857W        W45271  14.175  17.589   0.576  0.0697 -0.0155  0.0637
31858W        W45272   1.951  12.982  15.424  0.2059 -0.2330  0.0597
31859W        W45273   8.261   6.187   9.969 -0.2741  0.1665 -0.2046
31860W        W45274   1.042   9.783  10.860  0.0579 -0.0574  0.0431
31861W        W45275   4.790  10.304   3.355  0.3125  0.2259  0.1453
31862W        W45276  15.822   0.299  13.037 -0.2404  0.0874 -0.1074
31863W        W45277  10.972   9.676  13.326 -0.0229  0.0814 -0.0402
31864W        W45278  16.012  14.062   4.755  0.2581 -0.1951 -0.0188
31865W        W45279   0.840   9.878   0.585 -0.0324 -0.0297  0.0737
31866W        W45280  18.219   2.272   1.422 -0.1345 -0.0985 -0.1397
31867W        W45281  18.016  13.046  11.509 -0.4343 -0.2255 -0.0545
31868W        W45282  15.626   4.719  14.438  0.2643 -0.2198 -0.1143
31869W        W45283  17.207   1.005  12.209 -0.0070  0.2995 -0.0712
31870W        W45284  17.404   0.584  13.163 -0.0383  0.0260 -0.3349
31871W        W45285  13.251   0.279  11.117  0.0863  0.3219 -0.0022
31872W        W45286   5.249   4.798  15.638  0.1036 -0.2159  0.4374
31873W        W45287  13.537  17.169   4.518 -0.0698  0.1344  0.1676
31874W        W45288   8.121   4.769  11.993  0.3724  0.0446  0.1864
31875W        W45289   9.514  13.824   0.006 -0.1711  0.1642 -0.0371
31876W        W45290  10.813  15.743  10.552 -0.0926  0.0031  0.0550
31877W        W45291   7.866  16.625   1.614 -0.1393  0.3231 -0.0919
31878W        W45292  15.374  12.192   5.130 -0.0505 -0.0742  0.1517
31879W        W45293   9.665   4.097   4.637 -0.0232 -0.1422 -0.0292
31880W        W45294   4.151  13.371   0.943 -0.0835 -0.1216  0.1223
31881W        W45295  16.499  12.751   5.666 -0.0233 -0.2184 -0.0918
31882W        W45296  10.204  12.010  15.496  0.0643  0.1582  0.1560
31883W        W45297   9.674   6.741   2.201  0.0916 -0.1497 -0.0480
31884W        W45298  13.650   3.889  11.068 -0.2753 -0.0211  0.0863
31885W        W45299  11.954   7.813  12.382  0.1960  0.1161  0.2262
31886W        W45300   2.575  12.853  16.134  0.1103  0.2083  0.1968
31887W        W45301   9.788   3.763  12.003 -0.1726 -0.1545 -0.0915
31888W        W45302  18.011   5.719  13.709  0.1780  0.3206 -0.3550
31889W        W45303  13.075  13.029  11.675 -0.0416 -0.4943 -0.2284
31890W        W45304   2.375   6.538   2.115 -0.0130 -0.1315  0.1670
31891W        W45305   0.225   4.464  14.945 -0.1514  0.1477  0.2210
31892W        W45306  13.717  16.343   4.608  0.3041 -0.0750 -0.4193
31893W        W45307  15.573  12.009  12.726  0.0714 -0.0731  0.2762
31894W        W45308  14.350  17.440   2.712  0.2252  0.1620 -0.2087
31895W        W45309   5.224  16.096   3.296 -0.2863  0.3440  0.5745
31896W        W45310  11.205   6.979   4.914 -0.3353  0.4000  0.1981
31897W        W45311   9.077   1.831  13.201 -0.3629 -0.0736  0.0423
31898W        W45312   8.203  16.845  13.465  0.3295 -0.0407  0.0183
31899W        W45313   8.997   7.227   4.554 -0.1001 -0.1672  0.0674
31900W        W45314   7.172  14.559  12.037 -0.2939 -0.0041 -0.4710
31901W        W45315  15.051   5.978   2.874 -0.1069  0.2867 -0.3398
31902W        W45316  16.204  13.919   2.823  0.0125 -0.0518  0.1908
31903W        W45317  12.756   0.440   5.339  0.0262  0.3643  0.0869
31904W        W45318   0.096   3.556  13.851  0.1137 -0.1115  0.0816
31905W        W45319   8.844   2.234  14.355  0.0659 -0.1814 -0.0918
31906W        W45320   5.033   5.543   3.457 -0.0594 -0.0799  0.1364
31907W        W45321  11.777   6.793  15.601 -0.0999  0.0103  0.2514
31908W        W45322  15.606   6.379  13.299 -0.2205  0.1641  0.4963
31909W        W45323   5.536   6.967   2.483 -0.1297  0.1036  0.0061
31910W        W45324   5.118  12.192   6.221  0.0228 -0.2240  0.2505
31911W        W45325  12.691   0.773   3.521  0.0048  0.0188 -0.2298
31912W        W45326   7.746   4.381  10.896  0.0631  0.1263 -0.1055
31913W        W45327   6.472  14.757   2.010 -0.0290 -0.0211  0.2233
31914W        W45328  13.644  11.539   3.639 -0.0052  0.0539 -0.1197
31915W        W45329   6.602  15.685   2.651  0.1650  0.4709  0.2370
31916W        W45330   5.441  17.757   2.262 -0.2609 -0.1682 -0.1587
31917W        W45331   8.650   4.175  14.837 -0.0252  0.2614  0.2022
31918W        W45332  17.663   3.445   1.306  0.2681 -0.2018 -0.1965
31919W        W45333  15.377   4.339   2.937  0.0191  0.2966 -0.2907
31920W        W45334   1.817   1.397  13.942  0.0547  0.1306  0.6887
31921W        W45335   8.925  11.020  16.473 -0.3498 -0.0047  0.1801
31922W        W45336   5.631  14.773  16.184 -0.2921 -0.1363  0.1223
31923W        W45337   2.764   3.325  12.145  0.2613 -0.2925  0.1634
31924W        W45338  10.248   6.746  10.770  0.2891 -0.2665  0.1192
31925W        W45339   5.829  13.854   2.080  0.1759  0.0852 -0.3479
31926W        W45340   1.610   5.643   2.157  0.2439 -0.2133 -0.3184
31927W        W45341   2.887   6.991  15.891 -0.3093  0.4671 -0.3402
31928W        W45342   0.730  16.128   0.952 -0.0956  0.1737  0.4113
31929W        W45343   5.850  10.026   3.483  0.0751 -0.0113  0.0404
31930W        W45344  15.439   2.104  16.190 -0.2004  0.0156 -0.1144
31931W        W45345  14.579  17.616   1.472 -0.0455 -0.2211 -0.3889
31932W        W45346  14.385   7.691  16.447  0.0046 -0.1924 -0.0573
31933W        W45347  12.651   9.256   4.119 -0.2733  0.2790 -0.0538
31934W        W45348  10.367   5.395  10.579  0.1880 -0.0531  0.0654
31935W        W45349   8.868  16.556  12.628 -0.2175  0.0622  0.2161
31936W        W45350   2.452   0.991   4.795 -0.1939  0.0190  0.0695
31937W        W45351  12.694  17.817  10.399  0.0191 -0.4001  0.4157
31938W        W45352   6.734   5.925  12.717 -0.1483  0.2040 -0.0585
31939W        W45353  15.502  10.917  16.511  0.0546 -0.0666  0.2594
31940W        W45354  11.042   7.751  10.863 -0.1140  0.0125 -0.4515
31941W        W45355  15.989  10.844  13.510  0.0008  0.2901  0.1824
31942W        W45356  16.529   1.863   6.106 -0.2251  0.0353 -0.1155
31943W        W45357   5.774   0.551   3.342  0.1193 -0.0722  0.3984
31944W        W45358   0.854   3.073   4.873  0.2465  0.2945 -0.1122
31945W        W45359   8.942   7.748   4.532 -0.3067 -0.1757  0.0289
31946W        W45360  11.998  16.311   3.669 -0.0999 -0.0107  0.2935
31947W        W45361   7.463  10.998  12.361 -0.1150  0.0992 -0.2896
31948W        W45362   7.215   0.471   4.706  0.1142  0.0017  0.0698
31949W        W45363   2.618  13.899   4.218 -0.1594  0.2211 -0.5241
31950W        W45364   3.570   3.324   0.167  0.1698  0.1174 -0.2689
31951W        W45365  12.576   3.538   5.584 -0.1863  0.2636 -0.4788
31952W        W45366  16.933  14.759  12.411 -0.0976  0.0135 -0.0541
31953W        W45367   6.980  13.512   1.970 -0.2074  0.0747  0.0755
31954W        W45368   4.985  14.582  12.096 -0.1220 -0.1808  0.0583
31955W        W45369  12.055  13.517   4.741 -0.0846 -0.0977 -0.1446
31956W        W45370  17.167   1.799  12.697 -0.2500  0.2037 -0.2072
31957W        W45371   5.383   2.977  13.106 -0.1156  0.1358 -0.2543
31958W        W45372   8.325  16.108  16.254 -0.0967  0.0984 -0.0025
31959W        W45373  13.692   8.173  15.450 -0.1772  0.0207  0.1693
31960W        W45374   5.383   1.561  11.817  0.0923 -0.2140  0.0451
31961W        W45375  11.245   1.364  10.592 -0.1583 -0.0454 -0.0166
31962W        W45376  10.776   7.147   1.984  0.0935  0.1225 -0.2286
31963W        W45377   0.091   7.375  13.054  0.0275  0.1969  0.2685
31964W        W45378  16.011   0.450   2.560  0.3452  0.0832  0.1543
31965W        W45379   2.151   0.302  14.220  0.2181  0.0539 -0.1525
31966W        W45380   6.967   3.737  10.997  0.0408  0.3555  0.1255
31967W        W45381  11.726   7.888  15.740  0.2003 -0.1249 -0.2972
31968W        W45382  14.374   2.254  11.284 -0.0724  0.0773 -0.1926
31969W        W45383   4.437  10.183  13.265 -0.0470 -0.2517  0.0278
31970W        W45384   0.737   6.664  11.137  0.2559 -0.0765 -0.0955
31971W        W45385   9.773  17.309  11.244 -0.2625  0.1903  0.0774
31972W        W45386   7.636   1.090  11.466  0.2717  0.1810  0.2620
31973W        W45387   9.602  16.425  14.864 -0.1032  0.1352 -0.1111
31974W        W45388   0.258  11.401   2.143 -0.0847 -0.0524  0.1076
31975W        W45389   3.715   2.196  16.078  0.3240 -0.0693 -0.0630
31976W        W45390   4.429   5.948  10.821 -0.3115 -0.0078  0.0172
31977W        W45391  11.927  15.738   1.592  0.0207 -0.5611  0.2326
31978W        W45392   9.014  14.345   0.441 -0.3124  0.0847 -0.0858
31979W        W45393   9.558  12.435   2.816 -0.1157  0.2225 -0.1818
31980W        W45394   3.301  14.448   3.086 -0.1819 -0.0593 -0.1686
31981W        W45395  14.986   2.999  14.102  0.1318  0.2699 -0.2211
31982W        W45396  11.265   8.578  14.203 -0.3783 -0.1661  0.0638
31983W        W45397  11.183   8.320  10.977  0.0306 -0.0790 -0.1108
31984W        W45398  14.212  13.564  12.999  0.2233 -0.1569 -0.0180
31985W        W45399   4.684   1.507   0.371  0.1830 -0.2174 -0.0412
31986W        W45400  13.933   9.491  11.094  0.0451  0.0314  0.0976
31987W        W45401  13.173  17.285  11.117  0.0127 -0.0841 -0.1914
31988W        W45402   1.251  10.345   4.082 -0.1440 -0.2730 -0.1670
31989W        W45403   8.185  11.625  12.763 -0.0417  0.1563 -0.0553
31990W        W45404   7.432   5.121  15.660 -0.0475 -0.0275 -0.0251
31991W        W45405   4.019  13.821   3.034  0.0279  0.3474 -0.0053
31992W        W45406   0.302   1.380  11.105 -0.0971  0.0584 -0.0043
31993W        W45407  16.597  10.822   2.141  0.0481  0.3278 -0.0194
31994W        W45408   1.466   8.480  10.920 -0.1076 -0.0895 -0.2535
31995W        W45409   4.002   8.725   3.955 -0.0574  0.0262  0.2328
31996W        W45410   3.989  10.835  13.593 -0.0760 -0.0390  0.0834
31997W        W45411  15.042   0.510   0.059 -0.1390 -0.1100 -0.2345
31998W        W45412   6.508   5.960   3.863  0.1099  0.0319  0.1469
31999W        W45413  12.636   7.809  15.430  0.0583 -0.0720 -0.0116
32000W        W45414  17.742  16.938   0.222 -0.1112 -0.0212 -0.3517
32001W        W45415  12.318  16.933  11.795  0.2128  0.1086 -0.0790
32002W        W45416   3.167  12.258  15.650  0.1883 -0.4076 -0.0203
32003W        W45417  14.639  10.845   0.251  0.0261 -0.0675 -0.0848
32004W        W45418   8.478   8.789  15.043  0.0072  0.0653  0.0648
32005W        W45419   3.219   7.930  13.541 -0.1940 -0.1858 -0.0064
32006W        W45420   5.342   2.552   3.557 -0.1429 -0.0763 -0.1066
32007W        W45421   3.622   3.452  12.744 -0.2001  0.2091  0.3193
32008W        W45422  17.048   7.501   2.547  0.1396 -0.1148 -0.0619
32009W        W45423   7.354  15.704   4.655  0.1109 -0.0198 -0.0052
32010W        W45424  16.197  14.314   1.945  0.3027 -0.2321 -0.0231
32011W        W45425   0.805   7.784  14.315 -0.3022 -0.3310 -0.0007
32012W        W45426   3.112  15.471   2.821  0.3463 -0.1084  0.2727
32013W        W45427  15.272  11.156   5.447 -0.1092 -0.2458 -0.2645
32014W        W45428  12.736   6.992  11.563  0.0606 -0.0291  0.0395
32015W        W45429  14.503   9.482   4.662 -0.0871  0.0051  0.1835
32016W        W45430   2.447   8.254   4.152 -0.0635 -0.2325 -0.0046
32017W        W45431  10.602  17.551   0.746  0.0176 -0.0647  0.0571
32018W        W45432   7.529   9.164   4.924 -0.1611 -0.1074 -0.0613
32019W        W45433   9.633   6.799  15.202 -0.1341 -0.0132 -0.0679
32020W        W45434   9.905   5.938  14.515  0.1398  0.1951  0.0948
32021W        W45435   2.366   7.439   9.782  0.1048  0.0229 -0.0026
32022W        W45436  10.087  11.699  16.526 -0.2447 -0.2331 -0.0979
32023W        W45437   5.409  16.463   1.141 -0.1169 -0.2335  0.0565
32024W        W45438  17.842   6.861   5.309 -0.3272 -0.0206  0.2153
32025W        W45439  13.365   9.936   1.608  0.0389  0.3590 -0.2076
32026W        W45440  16.564  18.284   3.074  0.3821  0.0019  0.0131
32027W        W45441  12.627  18.202  14.028 -0.1272 -0.0110  0.0064
32028W        W45442  15.197  18.095  10.507  0.1387  0.0530 -0.3070
32029W        W45443  10.696   4.729   0.566  0.0454  0.3137  0.0175
32030W        W45444  14.375   0.432  14.738  0.3711 -0.0427 -0.0477
32031W        W45445   1.584   6.054   5.729 -0.0867 -0.2601 -0.0879
32032W        W45446   1.836   4.099  14.641  0.1972 -0.0600  0.2067
32033W        W45447   0.951   7.490   0.299  0.2042  0.1243 -0.0454
32034W        W45448  12.426   6.274   0.196  0.1465 -0.3866  0.1221
32035W        W45449   0.369   2.200   9.767 -0.0133 -0.0639  0.3175
32036W        W45450   8.000   1.308  15.457 -0.0338  0.0685 -0.3937
32037W        W45451   0.465   9.274   3.915  0.0436 -0.0905 -0.1785
32038W        W45452  11.123   1.180   0.598 -0.0290  0.1220 -0.3414
32039W        W45453   7.270   2.950   4.859 -0.1782  0.1458 -0.0519
32040W        W45454   8.983  13.015  16.231 -0.2039 -0.0401 -0.2276
32041W        W45455  14.246  13.477   0.952 -0.3104  0.1162 -0.0282
32042W        W45456  16.529   4.470   1.042 -0.2467  0.1089  0.1456
32043W        W45457   1.122   2.962   3.203  0.2276  0.1011  0.2401
32044W        W45458   9.415   2.392   3.459  0.1712 -0.1501  0.1689
32045W        W45459  12.840   0.876  13.585  0.1082  0.1915  0.1166
32046W        W45460  11.259   5.001   5.398 -0.1817  0.2127  0.0284
32047W        W45461   3.930  11.800   4.213 -0.0779  0.0108 -0.2949
32048W        W45462  15.262   0.532  13.772 -0.0550 -0.0229 -0.1293
32049W        W45463  10.155  15.496   2.833 -0.1562  0.3043 -0.2674
32050W        W45464   6.454  13.865   4.662 -0.1254  0.1003 -0.4730
32051W        W45465  17.916  14.849   3.650 -0.0688 -0.5075  0.0422
32052W        W45466   4.514   1.487   4.213 -0.0203  0.1422  0.4552
32053W        W45467   3.857  13.310  15.740  0.0901 -0.0122 -0.1886
32054W        W45468  14.025   0.629   3.901  0.2707  0.2487 -0.0920
32055W        W45469   8.463   0.785  16.140  0.2773  0.3667  0.1199
32056W        W45470   0.260   7.263  13.946 -0.0409 -0.0685 -0.2602
32057W        W45471   3.917  16.384   1.038  0.0952 -0.0289 -0.2802
32058W        W45472  10.582   8.739  14.009 -0.0896  0.4269  0.1830
32059W        W45473  16.338   3.061   1.962  0.3159 -0.1485 -0.1036
32060W        W45474   1.651   6.648   1.044  0.1831 -0.0462  0.2731
32061W        W45475  10.758   8.167   1.027 -0.0237  0.2006  0.0079
32062W        W45476   9.697  10.509  12.958  0.3431  0.2447 -0.2198
32063W        W45477   8.618  18.140   5.082  0.0672  0.0421  0.0349
32064W        W45478   7.044   9.020  10.123  0.2694 -0.2148 -0.1339
32065W        W45479  15.046   4.284  16.541  0.0424  0.2677  0.0533
32066W        W45480  13.995  17.223  14.513  0.2230 -0.2608 -0.0395
32067W        W45481   4.562   5.766   2.305  0.4024 -0.3154 -0.0021
32068W        W45482   0.182   9.054  10.210 -0.0325  0.2205 -0.0760
32069W        W45483  11.225  12.631   2.239  0.0010  0.2330  0.1112
32070W        W45484  13.060   3.414   3.648 -0.4378  0.0255  0.2942
32071W        W45485   1.610   2.490   5.014 -0.3171  0.0446 -0.0950
32072W        W45486  18.216  13.197   3.947 -0.0015  0.1721  0.0253
32073W        W45487   2.369   8.919   2.040  0.2961 -0.2086 -0.3376
32074W        W45488   6.536   9.042  16.118 -0.0375 -0.1509 -0.1478
32075W        W45489   4.524   0.249   3.561 -0.1122  0.2148  0.2215
32076W        W45490   4.845  17.488   4.610 -0.0701  0.1629  0.0763
32077W        W45491   0.696  11.834  10.784  0.1559  0.0602 -0.2934
32078W        W45492   1.420   2.645   3.949 -0.0270 -0.2824 -0.0861
32079W        W45493  16.957   4.225   4.191 -0.0433 -0.1299  0.1378
32080W        W45494  10.938  10.062  12.964  0.1499  0.2522 -0.0963
32081W        W45495   3.562  12.976  12.439  0.2680 -0.1721  0.1664
32082W        W45496  13.726   8.987   0.527  0.0335  0.1378 -0.1798
32083W        W45497   1.095   6.882  11.882  0.0837 -0.1367 -0.0616
32084W        W45498   4.847  13.299  10.737  0.0358 -0.1416 -0.1448
32085W        W45499   6.695  12.489  14.200 -0.0483  0.0569 -0.1049
32086W        W45500  13.869   9.735   1.547  0.1246  0.0528  0.1404
32087W        W45501  12.409   6.319  14.811  0.0096 -0.2991 -0.0867
32088W        W45502  15.925  13.528   4.985  0.2842  0.1122 -0.1477
32089W        W45503   3.934   7.033   4.503  0.1260 -0.0641 -0.1945
32090W        W45504  16.123  14.880  10.474  0.0906  0.0472 -0.2895
32091W        W45505   4.670  16.934  13.399 -0.3555  0.1315 -0.0452
32092W        W45506  13.524  16.671   5.289 -0.3719 -0.2730 -0.1156
32093W        W45507   0.303   4.321   5.493  0.2472  0.4043  0.0141
32094W        W45508   1.910  16.421   2.148 -0.5303 -0.0801 -0.1523
32095W        W45509  14.921   7.392  16.336  0.0729 -0.3355 -0.2195
32096W        W45510   7.503   4.313  12.406  0.1346 -0.0620  0.0861
32097W        W45511  16.095  13.194   5.359 -0.2021 -0.0124  0.0685
32098W        W45512   9.457   6.005  14.057 -0.0665  0.2098 -0.0536
32099W        W45513  13.486  11.322  10.467 -0.1705 -0.1402  0.4195
32100W        W45514  16.183   0.957  11.178 -0.2945 -0.4333  0.3806
32101W        W45515   7.609  11.274  14.864 -0.1232  0.0410 -0.3161
32102W        W45516  13.481  15.689   1.527 -0.3174  0.0815  0.0469
32103W        W45517   4.227  10.885  15.490 -0.0696 -0.0531  0.2324
32104W        W45518   3.178  11.726  15.135  0.0483 -0.2803  0.0879
32105W        W45519   2.883  15.144   0.951  0.1379  0.1537 -0.1530
32106W        W45520   7.299  12.678  13.445 -0.3830 -0.2234  0.1815
32107W        W45521  16.934   3.133  14.772 -0.1294  0.0157 -0.0336
32108W        W45522   6.581  17.093  15.664  0.2150  0.1331 -0.0660
32109W        W45523  14.992   0.799   0.567  0.0893  0.1879  0.0262
32110W        W45524  13.376   7.413   4.240  0.0829  0.1982 -0.1781
32111W        W45525   5.952  15.331   1.134  0.1169  0.2897 -0.3225
32112W        W45526   3.612   2.243  10.730 -0.2009 -0.2183 -0.0699
32113W        W45527   6.041  15.840   1.120  0.1549  0.0192 -0.1401
32114W        W45528   1.454   1.292  15.062  0.0640  0.2334 -0.1029
32115W        W45529  11.439   1.922   0.163  0.0360 -0.0942 -0.1239
32116W        W45530  16.917   6.067   4.029 -0.1262  0.0157 -0.0702
32117W        W45531  11.912  12.215   2.054  0.1698  0.2659 -0.0913
32118W        W45532   3.187   4.467  11.728 -0.2923 -0.0110 -0.0843
32119W        W45533  13.331   6.279  14.140 -0.0058 -0.0897 -0.1089
32120W        W45534   9.059  13.625  16.225  0.0133  0.1977 -0.0565
32121W        W45535   1.372   3.717   4.769  0.2590 -0.3713 -0.2224
32122W        W45536  10.998  12.084  15.211  0.2601  0.3076  0.0924
32123W        W45537   5.976   4.210   5.699  0.1480  0.1558 -0.0991
32124W        W45538  17.723   9.973   4.684  0.3860  0.0127  0.2060
32125W        W45539  14.669  15.380   5.040  0.0508  0.0908 -0.0484
32126W        W45540  16.716   5.523   2.903  0.2920 -0.0636  0.0067
32127W        W45541  13.794  16.573  12.152 -0.3608 -0.2879 -0.0021
32128W        W45542   9.528   3.109   4.162 -0.0130  0.0352  0.1311
32129W        W45543   3.712   3.988  12.666  0.1746  0.0672  0.1541
32130W        W45544  13.114  16.545  11.603  0.0745  0.0822 -0.1348
32131W        W45545  14.894  12.028  16.432  0.1955 -0.3492  0.1736
32132W        W45546   4.607   2.233  15.616 -0.1170 -0.2564  0.1909
32133W        W45547   2.903  13.610  15.472 -0.0802 -0.0472  0.0432
32134W        W45548   9.187  17.284   1.938 -0.1025 -0.0152  0.2343
32135W        W45549   6.840   8.532   5.611 -0.1134 -0.2690  0.0027
32136W        W45550   5.246  14.341  13.333  0.0542  0.0966 -0.4871
32137W        W45551   7.396   6.428   5.819  0.0301 -0.0445  0.0178
32138W        W45552  17.825  12.616   5.678  0.0662  0.4343  0.2375
32139W        W45553   9.172  10.678   3.951  0.2171 -0.0262  0.2131
32140W        W45554   0.194   3.044  10.415 -0.1599 -0.1307 -0.1804
32141W        W45555   3.667   0.310  13.869  0.0643 -0.0036 -0.0993
32142W        W45556   3.318   1.067  12.322 -0.2978  0.2006  0.0101
32143W        W45557  11.946   9.047  11.747  0.2605 -0.0604  0.2905
32144W        W45558  16.217   9.221  16.544  0.2538  0.1294 -0.2330
32145W        W45559   2.975  12.358   5.448 -0.2629  0.1093 -0.0456
32146W        W45560  13.347   8.951   5.321  0.0227  0.1492 -0.0837
32147W        W45561  16.160   0.214   4.822 -0.0053 -0.3622 -0.0512
32148W        W45562  14.390  17.684  15.737  0.2200  0.1016  0.3415
32149W        W45563   9.006   8.332  14.166 -0.0317  0.1393 -0.0663
32150W        W45564  13.436   0.455   1.068 -0.1046 -0.0272  0.0549
32151W        W45565  10.369  12.466  13.955  0.0096  0.2683  0.1503
32152W        W45566  13.894   9.191   5.345 -0.4150 -0.1948  0.0567
32153W        W45567   9.838   6.786   3.103  0.0458  0.0329 -0.0510
32154W        W45568  11.109   6.451   4.372 -0.4472 -0.0651 -0.2607
32155W        W45569   8.946   1.778   2.768  0.1288 -0.2523  0.1110
32156W        W45570   3.117   3.773   0.903 -0.1445  0.0393 -0.1145
32157W        W45571  12.023   8.427  16.198  0.1153 -0.1050 -0.0124
32158W        W45572  17.434  10.795  15.883  0.0261  0.1412 -0.0193
32159W        W45573   9.042  17.538  12.437 -0.2010  0.0816 -0.1327
32160W        W45574  13.473   1.971   4.912 -0.3790  0.0648  0.0127
32161W        W45575   6.820  10.167   4.277 -0.0228 -0.1689  0.1022
32162W        W45576   5.044   4.648   2.054 -0.1740  0.0480 -0.2636
32163W        W45577  16.268  15.597  10.848 -0.1607 -0.0484 -0.0277
32164W        W45578  15.504   1.892   5.674 -0.0023 -0.2323  0.2942
32165W        W45579  11.020  11.987   3.457 -0.3577  0.3412 -0.0997
32166W        W45580   9.927  10.067  11.472  0.2430  0.2146 -0.0121
32167W        W45581   2.296  11.125  13.932  0.0548 -0.0797  0.0295
32168W        W45582  12.944   3.138  15.333  0.0598  0.0377  0.0850
32169W        W45583   3.320   4.123   3.730  0.3015  0.0915  0.0466
32170W        W45584  13.141  14.461   0.469  0.1546  0.0519  0.0994
32171W        W45585  17.747   9.722   0.245 -0.0559  0.3401 -0.2358
32172W        W45586   2.322  11.330  13.179 -0.4842 -0.3989  0.1831
32173W        W45587  12.405  17.337   2.141 -0.0079  0.3330 -0.1683
32174W        W45588  14.475  11.051   1.490  0.1540  0.1919 -0.0683
32175W        W45589   6.689   8.629  14.922 -0.0048 -0.1640  0.1171
32176W        W45590  13.385   4.922   0.890  0.2534 -0.0447 -0.1174
32177W        W45591   6.580  13.069  12.896 -0.0628  0.1892 -0.0241
32178W        W45592  15.132   0.732  11.317 -0.0113  0.0546  0.2305
32179W        W45593   5.322   6.662  16.071 -0.4233 -0.0112  0.0606
32180W        W45594   0.515  15.544   0.863 -0.0436 -0.1551 -0.1127
32181W        W45595   9.761   3.359   0.958  0.2121  0.2158 -0.1266
32182W        W45596  13.412   7.129   9.991 -0.0661 -0.1599 -0.0679
32183W        W45597   9.086  18.237   1.062  0.0429 -0.0360 -0.1270
32184W        W45598   7.002   3.439  10.398 -0.3222  0.4540  0.1353
32185W        W45599   2.180  16.575  15.158  0.2064 -0.2281  0.3528
32186W        W45600   7.689   7.540   5.094 -0.0327 -0.0062  0.0328
32187W        W45601   2.692  17.598   3.299 -0.3504 -0.2735 -0.1946
32188W        W45602  12.654   4.841   5.918 -0.0081 -0.0078 -0.1570
32189W        W45603   4.124  17.575   2.296  0.1530  0.0164 -0.1456
32190W        W45604   9.118  12.673   1.608 -0.1590  0.0362 -0.2265
32191W        W45605  13.041   8.089   5.348  0.2015  0.1426 -0.0388
32192W        W45606   9.134  10.755  13.880  0.2535  0.1627 -0.2280
32193W        W45607   6.264  11.915  10.856 -0.2193  0.0609 -0.2080
32194W        W45608   4.630   9.823   4.097 -0.0276  0.2023 -0.0151
32195W        W45609   8.585   8.659   5.265 -0.0154 -0.2181  0.1252
32196W        W45610  16.042   8.134  13.337  0.1036 -0.1392 -0.4167
32197W        W45611  15.420   5.872  11.452  0.2282 -0.0697  0.1214
32198W        W45612  14.789   7.138   5.251  0.4957 -0.1666 -0.0509
32199W        W45613   9.127  10.906  10.942  0.5793  0.0350 -0.1843
32200W        W45614  16.393   7.978  15.903  0.0262  0.2121 -0.1157
32201W        W45615  10.847  15.817  11.989 -0.1852 -0.1955  0.2065
32202W        W45616   9.663  16.455  15.962  0.2805  0.1113  0.0079
32203W        W45617  12.396  10.422  10.898 -0.0856 -0.1513  0.1126
32204W        W45618  16.717   0.332   3.624 -0.0398  0.4911  0.4926
32205W        W45619   2.783   3.691  13.859 -0.1790 -0.0912 -0.3022
32206W        W45620  10.846  12.997   0.817  0.0056  0.1172  0.2120
32207W        W45621   0.373  14.867  15.124 -0.0992  0.0179 -0.3680
32208W        W45622  15.772   1.176   1.539 -0.2779  0.0367 -0.0216
32209W        W45623   5.332  15.273  10.686 -0.0939  0.0467  0.2962
32210W        W45624  12.607   1.383  12.533 -0.1665 -0.1120 -0.4110
32211W        W45625  13.004   4.868   0.440 -0.0555 -0.1512 -0.0770
32212W        W45626  16.040  17.170  13.107 -0.2009 -0.0370 -0.0861
32213W        W45627  17.878   1.970  15.730  0.2493  0.3300  0.0966
32214W        W45628  13.632   8.995  12.777 -0.1949  0.5236 -0.1189
32215W        W45629  17.522   6.519   0.101 -0.0043  0.2756  0.1313
32216W        W45630  13.932   5.683  13.740 -0.0184  0.1484  0.0591
32217W        W45631  13.415   7.301   2.816  0.2395  0.0949 -0.1026
32218W        W45632  16.449   0.493  16.211 -0.1559 -0.0039 -0.0991
32219W        W45633   0.858   7.671   2.053 -0.1848  0.2294 -0.1423
32220W        W45634   4.114   8.039   1.759  0.2028  0.0275 -0.4316
32221W        W45635   3.469  15.702   1.352 -0.1722  0.2233 -0.1528
32222W        W45636   9.953  11.942  14.631  0.2734  0.0180 -0.0541
32223W        W45637  10.219   0.494   0.400 -0.0505 -0.0296 -0.3422
32224W        W45638  16.461  16.978   1.459  0.1741  0.1925  0.0785
32225W        W45639   2.515   6.562   0.745  0.0905  0.1721  0.0477
32226W        W45640   9.140  14.707   1.463  0.1322 -0.5679 -0.1077
32227W        W45641  14.498   6.833  10.441 -0.1068  0.2468  0.0165
32228W        W45642   5.021   4.132  10.962  0.3055 -0.0006  0.1120
32229W        W45643   1.902  10.491  16.401 -0.1340 -0.2356 -0.0957
32230W        W45644   1.721  13.143  14.480  0.1076  0.1936  0.2967
32231W        W45645  15.816   7.076  16.397 -0.0206  0.0313  0.2878
32232W        W45646  11.858  15.384   0.253 -0.0520  0.2648  0.3592
32233W        W45647   0.050  16.348   1.567  0.0780 -0.1299 -0.1843
32234W        W45648  13.891   0.099   5.635  0.1138  0.2235  0.1148
32235W        W45649   8.983   6.703   5.164  0.4731  0.2190 -0.0456
32236W        W45650  14.123   1.056   1.942 -0.1183  0.0581 -0.3903
32237W        W45651   9.357  13.025   0.766  0.1931  0.0340 -0.1004
32238W        W45652  13.069   1.455  16.000 -0.2160  0.0183 -0.1814
32239W        W45653  16.203   5.141   4.470 -0.1331  0.0098  0.2125
32240W        W45654   6.017   3.753  15.026 -0.0496 -0.2211  0.1378
32241W        W45655  12.467   9.454   0.484  0.1878  0.1609 -0.1949
32242W        W45656   7.976   4.316  13.735 -0.4515 -0.1120  0.0221
32243W        W45657  11.196   9.077   3.913 -0.0159  0.1228 -0.0129
32244W        W45658   2.007  15.235   3.639 -0.1277 -0.1302  0.1985
32245W        W45659  17.180   7.357   0.160 -0.0382  0.2238  0.1598
32246W        W45660   1.686  11.434   3.981  0.2428  0.2741  0.2261
32247W        W45661   5.106  16.981  15.732  0.0492 -0.1221  0.4137
32248W        W45662   5.911   6.891  15.411  0.0560 -0.0529  0.0704
32249W        W45663   7.540   0.928   5.885 -0.1298  0.0602 -0.3347
32250W        W45664   6.799  12.057   4.453  0.2833  0.2108 -0.0401
32251W        W45665  10.322   3.642   1.741  0.4032 -0.0562  0.1370
32252W        W45666   9.543   2.400  14.697 -0.0232 -0.0124 -0.0255
32253W        W45667   3.732   3.066   1.537 -0.0311  0.0529 -0.0405
32254W        W45668  13.289   3.044  14.275  0.1518  0.1584  0.0363
32255W        W45669  13.822  11.344  13.143 -0.2678 -0.0051  0.3854
32256W        W45670   5.958   0.376   5.126 -0.2700 -0.1622 -0.2696
32257W        W45671   4.119   8.358  12.566 -0.0954 -0.0126  0.0564
32258W        W45672  16.695  17.627   2.209 -0.2846 -0.1048  0.2594
32259W        W45673  12.079  17.005   1.886  0.1330  0.0897  0.2257
32260W        W45674   3.606   2.594  13.477 -0.2998  0.2954  0.1913
32261W        W45675   5.476  16.428  14.936 -0.2318  0.1791  0.0269
32262W        W45676   3.601  11.936   6.389  0.4269  0.1016 -0.0909
32263W        W45677  14.220   2.071  14.924  0.5359 -0.0175 -0.0609
32264W        W45678   7.133   2.317   1.989 -0.1111 -0.5046  0.2070
32265W        W45679   8.020  13.726   4.195  0.2182 -0.0210 -0.0021
32266W        W45680   4.724   3.208  13.563  0.2204 -0.1500  0.3801
32267W        W45681   4.515   5.193   0.211  0.2019 -0.2941 -0.0110
32268W        W45682   1.699  13.562  11.208  0.2855  0.0594  0.1786
32269W        W45683   0.802   1.873   3.039 -0.5379 -0.2456 -0.1140
32270W        W45684   0.327   3.341  10.802 -0.0794  0.3880  0.0079
32271W        W45685   9.513   4.173  15.541 -0.1430 -0.5986  0.2677
32272W        W45686  14.538   0.640   3.039  0.1106 -0.0010 -0.1036
32273W        W45687   8.928  15.030   0.554 -0.1352  0.1720 -0.0526
32274W        W45688   0.797   6.776   3.545 -0.3220  0.1532  0.0610
32275W        W45689   3.778   9.636  10.605  0.0052 -0.0175 -0.2235
32276W        W45690   0.139   8.025   4.192  0.4237 -0.0018 -0.2720
32277W        W45691  10.752  12.389  10.992 -0.0403  0.1627  0.2017
32278W        W45692   4.072   2.828  15.200 -0.4162  0.1317 -0.2366
32279W        W45693  13.001   4.279   0.306 -0.0831 -0.3191  0.0732
32280W        W45694   5.306  10.982   0.352 -0.0021  0.0142  0.0769
32281W        W45695  12.731   2.887  14.283  0.2349 -0.0113 -0.2040
32282W        W45696  17.934  16.152   1.359  0.1266  0.2124 -0.1014
32283W        W45697  12.824   5.258   5.389 -0.4085 -0.1702  0.0679
32284W        W45698   7.957  15.041   3.987 -0.3388 -0.1713  0.1746
32285W        W45699   2.519  11.735  16.451  0.3211  0.0176 -0.1964
32286W        W45700  10.288  15.581   4.186  0.1744  0.0435 -0.3273
32287W        W45701  17.543  14.599   5.700  0.1928  0.2609 -0.2292
32288W        W45702  10.786   0.253   6.322  0.0769 -0.2245  0.2033
32289W        W45703  10.616  15.761   0.849  0.0840  0.0884  0.0999
32290W        W45704  15.005  10.799  13.547  0.3654 -0.0786  0.4104
32291W        W45705   9.561  11.987   3.824  0.0788 -0.1381  0.2616
32292W        W45706  15.095   0.813   1.674  0.1876  0.2316  0.1642
32293W        W45707   2.640   1.762   1.561 -0.0540 -0.4591  0.0470
32294W        W45708  10.386  12.076   2.577 -0.0436  0.1304 -0.0010
32295W        W45709  12.171   2.198   0.556 -0.4267 -0.0248 -0.2310
32296W        W45710  12.881   1.691  12.885 -0.1928 -0.2587  0.1363
32297W        W45711   6.257  16.422   6.282  0.2622 -0.0893 -0.1471
32298W        W45712  11.583   0.614   5.309 -0.1099 -0.1048 -0.0476
32299W        W45713   7.837   5.468   4.785 -0.3814 -0.0583  0.1049
32300W        W45714   0.419  11.049   5.015  0.1914 -0.0768 -0.0672
32301W        W45715   0.398   9.714   0.979  0.1102  0.2080 -0.0817
32302W        W45716  15.948   7.054   5.654 -0.1147 -0.2913  0.0643
32303W        W45717   5.089  10.903  14.220  0.0283 -0.0104 -0.1732
32304W        W45718   6.627  13.871  12.426  0.1279  0.0670 -0.0234
32305W        W45719   6.062  11.136   1.008  0.1134 -0.0846 -0.1905
32306W        W45720  17.473  10.439   3.066 -0.0163 -0.0938 -0.0284
32307W        W45721  12.985   2.237  13.690 -0.1211 -0.1762  0.4358
32308W        W45722  11.403   9.862  13.488 -0.2571 -0.0635 -0.1240
32309W        W45723   3.732  14.120   3.362 -0.0755  0.2483  0.0184
32310W        W45724   9.837  16.344  13.377  0.3131  0.0580 -0.1017
32311W        W45725   5.003  15.624  11.199  0.0512 -0.0181  0.1781
32312W        W45726   4.270   0.693  13.940 -0.1791  0.1088  0.0173
32313W        W45727  11.272   5.723   4.804  0.1732  0.1784  0.2227
32314W        W45728   4.566  14.112  12.909  0.2272 -0.0370 -0.4545
32315W        W45729  16.813  16.681  11.601  0.2079 -0.0767  0.1861
32316W        W45730   7.801   5.497   2.857 -0.0522  0.0604  0.1853
32317W        W45731  13.256  10.904   4.523 -0.0808  0.3052  0.0796
32318W        W45732   9.910   6.753   5.307 -0.5921 -0.2463  0.0855
32319W        W45733   3.777   6.894  14.064 -0.2588  0.1929 -0.2159
32320W        W45734   3.048   8.560  14.916 -0.0684 -0.1521  0.0340
32321W        W45735   3.268   0.745  11.940 -0.3253 -0.0464  0.1323
32322W        W45736   2.320  12.627   0.832  0.1870 -0.0829 -0.1524
32323W        W45737   2.155   0.925   1.493  0.2357 -0.0413  0.1719
32324W        W45738   0.349   6.647   4.349  0.0923 -0.1068  0.1187
32325W        W45739  17.179   6.263  10.647 -0.2589  0.1282  0.0509
32326W        W45740  15.883   3.764  10.896 -0.0625  0.1963 -0.1041
32327W        W45741   9.680   6.382  14.471  0.2346 -0.1663  0.1448
32328W        W45742   0.726  15.578  11.107  0.4964  0.0875  0.0074
32329W        W45743  11.538   2.068  13.919  0.3484 -0.2673 -0.0877
32330W        W45744  17.390   8.375   5.087 -0.0876 -0.2058  0.0756
32331W        W45745   7.090  16.086  14.251 -0.1519  0.1936 -0.2095
32332W        W45746   5.062  10.736  16.469 -0.1797  0.2057 -0.1769
32333W        W45747   9.618  11.411  15.227 -0.1164 -0.2545  0.2197
32334W        W45748   0.654   7.261  12.652  0.1838  0.0331 -0.2029
32335W        W45749   2.467  15.372   1.049 -0.3009 -0.1779  0.0561
32336W        W45750  12.777  11.566  13.898 -0.0306 -0.2994 -0.1899
32337W        W45751   9.426  15.707  10.841  0.0402  0.0401 -0.0106
32338W        W45752   9.710   5.386  12.812  0.1035 -0.3385  0.2227
32339W        W45753  10.858   0.898   3.826 -0.1359 -0.1476 -0.1165
32340W        W45754   2.119   3.526   3.234  0.0270  0.2174 -0.0545
32341W        W45755  17.729   4.162  11.638  0.1063  0.1671 -0.1340
32342W        W45756  14.806   6.140   0.847  0.0444 -0.4368 -0.0975
32343W        W45757   9.931  17.156   6.484 -0.0786  0.1381 -0.0023
32344W        W45758   1.531   8.571   1.560 -0.2493 -0.2414  0.0346
32345W        W45759  14.385   2.919   3.031  0.0638  0.0178 -0.0760
32346W        W45760   0.365  12.457  16.448 -0.1588 -0.0012  0.2029
32347W        W45761  11.474  15.891  13.834  0.0788 -0.7227 -0.1985
32348W        W45762  14.508  10.640   0.801 -0.4919 -0.1769  0.0691
32349W        W45763  13.728   4.524  15.098  0.2927  0.0749 -0.1841
32350W        W45764   0.787   7.598  16.167  0.1692 -0.1598 -0.0833
32351W        W45765  11.985   4.125   2.488 -0.1722  0.4516 -0.0009
32352W        W45766   2.568  12.858   3.679 -0.1027  0.0409 -0.2301
32353W        W45767  13.299  14.977   1.649 -0.1615 -0.0977  0.1448
32354W        W45768  17.212   7.031  14.655 -0.2023 -0.0151 -0.1187
32355W        W45769   9.611  17.157  13.373  0.3363  0.1051 -0.4514
32356W        W45770  15.871  12.419   6.465 -0.0555  0.0900  0.1725
32357W        W45771   9.401  13.979   2.513  0.1078  0.0139 -0.2620
32358W        W45772   6.261   3.293   0.272  0.3961 -0.1568  0.0805
32359W        W45773   8.246   9.680   4.597  0.0628 -0.1922  0.0738
32360W        W45774   7.036   3.123   3.168  0.1365  0.0093  0.0249
32361W        W45775  11.671   3.337   1.666 -0.2945  0.1374 -0.1051
32362W        W45776  14.196   5.404  16.519  0.1445 -0.0055  0.0430
32363W        W45777   4.854  12.028   3.024 -0.0423  0.0168 -0.2324
32364W        W45778   0.065  10.262  15.383 -0.1911 -0.0426 -0.0610
32365W        W45779  11.182   8.985  13.884  0.0517 -0.0690 -0.1432
32366W        W45780  10.120  15.686  13.379 -0.0446 -0.2142 -0.3422
32367W        W45781   1.849  13.057   6.319  0.0205  0.1905 -0.0220
32368W        W45782  14.144  10.579   2.069  0.3266  0.0863  0.0292
32369W        W45783   1.371  13.895   1.518 -0.0396  0.2293 -0.3553
32370W        W45784   2.179  15.315   4.429  0.1112  0.1845 -0.3765
32371W        W45785   1.765   5.055  10.663  0.0725  0.1868 -0.0096
32372W        W45786   3.267   3.833   2.778 -0.0183  0.0108  0.2371
32373W        W45787   0.272  13.730   0.650  0.1990 -0.2563  0.0417
32374W        W45788   7.954   5.252   5.586 -0.0350  0.1733  0.3421
32375W        W45789   1.954   5.485  13.626  0.0672  0.1757 -0.1803
32376W        W45790  10.726   2.262   0.014  0.1357  0.3917 -0.2690
32377W        W45791  17.313   6.731   5.185  0.3517  0.0542  0.1101
32378W        W45792   9.174   6.562  15.106  0.2127  0.0595  0.0552
32379W        W45793  13.821  12.706  14.603 -0.1210  0.0501  0.1554
32380W        W45794   2.014   9.625  16.463  0.2510 -0.0914 -0.1166
32381W        W45795   7.631   4.614   5.004 -0.0651  0.0471  0.0503
32382W        W45796   6.208  11.777   2.663 -0.0420  0.0673 -0.2208
32383W        W45797  11.842  10.635   1.300  0.2524 -0.3466  0.2237
32384W        W45798   9.929   5.141  14.354  0.0833  0.0115 -0.1582
32385W        W45799   3.870  14.189  16.472  0.1544  0.2474  0.0721
32386W        W45800   1.652   1.814   1.318  0.1021  0.1721 -0.1754
32387W        W45801  12.625   8.033   0.105  0.0182  0.1545  0.0710
32388W        W45802   9.345   3.005  11.542  0.0606  0.2569  0.2628
32389W        W45803   2.174  11.378  15.264 -0.1403 -0.2673 -0.1210
32390W        W45804  11.839  13.790   1.148  0.3474  0.0108  0.0831
32391W        W45805  16.121   8.202   4.732  0.0724  0.1682  0.0908
32392W        W45806   3.829  14.068   1.952 -0.0883 -0.0749 -0.0078
32393W        W45807   3.005   0.444  12.284  0.0616 -0.1045 -0.1712
32394W        W45808  12.221   5.774  12.597 -0.3487 -0.1209  0.0442
32395W        W45809   2.805   9.048   1.924  0.1335 -0.4282  0.0245
32396W        W45810   9.832   8.020  13.228 -0.1711 -0.0319  0.2031
32397W        W45811  16.097   8.924   2.043  0.1589 -0.1730 -0.0137
32398W        W45812  13.416   3.245  12.814  0.1448 -0.0395  0.1792
32399W        W45813  16.120  16.496   2.583 -0.2187 -0.2253 -0.0656
32400W        W45814   8.012   3.729   4.717  0.0046 -0.3596  0.0412
32401W        W45815   5.697   2.509  14.204 -0.1168  0.2373  0.1164
32402W        W45816   0.855   9.061  11.518 -0.0321 -0.1215  0.3153
32403W        W45817   2.102  11.936   2.036 -0.1141  0.1056 -0.3192
32404W        W45818   8.399   3.396   2.147  0.0372 -0.3628 -0.0586
32405W        W45819   4.451  11.881   0.610  0.1349 -0.0491 -0.1235
32406W        W45820   4.909   3.373  15.747  0.1331  0.1172  0.0917
32407W        W45821   4.069  11.338  15.444  0.1974 -0.0390  0.1929
32408W        W45822  18.119  18.137  12.565  0.1149  0.0960  0.2733
32409W        W45823   0.599   3.829  14.380 -0.1826 -0.0092 -0.0108
32410W        W45824   1.544  15.342   3.534  0.3570  0.2201  0.1723
32411W        W45825   1.980   7.137   1.210 -0.3225 -0.1236  0.2261
32412W        W45826  15.154   2.070  13.249  0.0883 -0.1217 -0.1897
32413W        W45827   7.921   0.254  14.808  0.1080 -0.2732 -0.1360
32414W        W45828   1.362  18.042   3.516 -0.3236 -0.1031 -0.4291
32415W        W45829   4.638  18.117  14.431 -0.1103 -0.2322 -0.0663
32416W        W45830   7.258   9.955  12.663 -0.2761 -0.0923 -0.2409
32417W        W45831  14.929   0.962   3.522  0.1597 -0.0444 -0.0413
32418W        W45832   0.166  18.178  15.281  0.1163  0.0037  0.0431
32419W        W45833   3.325   4.042   6.421 -0.0952  0.0170  0.3852
32420W        W45834   2.888   6.471   4.418  0.1002 -0.0517  0.1527
32421W        W45835   6.643   4.314   4.684 -0.1534  0.1430  0.0407
32422W        W45836  11.480  12.278  13.873  0.0588  0.1971 -0.3323
32423W        W45837   1.069  13.988   5.443 -0.1415  0.1875  0.0024
32424W        W45838  13.471   7.778   5.418 -0.0134  0.0428  0.0669
32425W        W45839   9.361   5.376  12.458  0.1303  0.1645 -0.0526
32426W        W45840   2.847   4.947  12.899  0.3543 -0.0029 -0.0476
32427W        W45841  17.563   9.450  13.650 -0.2774 -0.1074 -0.0538
32428W        W45842   6.512  17.607   1.127 -0.4183  0.0694  0.1784
32429W        W45843   7.828   2.471  12.651 -0.1366  0.0567  0.2855
32430W        W45844   8.491  17.485   3.228 -0.1507 -0.0463 -0.0661
32431W        W45845   4.044   6.209   5.079 -0.0836  0.0140 -0.1830
32432W        W45846   9.113  12.278   2.598 -0.0852  0.0447  0.5189
32433W        W45847   4.455   6.288  13.736 -0.0920  0.2048  0.1018
32434W        W45848   0.822   9.892   2.645  0.2395  0.3032  0.2175
32435W        W45849   6.104  16.358   4.176  0.3908  0.0569  0.0025
32436W        W45850   8.365  17.927   0.857 -0.2714 -0.0790 -0.0612
32437W        W45851  15.106   3.280  13.414  0.0445  0.2256 -0.3355
32438W        W45852   9.561   7.984   1.894 -0.0318  0.2491 -0.1684
32439W        W45853   1.730  10.359   3.980 -0.0858 -0.0612  0.3847
32440W        W45854  15.493   4.611   4.200  0.1098 -0.0111 -0.0803
32441W        W45855   3.835   3.237   6.831  0.2010 -0.1581 -0.2153
32442W        W45856  10.477   1.474  13.828 -0.2943 -0.0188 -0.1589
32443W        W45857  16.863  15.528  13.733  0.0311  0.0118  0.1189
32444W        W45858   6.735  14.160   0.474  0.1029  0.0685 -0.1262
32445W        W45859   5.822   8.988   2.078 -0.0787  0.0548  0.0530
32446W        W45860   3.428  15.197   6.400 -0.1319 -0.0537 -0.2015
32447W        W45861  11.452   0.860   3.012  0.0532 -0.2552  0.2326
32448W        W45862  18.243  11.465   4.405 -0.3066  0.0740  0.1842
32449W        W45863   1.957  15.017   2.625  0.4354  0.2416  0.0460
32450W        W45864  18.122  17.444   5.210  0.0588  0.0327  0.1158
32451W        W45865  12.493   8.422   5.333 -0.2010  0.1790  0.1678
32452W        W45866  12.695  14.181   3.000 -0.2226  0.3104 -0.3389
32453W        W45867  13.641  15.789   4.147  0.2467  0.3798 -0.3836
32454W        W45868   0.574  15.875   4.366 -0.0826  0.0606 -0.1899
32455W        W45869   5.494   1.031  15.324 -0.2303 -0.3145  0.1090
32456W        W45870  10.019   6.077   3.598  0.2987  0.0706  0.1587
32457W        W45871  11.908   2.928   4.079 -0.0439 -0.0992 -0.3944
32458W        W45872   9.783   1.394   5.075 -0.0464 -0.1160 -0.2159
32459W        W45873   8.888   8.299   5.318 -0.2010  0.0844  0.0819
32460W        W45874   1.549  10.378   4.501 -0.0649 -0.2034 -0.0952
32461W        W45875  16.222  10.404  14.829 -0.0530 -0.2377  0.3544
32462W        W45876   6.175  15.695  10.555  0.1179  0.0399 -0.2419
32463W        W45877  12.227  17.459   1.647 -0.1970  0.1753 -0.0904
32464W        W45878  13.204  11.508   1.947 -0.2012 -0.0305  0.2659
32465W        W45879   0.017  14.488   4.715  0.3123  0.5229  0.1753
32466W        W45880  12.626   8.805  12.207 -0.0796 -0.0572  0.0233
32467W        W45881  12.605   7.776   1.279  0.2738 -0.2801 -0.1516
32468W        W45882   5.185   4.684   0.422 -0.1842  0.1048  0.1153
32469W        W45883   5.850  12.274  16.333 -0.1322  0.2884 -0.0995
32470W        W45884   9.431   8.456   1.822 -0.0362 -0.0790 -0.0087
32471W        W45885   9.338  11.559   2.564  0.0419 -0.0266  0.0437
32472W        W45886   0.998   7.827  10.569  0.2860 -0.0907  0.1325
32473W        W45887   9.877  11.805   4.180 -0.0506 -0.0560 -0.0544
32474W        W45888   4.709  12.145   3.485  0.2581  0.1917 -0.2301
32475W        W45889   5.200   4.246  15.935  0.1560  0.0983  0.0629
32476W        W45890  10.218   1.120  14.885 -0.1646 -0.0714  0.0176
32477W        W45891  10.204  16.782   4.411  0.1984  0.2323 -0.2374
32478W        W45892   6.133   3.530   2.144  0.1349 -0.0577  0.0402
32479W        W45893   2.549   9.051   3.206  0.4212 -0.2230  0.1302
32480W        W45894   0.132  11.636  14.063 -0.2700  0.0496 -0.0779
32481W        W45895   0.825  18.068  11.213 -0.1270 -0.1488 -0.0721
32482W        W45896   0.063   1.070  12.328  0.2700  0.2594 -0.1833
32483W        W45897  15.791  17.540   0.245 -0.0164 -0.1268  0.0465
32484W        W45898   7.256   5.195  11.877 -0.1303  0.1541 -0.2124
32485W        W45899  14.631   6.965   4.053  0.0465  0.1687  0.4180
32486W        W45900   3.445   0.143  13.040 -0.1673  0.0667 -0.1347
32487W        W45901   5.559  10.778  14.321 -0.0710  0.1873 -0.1345
32488W        W45902  16.014   6.971   4.585 -0.0741  0.0262  0.0962
32489W        W45903  14.322   3.314   3.439  0.2085 -0.0165 -0.4029
32490W        W45904   6.445   1.885  15.163  0.2320  0.2740  0.3040
32491W        W45905  15.382   6.353  12.288 -0.0389  0.0274 -0.0256
32492W        W45906  16.320   6.705   1.324 -0.0949 -0.1105 -0.4126
32493W        W45907  10.799   6.855   0.600  0.3645  0.2057 -0.0980
32494W        W45908   1.722  12.577  16.050 -0.2133  0.0839 -0.0645
32495W        W45909   9.355   9.286   2.920  0.0792  0.1914 -0.0503
32496W        W45910  16.276  13.456   3.551  0.0736 -0.1665  0.0363
32497W        W45911  15.598   8.497   0.171 -0.0965  0.0873  0.3569
32498W        W45912   8.002   1.474   5.030 -0.1733 -0.1890 -0.0248
32499W        W45913  17.238   5.506   1.694  0.1987  0.0746  0.0650
32500W        W45914   4.871  10.198  16.376 -0.0801 -0.0593  0.1986
32501W        W45915   0.929   9.110   2.433  0.1261 -0.1534 -0.1993
32502W        W45916  16.352  12.737  11.436 -0.0392 -0.0887  0.0576
32503W        W45917  11.507   7.412   6.294 -0.0147 -0.2198  0.2751
32504W        W45918  16.281   8.910  16.032  0.1320  0.1364 -0.1790
32505W        W45919  11.924   7.597   0.209 -0.0255  0.0189 -0.2169
32506W        W45920  13.578   3.813   3.477  0.0244  0.0069 -0.0047
32507W        W45921   8.425  17.177  10.670  0.2779 -0.1786  0.1964
32508W        W45922   1.004   2.451   3.013 -0.0500 -0.4222  0.2060
32509W        W45923   5.419   1.780  15.558 -0.0116  0.2391 -0.1304
32510W        W45924  11.313   0.375  11.505 -0.1410 -0.0405 -0.0633
32511W        W45925  11.280  12.400  11.091  0.0328  0.0034  0.0348
32512W        W45926  10.108  13.554  15.301  0.1716 -0.0643 -0.2664
32513W        W45927  12.838   5.193   4.654  0.0098 -0.2316  0.1884
32514W        W45928  15.236  10.009   1.801 -0.1457  0.0387 -0.2113
32515W        W45929   9.871   5.421  10.700  0.4191 -0.1509  0.1282
32516W        W45930  15.267  16.989  16.396 -0.1651 -0.2472  0.2417
32517W        W45931   9.062  14.006  12.475 -0.3504  0.1996  0.0482
32518W        W45932   8.109  18.072  11.271  0.1907  0.0159  0.0301
32519W        W45933   3.956  15.405   1.639  0.0386  0.0923 -0.1473
32520W        W45934   5.800   1.742   5.190  0.1800 -0.2209 -0.0974
32521W        W45935   4.794  17.343   4.046 -0.0116  0.1731 -0.2832
32522W        W45936  17.204  12.691  11.751 -0.0312 -0.1305 -0.2725
32523W        W45937   9.272   5.645   1.592 -0.2147  0.0967 -0.0721
32524W        W45938   8.502  10.699   5.205 -0.0671  0.2460 -0.2605
32525W        W45939  13.307   7.830   2.977 -0.0148  0.0224 -0.2284
32526W        W45940  13.588   4.000  16.429  0.2806  0.0346  0.0168
32527W        W45941  12.836   8.529  10.775 -0.0678 -0.1017  0.0544
32528W        W45942  15.955  12.135   4.380  0.0946  0.0100 -0.3852
32529W        W45943  17.876  17.302   3.650  0.1809  0.0736 -0.1415
32530W        W45944  15.765  13.254  12.780  0.0794  0.1829  0.0302
32531W        W45945   6.709   6.594   4.742 -0.2504  0.1380  0.1127
32532W        W45946   7.882  13.495   0.379 -0.2513 -0.1766 -0.2216
32533W        W45947   1.187   2.680   0.836  0.1873  0.0786 -0.2113
32534W        W45948   6.242   6.746  16.250 -0.0582  0.1544 -0.0957
32535W        W45949   3.669   3.171   4.030  0.2074  0.0269 -0.1293
32536W        W45950   7.011  10.511   5.502  0.1646 -0.0753  0.2622
32537W        W45951  10.865   3.635  14.601  0.3714  0.5503 -0.0846
32538W        W45952   1.016  12.398  11.062 -0.2508  0.0815  0.1573
32539W        W45953  12.908  12.482   3.136  0.1370 -0.0664 -0.1704
32540W        W45954  11.460   1.182  13.632  0.2599 -0.1643  0.1184
32541W        W45955   3.351  14.878   4.674 -0.2019  0.0433 -0.3270
32542W        W45956   5.894   5.473  11.590  0.1117  0.2946  0.0137
32543W        W45957  11.729   7.352  11.574  0.0505  0.0133  0.1411
32544W        W45958   7.956   3.570   3.210  0.1100  0.3009 -0.0043
32545W        W45959  14.458   6.369   2.240 -0.3152  0.0630  0.3274
32546W        W45960   1.802   0.364   2.905 -0.1324 -0.0231  0.1053
32547W        W45961   9.070   0.971  15.092  0.0443 -0.2418 -0.2778
32548W        W45962   4.028   8.314  15.686 -0.0972  0.0858  0.2743
32549W        W45963  15.997   9.288  13.878 -0.1557 -0.1130  0.1247
32550W        W45964   2.264  14.413   0.950  0.2657 -0.0991 -0.3298
32551W        W45965  11.713   1.279  12.583 -0.1250  0.0282 -0.0501
32552W        W45966   0.635   9.090  15.973  0.0391 -0.1553  0.1744
32553W        W45967  15.633  11.566   0.506 -0.2600  0.0503 -0.1861
32554W        W45968   2.979  15.584  15.529 -0.1716 -0.1224 -0.0776
32555W        W45969   1.710  16.856   1.340  0.2888  0.1076 -0.3445
32556W        W45970   2.088   6.631   9.755 -0.1100 -0.3132 -0.0432
32557W        W45971  15.821  13.589  15.981 -0.1864 -0.0030 -0.0932
32558W        W45972   8.715  13.664   5.152 -0.1749  0.1308  0.1146
32559W        W45973   2.554  17.042  14.933  0.1369  0.0894 -0.0155
32560W        W45974   9.943  16.738   3.935  0.0443  0.1694  0.1570
32561W        W45975   7.776  12.195  14.678  0.0468 -0.1946  0.2886
32562W        W45976  14.994   6.247   0.300 -0.2408  0.1695  0.1602
32563W        W45977   9.867   9.891  13.899  0.2884 -0.1246 -0.0813
32564W        W45978  18.099  18.126   2.547 -0.1127 -0.1451 -0.1360
32565W        W45979   9.157  11.550   0.452 -0.0409  0.2037 -0.2247
32566W        W45980   6.506  10.970   1.298 -0.0735 -0.0897 -0.1253
32567W        W45981   3.137   5.808  12.427  0.1125  0.2691 -0.2362
32568W        W45982   1.355   7.406  10.652 -0.0859  0.0493  0.1750
32569W        W45983  13.222   2.888  12.492 -0.1259 -0.4137 -0.1998
32570W        W45984  17.013   6.410   0.062  0.3210 -0.0868  0.1564
32571W        W45985  17.750   5.655   0.883  0.1921 -0.2315 -0.2209
32572W        W45986   3.286   2.853   0.642 -0.0277  0.1900  0.1594
32573W        W45987   6.321   9.721   2.107  0.1445  0.1681 -0.0172
32574W        W45988  16.506  12.310   4.208 -0.0412  0.0934  0.2138
32575W        W45989   8.202   8.382   2.742  0.0486  0.1453  0.1964
32576W        W45990   9.692   5.584   2.839  0.3060  0.1753 -0.4582
32577W        W45991   6.604  18.078   5.387 -0.0326  0.0714  0.0485
32578W        W45992  14.604   7.413  15.537 -0.0954 -0.2080  0.2780
32579W        W45993  11.383  17.821   5.622 -0.4967 -0.2723 -0.0372
32580W        W45994  17.673   3.640  14.239 -0.0153 -0.4139 -0.1084
32581W        W45995  11.430  12.460  10.563  0.1870 -0.0100  0.1033
32582W        W45996  17.078   1.957   5.403  0.0165  0.0335 -0.0286
32583W        W45997  18.031   4.523  11.493  0.1862  0.1453  0.0731
32584W        W45998   9.137   1.007   4.911  0.1344 -0.1532  0.1498
32585W        W45999   3.686   3.474  10.726 -0.1282 -0.1758 -0.1145
32586W        W46000   0.238  12.161  15.790 -0.4695 -0.1203 -0.4891
32587W        W46001  15.580   1.047   5.966 -0.0353 -0.0645 -0.2333
32588W        W46002  16.797  17.718  12.673  0.1273 -0.0226 -0.0067
32589W        W46003   8.193   4.597   1.462 -0.0619  0.1569  0.1152
32590W        W46004   4.907   3.854  15.815  0.4224 -0.2024 -0.2498
32591W        W46005   4.581   1.049  13.726  0.1477  0.0914  0.0461
32592W        W46006  11.884   6.230  14.495  0.4458  0.2100  0.1950
32593W        W46007  15.828  16.035   4.840 -0.0633  0.1584 -0.0336
32594W        W46008   3.182   8.981   5.803  0.1576  0.1902 -0.0981
32595W        W46009   4.622   0.131  16.188  0.0169  0.1101 -0.2227
32596W        W46010   2.082   8.367   5.828 -0.1686 -0.3271 -0.2072
32597W        W46011  12.841   9.081   5.280 -0.0719  0.0122  0.1929
32598W        W46012   4.861  16.695  16.066  0.3616  0.1296 -0.0811
32599W        W46013  17.633  11.568   1.904  0.1977  0.0306  0.1579
32600W        W46014  11.889   4.984   6.246 -0.0414  0.2288  0.0874
32601W        W46015   0.616  10.150   0.164  0.1806  0.1354 -0.1731
32602W        W46016  16.420  10.533  12.987 -0.1100  0.2435  0.2327
32603W        W46017  10.670  12.648   2.121  0.1836  0.0148 -0.0215
32604W        W46018  10.522  17.358   2.266 -0.0538  0.3075 -0.0790
32605W        W46019   6.500  16.687   3.287  0.2796 -0.1957  0.2319
32606W        W46020  15.322   5.261   4.989 -0.1276  0.2234 -0.3086
32607W        W46021   9.249   0.945   4.324 -0.3473  0.1381  0.0311
32608W        W46022   3.115  11.815   1.042  0.1517 -0.2850  0.5241
32609W        W46023  16.895   2.715   1.995 -0.2214  0.0658 -0.3392
32610W        W46024   8.837  17.587  16.062  0.0760  0.0000 -0.0340
32611W        W46025   8.774  11.654   4.119  0.0324 -0.3381  0.2329
32612W        W46026   7.834   0.967   0.333 -0.1201 -0.0435  0.1097
32613W        W46027  17.201  15.617  15.410 -0.0631 -0.2133 -0.1000
32614W        W46028   2.148  15.329   4.993  0.0411  0.1916 -0.0136
32615W        W46029  14.097   7.881   3.807 -0.0442 -0.0956 -0.1602
32616W        W46030   9.904   8.364  14.318  0.0788 -0.1457 -0.3489
32617W        W46031  17.510   9.035   1.062 -0.0395  0.1889  0.2720
32618W        W46032   4.310  16.786   4.757  0.1324 -0.1202 -0.2067
32619W        W46033  18.216   1.680   4.407  0.1502 -0.0889  0.0574
32620W        W46034  11.361  13.501   5.897 -0.2332  0.1845 -0.1850
32621W        W46035   3.548  10.964  12.823  0.0332 -0.0287  0.1133
32622W        W46036  15.520  17.030   6.306  0.3633 -0.0329  0.2291
32623W        W46037   8.797   0.826   1.393 -0.1952  0.1339  0.0215
32624W        W46038  10.099  10.122  14.759  0.0107 -0.2347 -0.3605
32625W        W46039  10.328  14.461   5.409  0.1643 -0.0560  0.0419
32626W        W46040   7.232   3.799  16.129 -0.2815  0.0327 -0.1658
32627W        W46041   4.114  13.377  15.271 -0.0987  0.0046 -0.0348
32628W        W46042  17.683  13.968  11.897 -0.0609  0.2267 -0.0230
32629W        W46043  15.391   6.704  11.499 -0.1799 -0.0414  0.2040
32630W        W46044  11.702   9.343   3.822 -0.0749  0.3638  0.2273
32631W        W46045  17.851  10.841   3.006  0.0396  0.1747 -0.0313
32632W        W46046  11.680   5.407  10.946 -0.1653 -0.0968 -0.1746
32633W        W46047  11.249  12.069  12.868  0.1387 -0.0931 -0.5034
32634W        W46048  14.179   2.307   4.285  0.0573  0.0938  0.0853
32635W        W46049  16.821  16.458   3.848  0.0500 -0.0701 -0.2086
32636W        W46050   3.503   0.269   4.252  0.3976  0.3168 -0.0654
32637W        W46051  10.361  15.093   4.308 -0.0757 -0.1990 -0.0350
32638W        W46052  16.077   1.802  12.157  0.2588  0.0332 -0.1337
32639W        W46053   4.131  10.090   4.152 -0.1011  0.0465  0.2098
32640W        W46054   9.776  17.981  12.244 -0.0837 -0.0444  0.1306
32641W        W46055  13.528   0.994   3.095 -0.0159 -0.1919 -0.0883
32642W        W46056   7.170   3.440   1.380 -0.1140  0.1985 -0.1116
32643W        W46057   1.931  12.317  13.791 -0.0684 -0.0360  0.0393
32644W        W46058   5.774   9.637  13.119 -0.0031 -0.2608 -0.1150
32645W        W46059  14.750   0.229   0.284  0.0720  0.3008 -0.1042
32646W        W46060   7.119   7.563   1.609 -0.1641  0.1830 -0.2202
32647W        W46061  10.714  10.494  15.829  0.1443  0.0409  0.0011
32648W        W46062   2.110  12.163   4.050  0.0637 -0.1281 -0.0084
32649W        W46063   6.984   8.929  12.856  0.1585  0.2141 -0.3040
32650W        W46064   5.218  16.836   0.821  0.1944 -0.0200  0.1358
32651W        W46065  17.089  14.737   5.723  0.2574 -0.0427  0.2657
32652W        W46066   0.700   5.303   2.481 -0.0158 -0.0526 -0.0292
32653W        W46067  18.065  16.801   1.441  0.0988  0.2709 -0.3359
32654W        W46068  15.793  17.236  14.552  0.1852  0.3001 -0.5228
32655W        W46069  14.909  17.477   4.408  0.2434  0.2876  0.2324
32656W        W46070  10.896   0.361  14.618  0.5604 -0.0127 -0.1622
32657W        W46071   4.801   8.319   4.152 -0.1163 -0.1306 -0.2496
32658W        W46072   9.322   0.097   0.661 -0.0330 -0.1741  0.2072
32659W        W46073   1.511   8.978   6.153 -0.5353  0.2926 -0.2257
32660W        W46074   7.398  12.058   1.264 -0.0890  0.2231 -0.1937
32661W        W46075  12.017   5.482  15.663 -0.0429  0.2775 -0.2330
32662W        W46076   4.347  18.073   5.285  0.2198  0.1692 -0.3175
32663W        W46077   1.641  14.793   3.430 -0.2229  0.0830 -0.0630
32664W        W46078   7.454   2.957   1.919 -0.0060  0.3351  0.1125
32665W        W46079  14.262   2.374   4.796 -0.1570  0.0062  0.4258
32666W        W46080   6.859   2.124  10.812 -0.1672 -0.1130  0.0893
32667W        W46081   0.850  11.494  13.862 -0.2863  0.0927  0.0739
32668W        W46082   8.211   2.915  14.451  0.3044 -0.1211  0.1835
32669W        W46083  16.512  13.267  11.439  0.3534  0.1022  0.0466
32670W        W46084  15.491  14.616   4.372 -0.0019  0.2508 -0.1639
32671W        W46085  17.025   1.114  13.187  0.3545 -0.0093 -0.0117
32672W        W46086   1.860   8.307   4.147 -0.0802 -0.0821 -0.0937
32673W        W46087   2.146  15.262  13.536  0.1942  0.1823 -0.0036
32674W        W46088  14.121  14.372   1.371  0.2016  0.1985  0.1356
32675W        W46089  11.402  11.846  11.280  0.1035 -0.1154 -0.1379
32676W        W46090   0.929  15.964  11.395 -0.1248 -0.2369  0.2808
32677W        W46091   0.594   4.193  15.821 -0.0239 -0.2400 -0.0322
32678W        W46092  10.868  11.826  12.416  0.0161 -0.1768 -0.0528
32679W        W46093   1.741  16.428   2.635 -0.3273 -0.2067  0.0113
32680W        W46094  11.020   7.990   5.361  0.3352 -0.0715  0.0948
32681W        W46095   0.599   1.057  14.681  0.2038 -0.0181 -0.1218
32682W        W46096   3.611   4.236  14.110 -0.0291 -0.1468 -0.0598
32683W        W46097   5.801  14.964  12.882  0.0850 -0.2722 -0.2603
32684W        W46098  12.277   9.897  14.988  0.0030  0.2402  0.1347
32685W        W46099  11.445  16.262  15.890  0.2679  0.2303  0.0946
32686W        W46100  11.345   5.964   2.505 -0.1412 -0.0825 -0.0543
32687W        W46101  16.409   6.362  14.102  0.2217 -0.0657  0.0232
32688W        W46102   2.284   1.030   0.076 -0.1144  0.1447  0.1462
32689W        W46103   8.920  12.090  11.379 -0.0785  0.0554 -0.4692
32690W        W46104  11.988  14.133  12.599  0.3015 -0.0019  0.3095
32691W        W46105  17.248  11.585  15.419  0.1839  0.0638 -0.1411
32692W        W46106  15.698  15.571  15.825  0.2752 -0.3248  0.2943
32693W        W46107  10.020   3.238  14.042 -0.0265  0.1818 -0.1030
32694W        W46108  13.892   9.801  15.599  0.0564 -0.0404 -0.3420
32695W        W46109   5.784  12.449  11.666  0.1700  0.1458  0.1941
32696W        W46110  14.741   2.881   2.230  0.0024 -0.0600  0.0831
32697W        W46111   5.764  13.085   2.284 -0.0480  0.0037  0.2528
32698W        W46112   9.035   8.673   2.623 -0.1614 -0.3718 -0.0835
32699W        W46113  13.540   4.535  16.497 -0.1927 -0.1606 -0.0142
32700W        W46114   3.305   9.671   1.583 -0.2638  0.6128  0.0032
32701W        W46115  12.462   3.277  14.155 -0.0558 -0.1256  0.1560
32702W        W46116  14.788  12.188  13.039  0.2034 -0.1719 -0.0817
32703W        W46117  17.316   9.026   4.246 -0.1166 -0.1615  0.1832
32704W        W46118   2.186  17.136   3.784  0.1270 -0.3321 -0.0705
32705W        W46119  16.704   8.760   1.227 -0.0965  0.0638 -0.2242
32706W        W46120  17.068   8.884   0.158 -0.1267  0.1058 -0.2530
32707W        W46121   7.824  16.188   4.181  0.0894 -0.2571  0.1511
32708W        W46122  12.089   7.455   2.027  0.1872 -0.1480 -0.1402
32709W        W46123   3.643  11.361   0.413  0.5105  0.0600 -0.1938
32710W        W46124   9.545   8.958   3.380  0.0626  0.2059  0.2768
32711W        W46125   9.863   2.396  11.958 -0.2466  0.1652  0.0464
32712W        W46126   6.779   8.531  14.398 -0.0971 -0.1438 -0.0023
32713W        W46127  15.348  15.265  10.909 -0.0128 -0.0875 -0.1209
32714W        W46128  16.728   9.441   5.951 -0.0602 -0.2964 -0.0615
32715W        W46129  12.158  14.119  13.258  0.1970 -0.2520  0.1774
32716W        W46130  17.245   6.583  16.194 -0.2455 -0.1711 -0.0187
32717W        W46131   6.678   9.038  14.190  0.0683  0.0845  0.0692
32718W        W46132   3.265   6.214   4.607  0.2603  0.3364 -0.5020
32719W        W46133  12.865   9.882   5.146 -0.1782 -0.0474 -0.0207
32720W        W46134  16.667   8.943  14.585  0.1589 -0.1087  0.0306
32721W        W46135  16.919  10.914   3.782  0.2296 -0.0828  0.2119
32722W        W46136   0.835   5.594  14.613 -0.0068  0.0802 -0.2616
32723W        W46137   9.528   7.661  13.183  0.1647  0.1453 -0.0777
32724W        W46138  15.587  10.310   3.494  0.1288 -0.1113  0.0517
32725W        W46139  10.861   1.195  11.690 -0.0842 -0.1077 -0.2081
32726W        W46140   5.306   6.599  11.973  0.3095  0.2324  0.2422
32727W        W46141  12.584   7.603  11.598 -0.3510 -0.4659 -0.0141
32728W        W46142   2.493   7.303   1.516 -0.0369  0.1111  0.1099
32729W        W46143   7.084  12.093  10.399  0.2655 -0.0804  0.1244
32730W        W46144   6.512   4.711  14.222 -0.1234 -0.1539 -0.0766
32731W        W46145   9.182   4.449  15.809 -0.1333 -0.1233  0.0735
32732W        W46146  14.587   8.209   2.343 -0.1116  0.3146 -0.0061
32733W        W46147  10.732  10.507  14.999 -0.0914  0.1389 -0.0739
32734W        W46148   4.838   8.713   4.462 -0.0204  0.2292 -0.1248
32735W        W46149   7.524  16.399   0.725  0.1976 -0.0142  0.1333
32736W        W46150  14.689   4.951   4.798  0.0617  0.1169 -0.1619
32737W        W46151   9.734   8.133  15.932 -0.2610  0.0282  0.2205
32738W        W46152  17.476   1.367   5.159 -0.0852 -0.0881 -0.0779
32739W        W46153  15.937   8.554  16.340  0.0359 -0.1538 -0.1339
32740W        W46154   2.767   4.011  12.942  0.4600  0.1628  0.1531
32741W        W46155  13.151  14.523   6.766 -0.2588 -0.0735  0.0149
32742W        W46156  14.140  16.525  11.765 -0.1080 -0.2383  0.3126
32743W        W46157  15.946   1.175   3.165  0.2725  0.1720  0.0661
32744W        W46158   0.198  15.583  13.021  0.1135 -0.0646  0.2072
32745W        W46159   8.619   1.816   6.821  0.0993  0.4201  0.1073
32746W        W46160  10.890   3.167   2.985  0.0140 -0.2145  0.0635
32747W        W46161   1.074  10.417   4.650  0.0496 -0.0360 -0.3615
32748W        W46162   0.682  12.374   2.709 -0.2258 -0.0119 -0.1310
32749W        W46163  15.921  12.948  11.819  0.0388  0.2001 -0.0745
32750W        W46164   7.167   4.966  12.984 -0.3104 -0.0388 -0.2134
32751W        W46165   4.436  17.544   2.696 -0.0766 -0.1148 -0.2712
32752W        W46166   4.280   7.764   0.627 -0.1128  0.0849 -0.0745
32753W        W46167  12.313   4.271  13.722  0.0012  0.1061  0.2011
32754W        W46168  13.510  16.297   2.777  0.1064 -0.1908  0.0544
32755W        W46169   6.203   1.818  14.556 -0.1915  0.1203 -0.1467
32756W        W46170  15.096   0.152   2.921  0.1450 -0.1874  0.1235
32757W        W46171   8.034  17.622  14.711  0.1948  0.0712  0.2342
32758W        W46172   3.947  16.108   0.681 -0.1400  0.1208  0.2989
32759W        W46173  16.810  18.132   3.551  0.1222  0.0548 -0.1215
32760W        W46174   6.424  14.447   2.366  0.1252  0.0665  0.0636
32761W        W46175   1.796   9.471   4.707 -0.0289  0.1080  0.1534
32762W        W46176  16.595  13.598  12.653  0.0914 -0.1342 -0.1946
32763W        W46177   2.461   5.508  15.861 -0.2337  0.0142  0.2784
32764W        W46178   3.871  16.093  11.886  0.0538  0.2801  0.1236
32765W        W46179  10.970   5.357   5.506  0.0997 -0.0851 -0.0923
32766W        W46180   0.493  13.319   3.053 -0.4012  0.0236 -0.4306
32767W        W46181  10.898   0.619  15.978 -0.0776 -0.2711  0.2071
32768W        W46182   5.472  11.196   3.978 -0.4364 -0.1181 -0.1172
32769W        W46183   5.436  13.028  14.613 -0.4016  0.1344 -0.2139
32770W        W46184  10.684   3.092   2.532 -0.0544  0.0659  0.0511
32771W        W46185   6.181  16.545   0.331 -0.3043  0.3347 -0.1902
32772W        W46186   5.320   5.944   1.644  0.0070 -0.1509  0.1271
32773W        W46187   3.270   8.014  13.040 -0.2666 -0.3300  0.0059
32774W        W46188   4.457  13.883  14.725  0.0443 -0.0028  0.1354
32775W        W46189   5.178  14.560   5.162  0.2039  0.2610 -0.1618
32776W        W46190   7.370  15.503  15.445 -0.0270  0.1158 -0.1360
32777W        W46191  12.153   7.072   4.587 -0.0417  0.0057 -0.0779
32778W        W46192  17.388  16.325   4.521  0.2537  0.0619  0.5212
32779W        W46193  16.442   4.249  10.216 -0.2696 -0.1429 -0.2621
32780W        W46194   5.639   5.870   0.166  0.2204  0.0209 -0.0339
32781W        W46195   4.627   1.681   6.222 -0.0926 -0.3570  0.0179
32782W        W46196  16.078  14.414  13.128  0.0160 -0.1311  0.1345
32783W        W46197  14.191   5.259   4.875  0.3117  0.0159 -0.2724
32784W        W46198   7.321  16.967  15.707  0.0420 -0.2616  0.2244
32785W        W46199  13.261   4.762  15.155  0.1509 -0.0550 -0.2193
32786W        W46200  18.014  13.716  15.315 -0.3664 -0.0976 -0.1556
32787W        W46201  16.837  11.924   3.782  0.0685  0.1181  0.0894
32788W        W46202  12.489  14.381   0.894  0.0271  0.2338  0.1231
32789W        W46203   5.284  11.600  15.235  0.3222  0.2137  0.3147
32790W        W46204  12.826  13.363  11.385 -0.1528 -0.1739 -0.2727
32791W        W46205  11.611  17.456  10.635 -0.0195  0.1118  0.3990
32792W        W46206   7.079  14.863  15.949 -0.2812  0.1488  0.0470
32793W        W46207  13.470   4.225   1.723 -0.2917  0.0151 -0.1082
32794W        W46208   5.679   4.117   1.754  0.1414  0.0588 -0.2154
32795W        W46209  18.226   4.727   5.439 -0.2105 -0.0681  0.0137
32796W        W46210   3.257  15.126   5.204 -0.0627 -0.1204  0.1214
32797W        W46211   0.093  12.032  13.357  0.0606  0.5714 -0.3044
32798W        W46212  13.074   4.105   1.294 -0.1869  0.2323 -0.1026
32799W        W46213  10.739  13.240  11.247 -0.0731  0.1779  0.2799
32800W        W46214  14.883  13.609   0.316 -0.1075 -0.0606  0.3612
32801W        W46215  13.199  16.774  14.313  0.1177  0.1364 -0.1408
32802W        W46216   0.656  17.235  13.910 -0.2559  0.0546  0.1806
32803W        W46217   1.242   6.693  10.012 -0.2260 -0.3254  0.1056
32804W        W46218  13.529   4.239   0.320  0.1248  0.1651  0.2641
32805W        W46219  14.788   9.363  16.007 -0.2122 -0.0136  0.0608
32806W        W46220   0.729   5.003  12.116  0.0232 -0.2325  0.0828
32807W        W46221   1.189   6.786   9.486  0.0580 -0.2548 -0.1449
32808W        W46222  11.766  10.597   4.775  0.2315  0.0841  0.1942
32809W        W46223  12.107  10.054  16.378 -0.1986  0.1130 -0.1671
32810W        W46224   2.315   4.101   3.624 -0.0226  0.2221  0.1515
32811W        W46225   4.287  16.339  14.661 -0.1005 -0.2656  0.1269
32812W        W46226  12.611  12.478  13.935 -0.1990 -0.3742  0.0183
32813W        W46227   0.558   9.628   5.316  0.1079 -0.1300  0.1333
32814W        W46228   6.549  14.506  13.605 -0.0609 -0.0912 -0.0638
32815W        W46229   5.002   4.067   5.705  0.1123 -0.3461  0.0328
32816W        W46230   4.334  14.684  15.432  0.0270  0.2031  0.1726
32817W        W46231   1.348  13.828  13.428  0.0803 -0.0618 -0.0219
32818W        W46232   6.809  14.869  10.312 -0.2732 -0.1727  0.2553
32819W        W46233   0.140  16.061  15.871 -0.0670  0.2184  0.0026
32820W        W46234  11.627  16.567   5.905 -0.2223  0.1850  0.1663
32821W        W46235   0.023   1.193  11.821 -0.2277 -0.1837 -0.1299
32822W        W46236  11.269   5.707   2.919 -0.0817  0.0874 -0.1461
32823W        W46237  11.173   8.578   3.699 -0.2252 -0.0503  0.0478
32824W        W46238  10.537  11.195  13.537 -0.0310  0.2512 -0.1286
32825W        W46239  12.790   1.975   4.777  0.1534 -0.0532 -0.0681
32826W        W46240  12.112  13.839   1.600  0.0287 -0.1072  0.0646
32827W        W46241   7.615  12.316  11.133 -0.1665 -0.1732  0.1174
32828W        W46242   3.692   1.029  11.810 -0.1598  0.1061  0.0642
32829W        W46243  16.837  12.921   0.323 -0.1271  0.1904  0.0991
32830W        W46244   7.317  13.911   0.249  0.0387 -0.0358  0.3909
32831W        W46245   6.179  11.294   1.495 -0.1034  0.2097  0.0705
32832W        W46246   9.277  15.317   5.250 -0.4430  0.1021 -0.0926
32833W        W46247  11.685  16.349  11.365  0.1220 -0.1193 -0.1853
32834W        W46248   1.916   5.923   3.533 -0.1787 -0.2939  0.0819
32835W        W46249   5.710   8.163  15.869 -0.0957  0.0943  0.0428
32836W        W46250  11.447   2.953   4.337  0.0214  0.1135  0.2089
32837W        W46251   8.554  17.002   0.457  0.0692  0.0166  0.0240
32838W        W46252   1.847   2.660   2.130 -0.0230 -0.0837  0.0535
32839W        W46253   7.122  12.159   2.940  0.0371  0.3332 -0.1065
32840W        W46254  17.038   4.873   0.821 -0.1366  0.2374 -0.1364
32841W        W46255   3.131  16.089   6.127 -0.0638 -0.0977 -0.1622
32842W        W46256   8.051   8.715   2.067  0.0589 -0.2686  0.0160
32843W        W46257  14.706   5.837   5.478  0.0779  0.0835 -0.0546
32844W        W46258  14.181  15.406   4.856  0.0333 -0.0772 -0.2458
32845W        W46259  15.734  10.125  15.677  0.0780  0.1211 -0.0966
32846W        W46260  17.997   3.657   3.789  0.1137 -0.0648 -0.1326
32847W        W46261   4.006  12.861  15.300  0.0306 -0.0050  0.0322
32848W        W46262  12.282   2.619   2.611 -0.0979 -0.0552 -0.0237
32849W        W46263   6.765   1.858   2.983  0.1496 -0.0211  0.0803
32850W        W46264   4.605   2.106   3.844 -0.1202 -0.0808  0.2355
32851W        W46265   0.085   1.876  14.337 -0.1583 -0.1875  0.1613
32852W        W46266  18.185   3.939  12.851 -0.0940 -0.0203 -0.0795
32853W        W46267   7.630  15.223   0.357 -0.1505 -0.1043 -0.3378
32854W        W46268  17.989  18.163  10.238  0.0962 -0.1664  0.2317
32855W        W46269   5.373  10.929  13.366  0.0370 -0.0513 -0.4259
32856W        W46270  11.681  15.814   6.699  0.0324 -0.1109 -0.1499
32857W        W46271   3.751  17.337  11.209 -0.0715  0.2956 -0.1820
32858W        W46272   7.735   3.239   0.788 -0.0222 -0.4755  0.0302
32859W        W46273   7.126   2.917   3.620 -0.2033 -0.0135  0.1719
32860W        W46274  10.397  13.464  12.791  0.3217  0.3455  0.0109
32861W        W46275  10.201  13.015  15.239  0.3964  0.3250  0.1345
32862W        W46276  18.029  12.339  15.449 -0.0004 -0.1039 -0.0817
32863W        W46277   3.577   5.806   2.175 -0.1036 -0.0239 -0.2522
32864W        W46278  11.671   2.464   5.021  0.1830  0.3005 -0.0299
32865W        W46279   4.821   9.715  10.385  0.2320 -0.0095  0.0594
32866W        W46280  15.050  11.066   3.820  0.1610 -0.0753  0.0683
32867W        W46281   7.333  16.528  11.304 -0.3551  0.0569 -0.0579
32868W        W46282   9.046  16.801  15.834  0.1497  0.0307 -0.0147
32869W        W46283  12.861   7.604   4.074 -0.0165 -0.3233 -0.0391
32870W        W46284  16.460  16.806   4.214 -0.2173  0.0396  0.0757
32871W        W46285   1.211   4.352  12.156 -0.3251 -0.1414 -0.3753
32872W        W46286   7.337   8.761   1.925  0.0631  0.1762  0.0558
32873W        W46287   7.253   3.159  11.832  0.1616  0.0722 -0.0880
32874W        W46288  12.502  16.815   2.195 -0.0244 -0.2284  0.0064
32875W        W46289   7.060   4.174  15.744 -0.2535 -0.1118 -0.0945
32876W        W46290   1.943  15.029  13.968 -0.1615 -0.1471  0.2129
32877W        W46291   2.032   5.216   1.976 -0.2801 -0.0162 -0.1077
32878W        W46292  16.479   8.358   4.465  0.0707  0.1365 -0.2858
32879W        W46293   2.963   4.433   0.517 -0.0511  0.1772 -0.1178
32880W        W46294  11.505  16.445   6.838  0.0206  0.1065  0.0432
32881W        W46295  12.993  15.131  15.061 -0.1428  0.1626  0.3611
32882W        W46296   5.300   2.355  13.169 -0.0977 -0.3148  0.0611
32883W        W46297   5.368  13.436   5.856  0.4772  0.2724  0.1220
32884W        W46298   2.220   0.680   1.078  0.3097  0.0949  0.0980
32885W        W46299   4.577   3.933   4.036 -0.1187 -0.1228 -0.2295
32886W        W46300   2.739   1.781  12.752  0.0223  0.0645  0.2762
32887W        W46301  12.203  16.002   5.395  0.1170 -0.0444 -0.1706
32888W        W46302  11.909   1.475  11.719  0.1820 -0.0613 -0.1193
32889W        W46303  13.016   9.568  13.319 -0.2943  0.1030  0.1043
32890W        W46304   5.829   2.443  16.237 -0.1119 -0.4328  0.0939
32891W        W46305   6.936  13.973   2.829  0.1976  0.5490  0.3591
32892W        W46306   2.272   1.886   2.515 -0.0464 -0.2163 -0.0567
32893W        W46307  12.793  10.746   1.208  0.0142  0.0174 -0.2038
32894W        W46308   5.264   7.905  15.994  0.2182 -0.2268 -0.1775
32895W        W46309  16.307  11.633   3.557  0.0228  0.1218  0.1624
32896W        W46310   7.230  12.576  16.246 -0.1786 -0.2846 -0.0285
32897W        W46311   0.119  13.760  13.057  0.1106  0.2043  0.0635
32898W        W46312  15.828  10.319   4.378 -0.0908  0.0048 -0.2695
32899W        W46313   7.785   1.906   6.141 -0.1201  0.1529  0.2104
32900W        W46314   0.924   3.115   5.402 -0.1115  0.1042 -0.1097
32901W        W46315   7.813  11.935  16.548 -0.0131 -0.1222 -0.1727
32902W        W46316  15.323   7.114   4.464 -0.1031  0.0407 -0.0230
32903W        W46317  17.827  12.910   2.119 -0.0800  0.0085 -0.2599
32904W        W46318  10.796  15.094  15.924  0.2135  0.0983 -0.1298
32905W        W46319   4.116  17.061   0.797 -0.0652  0.0655  0.1532
32906W        W46320   3.743   4.500  12.662  0.2812 -0.2358  0.0421
32907W        W46321   8.045   8.055  11.414 -0.1228 -0.1655 -0.2234
32908W        W46322   4.993   7.827  10.978 -0.1410  0.1348  0.2963
32909W        W46323  12.587   4.562  15.619  0.2716 -0.2450 -0.0924
32910W        W46324  12.029   3.401  13.861  0.0594  0.1564  0.0431
32911W        W46325   6.939   0.766   0.104 -0.1356 -0.2508  0.2067
32912W        W46326   6.481  12.382  15.262  0.0056  0.2073  0.2326
32913W        W46327  12.509  12.381  10.492  0.2479 -0.2577 -0.1222
32914W        W46328   9.629  16.416  15.403 -0.0181 -0.2777  0.0189
32915W        W46329   3.748   0.820   0.252  0.0363  0.2634 -0.0568
32916W        W46330  14.402   1.388  15.722 -0.0886 -0.0000 -0.3801
32917W        W46331   1.967  14.011   5.420  0.3101 -0.1810  0.0219
32918W        W46332  15.013  17.232   3.972  0.2622 -0.0405  0.1145
32919W        W46333  12.567  16.452   1.834  0.1456 -0.2944 -0.2027
32920W        W46334  10.838  14.084   0.146 -0.0963 -0.1571  0.1382
32921W        W46335  16.213  14.964   3.598  0.1955  0.0735  0.4311
32922W        W46336   2.615   8.329   0.821  0.0074 -0.0768 -0.1570
32923W        W46337   6.183  10.161  16.306  0.0686 -0.3132  0.4521
32924W        W46338   2.699  16.342   5.266 -0.1127 -0.0088  0.0168
32925W        W46339  17.129  14.494   3.920 -0.0632 -0.1614 -0.2238
32926W        W46340   3.214   8.810   4.224  0.1758  0.2270  0.0540
32927W        W46341  10.170   2.101   0.312  0.0041 -0.0817 -0.0573
32928W        W46342   3.113  16.834  14.978 -0.2722  0.1367  0.0648
32929W        W46343  10.704   7.087  13.037  0.1756 -0.0150 -0.1625
32930W        W46344   2.793  14.798   5.328  0.2794 -0.0096  0.2059
32931W        W46345   5.178   2.392   4.835 -0.2696 -0.1150  0.1776
32932W        W46346   4.924  10.174   3.878  0.1403 -0.1251 -0.0569
32933W        W46347  10.526  13.760   0.549 -0.2159  0.0842  0.1218
32934W        W46348   2.134  13.477   2.533  0.0456  0.1424 -0.1219
32935W        W46349   8.826  14.356  13.189 -0.1075  0.0109 -0.1647
32936W        W46350   5.114   7.569  12.983  0.0600 -0.0944  0.0389
32937W        W46351   8.115   2.631   5.806  0.0383  0.1795 -0.0650
32938W        W46352  16.225   7.293   0.486  0.1567 -0.0978 -0.4213
32939W        W46353  16.190   8.388  15.063  0.0211  0.0315  0.1091
32940W        W46354  10.059   3.502   5.511 -0.2711  0.0038  0.3247
32941W        W46355   4.019  15.717   5.005 -0.0124 -0.2795  0.4195
32942W        W46356   0.259  10.884  13.640 -0.0086 -0.2080  0.0336
32943W        W46357   7.853  16.870   3.094 -0.0728  0.0051 -0.0525
32944W        W46358  14.491   4.664   2.439 -0.1735  0.1607  0.1366
32945W        W46359  16.920  14.205  13.588  0.0142 -0.2910 -0.1017
32946W        W46360   0.517   2.933   0.903 -0.2447  0.0656 -0.0440
32947W        W46361   0.238   4.755  12.037  0.0384  0.0890  0.0373
32948W        W46362  10.651   5.004   6.274 -0.1954  0.3110 -0.2201
32949W        W46363  10.032   5.288   3.159  0.1813 -0.0320  0.3019
32950W        W46364   3.894   0.155   0.969  0.1809  0.0729  0.1283
32951W        W46365  14.809   3.554   0.375 -0.1862 -0.0154 -0.0399
32952W        W46366  14.140  16.494  13.187 -0.2077 -0.0705 -0.1043
32953W        W46367   1.218   8.833  13.222  0.0032  0.0180  0.0210
32954W        W46368   5.602   7.774  15.641  0.1569  0.2857  0.2771
32955W        W46369  16.906  10.503   4.955 -0.0214  0.2324  0.1537
32956W        W46370   6.481  16.101  13.460  0.2932 -0.0201 -0.0381
32957W        W46371  17.948   8.667   1.929 -0.1344  0.1049 -0.1992
32958W        W46372  12.541  11.200  13.688  0.1538  0.0458 -0.2092
32959W        W46373  13.839  11.582  10.760 -0.1143  0.0784  0.0154
32960W        W46374   5.435   1.738  16.483  0.4781 -0.2083  0.3027
32961W        W46375  14.623  16.019   3.375  0.0870 -0.1724 -0.3077
32962W        W46376   6.103  17.582  13.107  0.0015  0.0314 -0.0115
32963W        W46377  13.598   3.380   5.532 -0.1984  0.0754 -0.2125
32964W        W46378   9.637  13.466   0.787  0.2361 -0.0331 -0.0908
32965W        W46379   9.197   4.551   0.902  0.0732 -0.0202  0.0424
32966W        W46380  16.705  13.641  15.749 -0.2434  0.0413 -0.1832
32967W        W46381   6.278  12.005   4.430 -0.0324 -0.0880 -0.0374
32968W        W46382  10.337  16.436   4.072  0.0668  0.2622 -0.1757
32969W        W46383   1.707   3.779  15.610 -0.0686 -0.1070 -0.0924
32970W        W46384   7.522   1.278  12.420  0.2220 -0.1266 -0.0843
32971W        W46385  13.059   6.055  13.232 -0.1730  0.1013  0.0155
32972W        W46386   4.297   9.494   3.855  0.1897  0.3513 -0.2081
32973W        W46387   9.601  11.187  13.900 -0.0989  0.1450  0.2359
32974W        W46388   7.703   1.336   6.063 -0.3501  0.2224  0.1826
32975W        W46389  10.584   6.368  13.115 -0.3519  0.1734 -0.2043
32976W        W46390  13.004   4.185   3.468 -0.0441 -0.3065 -0.1676
32977W        W46391  15.363   1.781   3.964 -0.2652 -0.1877  0.2991
32978W        W46392  10.701   8.864   1.982  0.2359  0.1976 -0.0325
32979W        W46393  14.571   6.574   5.172 -0.1349 -0.1230 -0.0169
32980W        W46394  15.389   6.103  10.295 -0.2895 -0.2704  0.0254
32981W        W46395   5.120  16.267   0.482 -0.0666 -0.1470  0.0108
32982W        W46396  10.958   9.818  14.383  0.1073 -0.3480  0.0131
32983W        W46397   2.337  15.374   5.445 -0.1094  0.4062 -0.1464
32984W        W46398  10.955   2.854   0.862 -0.0440 -0.3339 -0.0020
32985W        W46399   4.751  14.746   0.029 -0.3321  0.3399  0.1813
32986W        W46400   4.463   2.456  16.093  0.0909  0.2858 -0.0591
32987W        W46401  17.571   4.656   3.068 -0.0857 -0.2954  0.0891
32988W        W46402   8.887  13.305  13.063 -0.0338  0.2982  0.0085
32989W        W46403  12.763   1.574   3.164 -0.1517 -0.0128  0.0252
32990W        W46404   7.732  14.218   3.693  0.1697 -0.1115  0.0646
32991W        W46405  13.213  16.459   3.163 -0.0520 -0.0236 -0.1768
32992W        W46406  13.137  16.273  14.180 -0.2312  0.1995 -0.2926
32993W        W46407   8.496  13.195  10.245 -0.0654 -0.2823  0.2051
32994W        W46408   2.516   2.374  15.534 -0.0253  0.0088  0.3863
32995W        W46409   1.584  16.523   5.976 -0.0020  0.2798  0.0866
32996W        W46410   4.252   3.696   2.847 -0.0696  0.2772 -0.2252
32997W        W46411   8.195   2.945   0.618  0.2483  0.2597 -0.0782
32998W        W46412  15.350   2.074  15.427  0.0880 -0.1834  0.1054
32999W        W46413  10.551  11.139  16.197  0.0277 -0.0369 -0.0177
33000W        W46414  17.038  11.319   0.166  0.3609 -0.3544  0.0791
33001W        W46415   9.594   7.204  11.262  0.2833 -0.1472  0.3074
33002W        W46416  11.312   9.602   3.066  0.1410 -0.2266 -0.1294
33003W        W46417   4.461  12.593   1.865  0.0269  0.3056 -0.0812
33004W        W46418   9.582   2.967   1.782  0.2441  0.0566  0.1060
33005W        W46419   5.030  10.593  11.005  0.0367  0.0905 -0.0832
33006W        W46420  10.198  13.060  12.985  0.1417 -0.0563 -0.3762
33007W        W46421   1.279  12.804  16.222 -0.1210 -0.0451 -0.0547
33008W        W46422  12.274   3.056   0.668  0.0653  0.3331 -0.0783
33009W        W46423   9.599  10.065   2.600 -0.4710  0.3364 -0.1089
33010W        W46424  15.292   9.566  10.783 -0.0649 -0.1076  0.1629
33011W        W46425  12.249   1.795   1.062 -0.0369  0.2415 -0.0275
33012W        W46426  10.198   4.023  14.940  0.4379  0.2984  0.2211
33013W        W46427   8.175   6.677  12.542  0.0780 -0.2380 -0.1666
33014W        W46428  14.495   0.317  12.186  0.3064  0.0090 -0.2207
33015W        W46429  11.548  11.298  16.254 -0.0655 -0.1691  0.1739
33016W        W46430   9.750   5.922  15.586  0.0927  0.1356 -0.1122
33017W        W46431   7.146   6.343   4.882  0.2727 -0.0222  0.1093
33018W        W46432  13.753  16.734  14.659  0.1918  0.0512  0.0802
33019W        W46433  14.583   2.149  14.073 -0.1068 -0.0875  0.0395
33020W        W46434   6.307  14.489  11.661  0.4173 -0.2247 -0.0895
33021W        W46435   6.094   1.550  12.488 -0.0310  0.0155  0.1204
33022W        W46436  11.215  14.037   4.373 -0.0053 -0.1134  0.2063
33023W        W46437   9.396  10.069  11.481 -0.3331  0.2884 -0.0072
33024W        W46438  18.227   0.228  12.913  0.1557 -0.0515 -0.2635
33025W        W46439  18.251  13.837  16.297 -0.0147  0.1176  0.0621
33026W        W46440  13.134  12.362  13.492 -0.1850 -0.0742 -0.1098
33027W        W46441   5.661  14.698   4.877 -0.2315 -0.0554  0.1461
33028W        W46442  15.328   5.089  10.293  0.1906  0.2529 -0.0322
33029W        W46443   6.429  16.464  10.778  0.3373 -0.0289 -0.2012
33030W        W46444   2.205   0.963  13.805 -0.1028  0.0854 -0.3407
33031W        W46445   1.212   6.348   0.876 -0.1818  0.1661  0.2095
33032W        W46446  13.640   5.483  14.624 -0.0301  0.4796 -0.2827
33033W        W46447  17.342  16.392   2.136 -0.1989 -0.0874 -0.0382
33034W        W46448  16.545   4.298  14.266  0.1501  0.0463  0.0229
33035W        W46449   2.552   8.926  16.309  0.1399  0.0412 -0.1226
33036W        W46450  11.501  17.427   4.833  0.0767 -0.2652  0.1814
33037W        W46451   5.659   2.583   5.620  0.2124 -0.1534  0.0479
33038W        W46452  12.574   9.780   1.080 -0.1215 -0.3273 -0.0143
33039W        W46453  10.567  15.642  13.101 -0.0776  0.0003 -0.1207
33040W        W46454   7.134  13.675  12.310 -0.1810  0.0167  0.1520
33041W        W46455   7.584  15.215  13.205  0.2130 -0.1500 -0.1469
33042W        W46456   7.313  11.446   9.928  0.3511  0.2428  0.2554
33043W        W46457  10.982  15.674  13.958 -0.0365  0.3482  0.2611
33044W        W46458   9.473  15.417  12.354  0.1044 -0.0408 -0.2247
33045W        W46459   8.569   8.336  15.483  0.2179  0.1852  0.3184
33046W        W46460   6.231   9.884  12.881  0.3032 -0.2877 -0.0029
33047W        W46461   9.568  16.076   4.322  0.1009  0.0082  0.2906
33048W        W46462  15.229   5.743   0.225  0.0202 -0.1639  0.3522
33049W        W46463  10.931  12.600   5.659  0.3608 -0.0845  0.2742
33050W        W46464  11.301  15.227  13.139  0.0357 -0.0801  0.2356
33051W        W46465  16.338   4.364   1.510  0.2519 -0.1648 -0.0613
33052W        W46466   9.257  12.763   2.621  0.0785 -0.1220 -0.2758
33053W        W46467   4.942  10.816   2.825 -0.1708 -0.0975  0.0538
33054W        W46468  10.017   5.045   2.254  0.2156 -0.2676 -0.1430
33055W        W46469   0.998  10.874  13.242 -0.0366 -0.1956  0.1781
33056W        W46470  10.755  12.179  12.780 -0.0683  0.0562  0.2068
33057W        W46471  12.525  10.871   0.772  0.1238  0.1390 -0.2018
33058W        W46472  16.611   1.999  13.473 -0.1021  0.0290  0.3786
33059W        W46473  15.824  11.425  11.452  0.0829  0.0619 -0.2527
33060W        W46474   2.143   8.783  15.951  0.2445 -0.2510  0.0848
33061W        W46475  12.008  11.136  11.703 -0.1804 -0.2135 -0.0075
33062W        W46476  15.575   9.764   3.204 -0.0025 -0.0902 -0.3251
33063W        W46477   5.033   4.289  13.327 -0.0525 -0.0288 -0.0087
33064W        W46478  12.908  15.044  11.810 -0.1946  0.1629 -0.2304
33065W        W46479   9.669   2.049   1.303  0.2951 -0.1621 -0.3237
33066W        W46480  17.479   0.594  10.823 -0.0872  0.2949 -0.2461
33067W        W46481   2.117  14.975   2.169  0.0845  0.0641 -0.3006
33068W        W46482  12.839   6.441  16.500 -0.0308 -0.2308  0.0420
33069W        W46483  18.272   1.505   3.096 -0.2027  0.1400 -0.0687
33070W        W46484  13.377  16.913   3.499 -0.0889 -0.1123 -0.3664
33071W        W46485   4.819   3.462   2.728 -0.2979  0.3498  0.0056
33072W        W46486   7.156  14.420  11.210 -0.0760  0.0581 -0.0757
33073W        W46487   6.748   7.448   2.707 -0.0691 -0.2068  0.4418
33074W        W46488  12.001  17.515  13.142 -0.1523 -0.1008 -0.0834
33075W        W46489  12.168   0.527  12.018 -0.1508  0.1645 -0.0745
33076W        W46490   4.982   2.229  13.533 -0.1192  0.1785  0.0051
33077W        W46491  14.399   2.611   0.453  0.0966 -0.1249 -0.0826
33078W        W46492   6.284  13.031   4.385 -0.0500  0.1575 -0.1311
33079W        W46493  10.057  15.221   3.217  0.0119  0.3004 -0.0749
33080W        W46494  14.951  17.391  16.428  0.0010 -0.0563 -0.0760
33081W        W46495  16.543   5.363   0.188  0.0640 -0.0017  0.1774
33082W        W46496   3.689   2.829  11.521 -0.1448 -0.2441 -0.1190
33083W        W46497  10.264  16.294   1.477  0.0651 -0.1592 -0.0521
33084W        W46498   3.947   6.473   0.619 -0.1689  0.1962 -0.0636
33085W        W46499   4.149   0.980  14.895 -0.0832  0.0923  0.0577
33086W        W46500   2.554   4.310  16.026 -0.2846 -0.0398  0.3353
33087W        W46501  17.168  15.557   1.194 -0.3696 -0.0515 -0.4142
33088W        W46502   6.914  15.327   2.345  0.0085  0.1713  0.0678
33089W        W46503  14.872   1.675  13.148 -0.0368  0.0736  0.2042
33090W        W46504   1.378  10.450   1.325 -0.4280  0.0356 -0.0710
33091W        W46505   0.462  17.100   0.059 -0.2023  0.0749  0.0535
33092W        W46506   3.743   2.329  12.659 -0.2429  0.0917 -0.2485
33093W        W46507   5.657  11.302  12.004 -0.0517 -0.1814  0.2654
33094W        W46508   6.150   4.929   6.315 -0.0221 -0.4538  0.0883
33095W        W46509  14.837  12.021   2.048 -0.3390  0.0515  0.3038
33096W        W46510  14.858   6.581   0.670  0.1020 -0.0018  0.1911
33097W        W46511  17.643   7.704  11.750 -0.0514 -0.1739  0.2655
33098W        W46512   9.133   9.768   4.648  0.3090 -0.2584  0.2503
33099W        W46513   0.174   6.476   2.603 -0.0947 -0.0102  0.2420
33100W        W46514   1.062  16.605   1.012 -0.0966 -0.0156  0.0316
33101W        W46515   7.095  11.020  15.021 -0.1268  0.0804  0.2959
33102W        W46516  13.362   5.318   5.349  0.2653 -0.0459  0.3267
33103W        W46517  16.338   9.160  14.265 -0.1585 -0.0989 -0.0084
33104W        W46518   2.735  15.591   2.540  0.1347 -0.1433 -0.1049
33105W        W46519   2.869   8.004   5.193  0.2164  0.1013  0.1434
33106W        W46520   0.692   1.036   3.202 -0.1226  0.2568  0.1500
33107W        W46521  13.089  12.768   3.982  0.1734  0.3316  0.0253
33108W        W46522  14.123   2.535   1.438  0.0312  0.0290 -0.1005
33109W        W46523  12.373  15.590  12.424 -0.0140 -0.0828  0.0082
33110W        W46524   1.539   4.496   1.044  0.0502 -0.0206  0.0339
33111W        W46525   3.991  17.836  15.822 -0.0220 -0.3361 -0.1591
33112W        W46526   3.220  12.323   4.076 -0.2677 -0.2016 -0.2920
33113W        W46527  16.544   4.983   0.790  0.1910 -0.0686 -0.4075
33114W        W46528   3.810   1.510  14.210  0.0359  0.2938  0.1321
33115W        W46529  13.381  17.834   4.562  0.0273  0.1853 -0.0706
33116W        W46530  15.695   8.292   5.040  0.0097  0.2469  0.1228
33117W        W46531   2.996   1.870  11.143  0.0222 -0.2400 -0.1543
33118W        W46532   5.387  13.536   4.281 -0.1567  0.0935 -0.1971
33119W        W46533  16.140  14.273  14.586 -0.2784  0.1734  0.0591
33120W        W46534   3.325   2.229   5.818 -0.1371  0.3335 -0.0208
33121W        W46535  17.641  12.633  11.507  0.0321 -0.0142 -0.1918
33122W        W46536   8.915   3.989   4.352 -0.0243  0.1800 -0.1508
33123W        W46537  12.200  12.956  16.049 -0.0577  0.1304  0.2668
33124W        W46538  10.065   5.534  14.765 -0.0987 -0.1579  0.0251
33125W        W46539   9.134   7.981  11.183 -0.0529 -0.1323 -0.0104
33126W        W46540   6.593  15.288   1.843  0.1529  0.0188 -0.1592
33127W        W46541  17.449   8.200  12.646  0.0628  0.1294  0.0381
33128W        W46542   3.494  12.891   4.878 -0.1255 -0.1640  0.1107
33129W        W46543  17.039  11.336  16.187  0.5316 -0.0078 -0.3166
33130W        W46544  17.164  17.415  12.751  0.2060  0.0273  0.1274
33131W        W46545  16.031   5.802   5.034 -0.1438  0.0260 -0.0009
33132W        W46546   6.896  18.140   6.165 -0.3542 -0.3118  0.2325
33133W        W46547   1.862   7.175  15.305 -0.1198  0.0262  0.0615
33134W        W46548   9.186   7.129   0.661  0.0992 -0.0324 -0.2095
33135W        W46549  15.919  17.697  12.596  0.1490  0.1575 -0.0889
33136W        W46550   5.407   4.322   4.231  0.0214  0.0536  0.1365
33137W        W46551  17.508   2.213  10.313  0.0829 -0.0551 -0.1503
33138W        W46552  10.116  12.955   4.570  0.0230  0.1664 -0.2049
33139W        W46553  12.352   3.302  11.774  0.0764 -0.1487  0.1832
33140W        W46554  14.711  15.074  10.904  0.1600 -0.0780  0.0409
33141W        W46555   1.442   9.072  10.858  0.2461 -0.1190 -0.0166
33142W        W46556   1.238  15.993   3.473  0.0787 -0.0124 -0.2310
33143W        W46557   9.521   3.570   3.862 -0.0933  0.2804  0.0689
33144W        W46558   1.227   1.761  12.150  0.3811  0.1490  0.1702
33145W        W46559   8.012   7.004   4.389 -0.2876 -0.0369  0.0794
33146W        W46560   8.689  11.827   4.576 -0.0483  0.3659  0.1436
33147W        W46561   7.076   3.800   1.050  0.1127  0.0944  0.3180
33148W        W46562  15.486  12.247   0.086 -0.4078  0.1891  0.2382
33149W        W46563  13.665  11.622  12.757  0.0191 -0.1206 -0.0185
33150W        W46564   7.875   7.095  11.484  0.3055  0.1034 -0.2974
33151W        W46565   4.635   3.324  16.261  0.0291  0.3550  0.2113
33152W        W46566  16.444   1.473   0.545  0.0410 -0.0368 -0.0459
33153W        W46567  15.526   5.122  12.890 -0.0824  0.0303  0.3112
33154W        W46568  14.537   5.633  11.865 -0.1506 -0.2740 -0.0538
33155W        W46569  12.675   5.154  10.776  0.1989  0.0812 -0.1807
33156W        W46570  14.239   5.069   3.858  0.1347  0.0423  0.0331
33157W        W46571   1.261   0.800  15.248 -0.0425  0.1722  0.1562
33158W        W46572  12.488   1.245   0.102  0.0345  0.0328  0.0494
33159W        W46573  15.321   4.751   0.612 -0.1486 -0.4095 -0.2227
33160W        W46574   7.233  17.479   4.497  0.0145 -0.3021  0.3004
33161W        W46575   6.969   2.964   4.427 -0.1917 -0.3921 -0.2135
33162W        W46576  15.630  13.198   6.027  0.2710  0.4433 -0.1251
33163W        W46577  16.848  10.131  14.845  0.0554  0.1288  0.0754
33164W        W46578  16.133   8.649  13.327  0.0629  0.1713  0.1196
33165W        W46579   5.111  15.647   4.918  0.2326  0.4108  0.1208
33166W        W46580  10.991  15.502  16.261 -0.2099  0.1665 -0.3050
33167W        W46581  12.508  15.593   5.697  0.1260 -0.0096  0.0607
33168W        W46582   1.001   6.643   3.135  0.2837 -0.2441 -0.1720
33169W        W46583  13.130   8.528  14.741 -0.1092 -0.2439 -0.6439
33170W        W46584   1.010   2.834   2.626  0.1896 -0.2168 -0.2734
33171W        W46585  14.927   6.738   5.500  0.0571 -0.1060 -0.3463
33172W        W46586   0.229   6.921  12.862  0.0025 -0.2414 -0.1534
33173W        W46587   4.859   8.948  12.979 -0.4069  0.1173  0.1510
33174W        W46588   6.956   7.828  15.906  0.0663  0.0842  0.0616
33175W        W46589  13.283   2.741  11.450  0.1909 -0.1243  0.3339
33176W        W46590  16.173  15.245   3.197  0.0190 -0.0397 -0.2183
33177W        W46591  12.541   6.485   0.894 -0.1267  0.1968  0.0241
33178W        W46592  10.990  11.271  10.552 -0.0134  0.3333 -0.0818
33179W        W46593  13.762   9.905   4.498  0.1636 -0.0076  0.0690
33180W        W46594   4.507   8.249  15.394 -0.0626  0.1335  0.0487
33181W        W46595   0.310   5.600   1.311 -0.0666 -0.1569 -0.2136
33182W        W46596   7.969  13.943   3.091  0.3995  0.2807 -0.3050
33183W        W46597  13.941  17.940   1.204 -0.0522  0.1722  0.0025
33184W        W46598  13.802  16.318  10.867  0.0370  0.0740  0.3045
33185W        W46599   5.733  15.067   4.194  0.0064  0.0516 -0.0206
33186W        W46600   6.647  18.198  11.526  0.0775  0.2017  0.0567
33187W        W46601  13.866  15.680  14.833 -0.0627  0.0788 -0.1355
33188W        W46602  12.995  16.807   1.784  0.2990  0.0199 -0.0228
33189W        W46603  16.470  17.005  11.824  0.0320  0.0287  0.0328
33190W        W46604  15.071  15.545   5.343  0.1196  0.2327 -0.0648
33191W        W46605   0.135  15.010  14.390 -0.1754  0.2866  0.2564
33192W        W46606  14.144   1.150   3.553 -0.0155 -0.0191 -0.0700
33193W        W46607  11.228  16.242   0.203 -0.2089  0.3525 -0.1224
33194W        W46608  13.150  16.665   6.811 -0.4861  0.1674  0.2288
33195W        W46609   8.137   8.008   3.570 -0.0279  0.1240 -0.3744
33196W        W46610   5.901  16.535   1.620  0.0076  0.0581  0.0743
33197W        W46611  14.206  18.222  13.102  0.1252 -0.2773  0.0643
33198W        W46612   5.060  12.141   0.007  0.0229 -0.2402  0.2369
33199W        W46613  17.106  12.141   5.151 -0.0403  0.4581  0.2162
33200W        W46614   8.236  14.688  15.793  0.1404  0.0844  0.0181
33201W        W46615  14.678  14.065   1.968  0.0760 -0.0892  0.1318
33202W        W46616  13.989   9.455  11.668  0.0020  0.0002 -0.0767
33203W        W46617  16.245   9.609  12.051 -0.3244  0.0413  0.0896
33204W        W46618   9.432  14.292  14.039  0.2173 -0.2508  0.0071
33205W        W46619  18.124  12.224   5.707  0.2688  0.0016 -0.2432
33206W        W46620  17.345  15.993   1.834 -0.0345 -0.0735  0.0557
33207W        W46621  11.674   7.817   5.763  0.4122  0.1129  0.2910
33208W        W46622  13.486   5.441   2.408  0.1193 -0.0527 -0.1673
33209W        W46623  18.000   3.674   0.936  0.2438 -0.0996  0.2683
33210W        W46624  10.399   2.764  10.641  0.3715  0.1756  0.0743
33211W        W46625  12.635  13.683  13.864 -0.0295  0.0150 -0.0476
33212W        W46626  16.640   2.299   9.745  0.2006 -0.1668 -0.0292
33213W        W46627  16.554   8.250  10.587  0.1699  0.3854  0.1295
33214W        W46628  14.787   5.713  13.805 -0.0700 -0.3280  0.0495
33215W        W46629   7.189   9.902   2.756 -0.2017  0.0930 -0.1772
33216W        W46630   9.395  12.114  12.602 -0.1892 -0.2243 -0.2449
33217W        W46631  11.294   2.417   2.664 -0.0590 -0.0748  0.1599
33218W        W46632   2.043  14.128   6.900  0.0418 -0.2853 -0.1476
33219W        W46633   8.450  11.400  15.956  0.0502  0.1103  0.0170
33220W        W46634  13.235   9.119  14.737 -0.0873 -0.1556 -0.2403
33221W        W46635   7.080   3.418  13.306 -0.1498 -0.2854  0.1707
33222W        W46636  14.331   0.021  11.865  0.1374  0.0106  0.1012
33223W        W46637   7.380  14.425  12.564 -0.0808 -0.1281 -0.1071
33224W        W46638   7.843   3.929   5.708 -0.2844 -0.3281  0.3257
33225W        W46639  16.412   7.515  11.499 -0.0660  0.0281  0.1062
33226W        W46640  13.140   4.198  16.318  0.1086 -0.3054  0.2424
33227W        W46641   9.143   3.002  14.536  0.0596  0.2169  0.2767
33228W        W46642   6.842   7.611  15.026  0.1582  0.0426  0.0773
33229W        W46643   3.691  11.937   1.502  0.1393  0.1192  0.0245
33230W        W46644  15.862  14.361   4.028 -0.0958 -0.0584  0.0442
33231W        W46645   8.614   0.289  12.523  0.0091 -0.2090  0.1017
33232W        W46646   4.226   3.103  16.114  0.0095 -0.2710  0.4300
33233W        W46647   9.512  10.342   4.493 -0.1173  0.1550  0.2173
33234W        W46648  12.174   8.878  16.405 -0.2322  0.1318  0.1272
33235W        W46649  16.432  12.591   1.453  0.1343 -0.0696  0.1834
33236W        W46650   4.706   2.450   0.540 -0.1744 -0.2391 -0.0182
33237W        W46651   2.312   5.877  10.775  0.1242 -0.3435  0.0800
33238W        W46652   8.457  15.800  13.883  0.0013 -0.2673 -0.0777
33239W        W46653   2.630   4.981  14.173 -0.2378  0.1209 -0.0112
33240W        W46654  17.642  13.624   5.649 -0.0801  0.0178  0.0839
33241W        W46655   9.144  10.306   1.687  0.0839 -0.3468 -0.2347
33242W        W46656   1.864  18.085  13.256  0.0509  0.0942 -0.0045
33243W        W46657   5.517  12.911  13.685  0.2322  0.1683 -0.1368
33244W        W46658  11.135  12.642  15.261 -0.1130  0.1977  0.2578
33245W        W46659   7.332  17.149  10.606  0.1983 -0.1960  0.3966
33246W        W46660  16.532  15.098   3.932 -0.0553  0.2777 -0.0606
33247W        W46661  14.473  13.969  13.288 -0.1150 -0.1838  0.1521
33248W        W46662   6.411  13.424  15.256 -0.1810  0.1340 -0.1482
33249W        W46663   2.730   5.048  11.213  0.1664  0.1066 -0.3056
33250W        W46664  11.814   9.728  12.483  0.2144 -0.1152 -0.1047
33251W        W46665  14.586  14.713  13.108 -0.0527  0.0984  0.2489
33252W        W46666   0.775  17.071  10.747  0.1169 -0.3783  0.1379
33253W        W46667   0.631   6.660   1.125 -0.2100 -0.0358  0.2451
33254W        W46668   6.666   5.649   5.740  0.2469  0.2135  0.2023
33255W        W46669   8.612   6.887  13.469 -0.1667  0.0196  0.1484
33256W        W46670   3.344  17.844   3.987 -0.2901 -0.1170  0.0095
33257W        W46671   3.013  13.686  11.038  0.0495 -0.2755  0.0619
33258W        W46672  15.806  16.186  12.215 -0.0593 -0.0952 -0.3197
33259W        W46673   5.741   3.239   5.017  0.2636 -0.1699  0.0279
33260W        W46674   5.684  10.703  10.111 -0.0927  0.1256 -0.0748
33261W        W46675  16.362  13.299  15.912  0.1053 -0.2798  0.0708
33262W        W46676   6.008   2.813   0.028  0.1924  0.1914 -0.0171
33263W        W46677   0.428   1.907  14.812  0.0442  0.0258 -0.0382
33264W        W46678  18.228   1.144  15.433 -0.4304 -0.1972  0.1972
33265W        W46679   5.124   2.234  14.454 -0.1066  0.1951 -0.2440
33266W        W46680   6.258  14.764  14.857 -0.5776 -0.2162  0.0752
33267W        W46681  13.536   9.766  13.413 -0.1652 -0.3297  0.1198
33268W        W46682  18.135  17.185  12.891  0.0770  0.1933  0.0047
33269W        W46683  10.117   7.719  14.894  0.0644 -0.0179  0.3362
33270W        W46684   6.540  17.843   4.863  0.0818  0.0533  0.1551
33271W        W46685  11.155  18.122  14.585 -0.2517 -0.1534  0.3578
33272W        W46686   6.803  17.821  14.399 -0.0260  0.1728  0.2023
33273W        W46687  10.814   2.820  11.533  0.1974 -0.0584  0.0805
33274W        W46688  15.880   4.577  12.850 -0.1434 -0.2400 -0.0058
33275W        W46689   6.774   0.074  15.689 -0.0488  0.1803 -0.1277
33276W        W46690  11.784  10.093   2.570  0.2414 -0.2295 -0.0118
33277W        W46691   4.794  10.457   4.830 -0.2402  0.0079 -0.0158
33278W        W46692   0.494   9.328   5.700  0.1344 -0.0267 -0.1258
33279W        W46693  12.735   1.279  15.024 -0.0844  0.0980  0.2319
33280W        W46694   1.445   8.878   2.591  0.3465 -0.2054 -0.2857
33281W        W46695   7.745   7.012  13.298 -0.1127  0.1661  0.0609
33282W        W46696  15.980   4.188  11.665 -0.1835  0.0029 -0.4554
33283W        W46697   3.761  14.583  15.416 -0.0815 -0.2399 -0.2035
33284W        W46698  10.092  13.958   3.316 -0.1242  0.0129 -0.3737
33285W        W46699   7.256   6.070   4.390 -0.0462  0.0241  0.1937
33286W        W46700  13.727   1.312   0.316  0.0978  0.0410 -0.4063
33287W        W46701   4.011   7.876   3.919 -0.0231 -0.1498 -0.0412
33288W        W46702  13.367  16.636   5.790  0.1577 -0.1655  0.1515
33289W        W46703  17.210  12.526  12.859 -0.1182 -0.0214  0.1137
33290W        W46704   8.409   5.779  12.784 -0.0382 -0.0934 -0.2053
33291W        W46705   2.751  12.843   1.031 -0.3176  0.0069 -0.3731
33292W        W46706  17.331   7.835   0.070  0.0601 -0.3577  0.1047
33293W        W46707   2.640  12.878  13.053  0.2281 -0.3107 -0.0360
33294W        W46708   8.009   2.524  11.793  0.2625  0.1056  0.4238
33295W        W46709   7.741   4.376   5.488  0.0162  0.0712 -0.3344
33296W        W46710   3.851  15.554   5.772 -0.0547 -0.0007  0.1305
33297W        W46711  16.941   8.214   1.341 -0.1886  0.4573  0.0201
33298W        W46712   0.727  11.423  12.864  0.0692  0.1775  0.1786
33299W        W46713  14.804   8.668   1.217 -0.1390  0.0750 -0.1283
33300W        W46714  13.153   7.540  13.177 -0.0356 -0.2518  0.0928
33301W        W46715   6.151   0.016  16.317 -0.0027 -0.0326 -0.3988
33302W        W46716   7.263   4.631  12.059 -0.0101  0.2732 -0.1347
33303W        W46717   6.891  17.527   4.955 -0.1052 -0.2127  0.0794
33304W        W46718   7.995   3.028  11.994 -0.0882 -0.1120  0.1320
33305W        W46719  16.224  12.649   0.439 -0.0038  0.2984  0.2118
33306W        W46720  12.941  12.604  11.494 -0.0964 -0.3392 -0.0813
33307W        W46721  15.564   8.121   1.367 -0.0189  0.0680  0.1381
33308W        W46722   0.961  14.140   2.482  0.1309  0.1638 -0.3949
33309W        W46723  12.290   0.515   0.491 -0.2094 -0.5305 -0.3434
33310W        W46724   3.586  17.130  13.996 -0.2442  0.3017 -0.1414
33311W        W46725  12.511   1.978   5.996 -0.1717  0.1645  0.2031
33312W        W46726   8.896  15.432  16.273 -0.0219 -0.0075  0.2880
33313W        W46727   0.636   0.543  11.034 -0.2375 -0.0803 -0.0278
33314W        W46728  12.322   3.996   5.508 -0.2985 -0.0821  0.0547
33315W        W46729   9.007  12.556   5.661  0.0463 -0.1503  0.0217
33316W        W46730   6.750  14.391   3.217  0.0611  0.1672  0.1852
33317W        W46731  17.762  12.831  12.020 -0.0227  0.1972  0.1149
33318W        W46732   5.131   8.411   0.263  0.2578  0.2540 -0.1460
33319W        W46733  12.971   0.023  11.768  0.0143 -0.3843  0.1544
33320W        W46734  15.466   6.022  15.033 -0.0476  0.1762 -0.2222
33321W        W46735  16.625  18.245  11.441 -0.1785 -0.1523  0.2374
33322W        W46736   9.669  15.925  13.533 -0.2828 -0.0163 -0.2611
33323W        W46737   4.378   6.959  15.913  0.2664  0.1082  0.3176
33324W        W46738  14.663   4.314  10.890 -0.1575  0.1266  0.2021
33325W        W46739   3.878  15.244  13.394  0.1654 -0.4022 -0.1018
33326W        W46740  18.032   1.051   5.121  0.2407  0.1528 -0.1972
33327W        W46741   6.379   6.250  14.869 -0.1287  0.1063 -0.1779
33328W        W46742   1.191  10.982  10.857 -0.0009 -0.1680  0.0770
33329W        W46743  17.520   0.136   0.750  0.3871  0.2057  0.1919
33330W        W46744  16.624  13.989   4.421  0.3602 -0.4242  0.1839
33331W        W46745  15.360   5.487  10.590  0.0931  0.0742  0.1615
33332W        W46746   6.776  11.292   2.740 -0.0421  0.0853  0.0858
33333W        W46747   5.260   5.218  12.587 -0.3300  0.1241 -0.4126
33334W        W46748  10.363  15.038  11.944  0.4158  0.1312 -0.0846
33335W        W46749  11.287   5.037  15.057 -0.0246  0.1330  0.2417
33336W        W46750   9.515   5.128  13.541 -0.0257 -0.0478 -0.0565
33337W        W46751   3.446   9.274   0.134  0.0946 -0.1630 -0.5933
33338W        W46752  15.590   9.060   6.260 -0.1881 -0.0754 -0.3884
33339W        W46753   5.599   9.276  14.175 -0.1100 -0.1695  0.0291
33340W        W46754   3.249  14.718   1.406  0.0653 -0.0317 -0.1054
33341W        W46755   1.725  16.760  14.070 -0.1295 -0.0260 -0.5135
33342W        W46756  16.893  13.667  10.723 -0.1620  0.1708  0.0422
33343W        W46757   6.432   6.981  14.008  0.1668  0.2202 -0.3863
33344W        W46758   0.514  16.258  12.963  0.1076 -0.0838  0.2945
33345W        W46759  16.685  16.660  13.594 -0.0424 -0.3343  0.1227
33346W        W46760  17.264  12.154   0.563  0.1251  0.1517 -0.0015
33347W        W46761   5.700   8.265   3.041 -0.1123  0.0857  0.2273
33348W        W46762  11.468  11.118   4.641 -0.0946 -0.0937  0.0489
33349W        W46763   1.251   9.410   0.156  0.3541  0.0668  0.1638
33350W        W46764   3.519  13.589  11.950  0.1297 -0.3873  0.0526
33351W        W46765   7.298  14.650   1.924 -0.0603 -0.3558 -0.1576
33352W        W46766  11.807   9.501   4.771 -0.0491 -0.1036  0.2579
33353W        W46767  18.151  15.263  15.841  0.0830  0.2066  0.1858
33354W        W46768   6.990  17.451  11.883 -0.2266  0.0639 -0.3801
33355W        W46769  14.337  17.985  11.084 -0.0935  0.2393  0.0113
33356W        W46770   4.305   2.915  14.354  0.1086  0.0040 -0.2365
33357W        W46771   6.309   2.700  11.635 -0.1314 -0.1320 -0.2442
33358W        W46772  15.609  16.595   4.867 -0.1549 -0.2294  0.0590
33359W        W46773   8.924  17.134  16.195 -0.1442 -0.1148 -0.2748
33360W        W46774   0.325   9.998   4.899  0.1268  0.2213 -0.1623
33361W        W46775   2.355   2.074  12.859  0.0258  0.3055 -0.1408
33362W        W46776   8.568  16.546   0.742  0.1972  0.1626 -0.2065
33363W        W46777   5.424   2.611   6.825 -0.0190  0.0535  0.0014
33364W        W46778   5.742   1.347  16.277  0.1608 -0.1379 -0.0844
33365W        W46779  14.792   7.047   4.750 -0.1577 -0.0125  0.3309
33366W        W46780   6.302   8.966   3.156 -0.1523  0.2876  0.1948
33367W        W46781  17.235  15.982   3.771  0.0895  0.1145  0.0161
33368W        W46782   5.742  12.852  12.033  0.2697 -0.1800  0.2452
33369W        W46783  14.990  10.743   0.562 -0.1343 -0.1201  0.0319
33370W        W46784   1.412   1.024   3.892  0.0656 -0.0363  0.0079
33371W        W46785  13.870  17.894   5.385 -0.0970 -0.0163  0.1791
33372W        W46786   9.066   2.990  11.969 -0.0179  0.1770 -0.1949
33373W        W46787   4.978   0.975  12.929 -0.0669 -0.3275 -0.1341
33374W        W46788   3.625  16.304  13.759 -0.3312 -0.0649 -0.0230
33375W        W46789   1.756  13.148   0.799 -0.2234 -0.0663  0.3319
33376W        W46790  13.434  10.912   2.643  0.3072 -0.0197 -0.1442
33377W        W46791   4.833  10.882   4.517  0.1202 -0.0651 -0.0614
33378W        W46792   9.655  15.298   1.576  0.0399  0.2882 -0.1577
33379W        W46793   7.335   1.815  14.761  0.1019 -0.2546  0.0721
33380W        W46794   8.261   9.226   0.900  0.2756 -0.1974  0.0326
33381W        W46795  10.144   5.745   3.968 -0.1782 -0.0691  0.0359
33382W        W46796  11.749   0.538   0.321 -0.1660 -0.1869 -0.3387
33383W        W46797   9.854  15.240   4.047 -0.1423  0.0952 -0.1667
33384W        W46798  17.331   5.129  16.029  0.0983 -0.0144  0.4591
33385W        W46799  12.946   5.483  10.498 -0.0458 -0.0619  0.0270
33386W        W46800   7.356  16.917   1.456 -0.1278  0.0572 -0.0163
33387W        W46801  10.112  15.824   0.004 -0.1371 -0.2515 -0.1726
33388W        W46802  18.114  17.022  14.770  0.2497  0.2888 -0.1560
33389W        W46803   2.385  11.882  15.974 -0.1194 -0.1446 -0.1643
33390W        W46804   3.405   4.397  10.331  0.0502  0.1311  0.0821
33391W        W46805   2.800   5.437  12.598 -0.0063 -0.0461  0.2213
33392W        W46806  18.261   8.676   5.766 -0.2226 -0.1328  0.2075
33393W        W46807  17.702  15.556   5.920  0.2192 -0.2424 -0.3782
33394W        W46808  17.352   9.679   3.565  0.0061  0.1608 -0.1339
33395W        W46809  15.014   2.132  14.331  0.1730  0.0045  0.0071
33396W        W46810   1.502  18.113  12.373 -0.2567 -0.1336  0.1068
33397W        W46811   4.123   8.919  14.161  0.3570  0.0480  0.1152
33398W        W46812   0.758   6.532  16.162  0.1137 -0.4794 -0.0921
33399W        W46813   1.769  11.323   1.146  0.0935  0.0128 -0.0280
33400W        W46814   9.726   5.989   4.228  0.0285  0.0808 -0.0508
33401W        W46815   6.808   8.036   0.755 -0.2921 -0.1412  0.0036
33402W        W46816   4.579  11.699   5.719 -0.0442 -0.0121  0.1925
33403W        W46817   5.232   4.727  12.462  0.1573  0.0649  0.1997
33404W        W46818   0.926  11.461   0.888  0.1054 -0.0381 -0.1366
33405W        W46819   0.607  15.511   5.335 -0.1708  0.1864  0.2684
33406W        W46820   4.554   9.596   2.463 -0.1732  0.1846 -0.0104
33407W        W46821   8.290  14.308  13.062  0.3163 -0.3216  0.2030
33408W        W46822   0.493  17.129  15.302  0.1842 -0.1525 -0.2008
33409W        W46823  15.286  17.994   2.880  0.0441  0.1469 -0.2454
33410W        W46824  14.854  16.825   5.554  0.0143 -0.1191  0.1167
33411W        W46825  13.751   1.495   3.373  0.0516 -0.2432  0.1508
33412W        W46826   3.132  16.337  15.188  0.0356  0.0201  0.2448
33413W        W46827  13.283  14.910   1.129 -0.2227  0.1017 -0.0176
33414W        W46828  12.979   2.467  14.217  0.0905 -0.1996  0.1616
33415W        W46829   2.895   3.758  12.437  0.1616 -0.1286  0.1807
33416W        W46830  15.553  15.579   5.647 -0.0434  0.3697  0.0346
33417W        W46831  11.589   6.040   4.997  0.1009  0.0224  0.2128
33418W        W46832  10.815   1.967   5.954  0.2644 -0.1136 -0.0591
33419W        W46833   9.414   5.553  14.774  0.1517 -0.1412  0.1055
33420W        W46834  14.135   0.250   3.371  0.2874 -0.3256 -0.1572
33421W        W46835   7.464  13.992   1.406  0.0450  0.0716 -0.3240
33422W        W46836  13.729  10.257  15.771  0.0640  0.2858  0.1943
33423W        W46837   2.716   0.267   0.322  0.2512 -0.0884 -0.0865
33424W        W46838   6.141   7.348  15.437  0.0475 -0.2303  0.0216
33425W        W46839   9.695   1.918   0.390 -0.0339 -0.1131 -0.1257
33426W        W46840   8.364   8.135  14.456 -0.0004 -0.1016  0.2259
33427W        W46841  12.810   5.458  11.188 -0.1209  0.0286  0.3231
33428W        W46842   2.328   2.880   2.425  0.1582 -0.1237 -0.0059
33429W        W46843   7.608  14.010   4.124 -0.1786 -0.0488  0.3127
33430W        W46844   0.093   9.993   5.493  0.2831  0.1294  0.1246
33431W        W46845   5.936  17.137  12.815 -0.0898  0.1856 -0.1654
33432W        W46846   3.648  14.674   2.696 -0.0462  0.0933  0.0780
33433W        W46847   6.636   2.357   2.907  0.3718 -0.3719 -0.0289
33434W        W46848   6.449   3.300  12.897  0.1073 -0.0380 -0.2391
33435W        W46849   0.556  10.458   3.020 -0.0937  0.1634 -0.0824
33436W        W46850  10.338   1.466  11.033 -0.2652  0.0982 -0.1064
33437W        W46851  10.876  14.639   2.505  0.2239  0.0707  0.0967
33438W        W46852  16.762   2.379   0.747 -0.4375  0.2787  0.2782
33439W        W46853  14.330  10.820  14.423 -0.1396  0.1134  0.1140
33440W        W46854   4.238   6.052  11.576 -0.1102 -0.0269 -0.0505
33441W        W46855   8.933  14.170   2.688 -0.2390  0.0045  0.1473
33442W        W46856  11.721  18.229   4.761 -0.1577  0.5472  0.3167
33443W        W46857  12.386  12.629   3.965  0.1016 -0.4371  0.2811
33444W        W46858   8.509   5.889   0.947  0.2924  0.1409 -0.0014
33445W        W46859  10.508   5.835   1.726 -0.0316  0.0971  0.1464
33446W        W46860  15.421   3.637  10.923  0.1005 -0.1370  0.0726
33447W        W46861   9.547  16.360   3.925 -0.4476  0.1203  0.0063
33448W        W46862   5.992   4.953   3.410  0.0357  0.1116 -0.4111
33449W        W46863  16.394  11.596   4.553 -0.1292  0.1388 -0.0606
33450W        W46864   9.821   5.639   0.294 -0.1594  0.1871  0.0486
33451W        W46865  16.541  12.714   3.847  0.2016  0.0492 -0.0024
33452W        W46866   4.358   9.548  10.953 -0.0505  0.0165 -0.0414
33453W        W46867  15.761  12.094   0.430 -0.3486 -0.1520 -0.3330
33454W        W46868  16.198   6.017  13.822 -0.4118 -0.0591  0.2231
33455W        W46869  15.852  11.631  12.888 -0.1812  0.0884 -0.0380
33456W        W46870   5.122   2.312   4.090  0.0882 -0.4098  0.0917
33457W        W46871   4.788   2.949   2.765  0.3457 -0.0044 -0.1739
33458W        W46872   6.194   7.750   2.766  0.1379  0.0966  0.1160
33459W        W46873  17.706   2.180  11.898 -0.0353  0.1787 -0.1469
33460W        W46874   7.813   0.387  14.184 -0.4414  0.1143 -0.0964
33461W        W46875  17.504   2.296   5.371  0.3062 -0.2276  0.0565
33462W        W46876   2.284   3.538  13.652  0.0018  0.0178 -0.0307
33463W        W46877   8.702  15.744   4.489 -0.0033  0.0782 -0.0313
33464W        W46878  12.724   0.940  15.462 -0.1314 -0.1043 -0.2279
33465W        W46879  11.034  12.615  15.732 -0.0285  0.2475 -0.0433
33466W        W46880   1.166  13.069   1.446  0.0624 -0.2841  0.0154
33467W        W46881   2.717  15.874   5.479  0.0712 -0.1628 -0.1255
33468W        W46882  13.961   0.945  10.109  0.1160  0.1520  0.0298
33469W        W46883  14.657   4.396  14.200 -0.0854 -0.2618 -0.0232
33470W        W46884   0.463   4.671  13.351  0.2272 -0.3783  0.1217
33471W        W46885   2.722  18.256   1.519 -0.2480 -0.0088  0.0977
33472W        W46886   3.281  10.925   5.364  0.2264  0.0167 -0.3563
33473W        W46887   9.596  12.457   1.709 -0.1396 -0.3738  0.1506
33474W        W46888   6.815  13.080  11.819  0.1907  0.0899  0.1596
33475W        W46889  15.683  16.109   3.185  0.3150  0.0667  0.0254
33476W        W46890  16.715   9.081  12.867  0.1743 -0.0448  0.1074
33477W        W46891  15.092   0.008  13.400 -0.0449 -0.0849 -0.0591
33478W        W46892   6.538   8.703   4.265  0.4285 -0.0405 -0.0802
33479W        W46893   3.537   7.947   0.121  0.1385 -0.0854 -0.1276
33480W        W46894   2.541  13.758  13.957 -0.2011 -0.1207 -0.1222
33481W        W46895  17.048   9.021   1.469 -0.1117  0.0377  0.1055
33482W        W46896   3.344   1.909  15.072 -0.2315  0.1913 -0.0825
33483W        W46897   4.650   0.557   0.318  0.0183 -0.0000 -0.0039
33484W        W46898   7.703   5.200  16.113  0.0867 -0.1874  0.0811
33485W        W46899   6.270   4.453   3.096 -0.0971  0.0404 -0.2320
33486W        W46900  12.654  14.247  11.951 -0.3644  0.1705 -0.2072
33487W        W46901   5.368  15.665   3.670  0.1141 -0.0101  0.0119
33488W        W46902  14.404   3.948   2.890  0.1562 -0.0266  0.1575
33489W        W46903   1.991  13.136   3.064 -0.2333 -0.2817  0.0635
33490W        W46904   7.252   5.308  16.395  0.1235 -0.0387 -0.2081
33491W        W46905   0.967  12.050  13.618 -0.1821  0.0270  0.0930
33492W        W46906   2.730   6.191  11.040  0.3155  0.2540  0.0751
33493W        W46907   6.292   3.139   1.063 -0.0252 -0.1123  0.3033
33494W        W46908  13.074   0.477  13.452 -0.0563 -0.2862  0.2744
33495W        W46909   2.248   7.421  15.566 -0.0061  0.1018  0.0584
33496W        W46910   1.006  13.832  12.463 -0.0669 -0.0831 -0.1733
33497W        W46911   8.522   4.451   0.224  0.1335  0.2683  0.2456
33498W        W46912   1.887  11.941  11.371 -0.0706 -0.1145 -0.2321
33499W        W46913  13.522   6.442  12.069  0.2054  0.2416 -0.1552
33500W        W46914   7.101  16.322   4.163  0.0190  0.2254  0.0838
33501W        W46915  15.504   2.971   0.536 -0.1091 -0.1220  0.0075
33502W        W46916   3.268   4.779   0.670 -0.3249  0.0058 -0.3115
33503W        W46917   0.422   6.482   5.286  0.2370 -0.1035  0.3929
33504W        W46918   8.106   0.224  15.471 -0.1119  0.2443  0.1120
33505W        W46919  11.612   0.055   3.570  0.1075 -0.0688  0.1586
33506W        W46920   2.237   0.550  14.692 -0.1467  0.1902 -0.4398
33507W        W46921   1.732  15.629   1.305  0.5582 -0.0256  0.5143
33508W        W46922   1.190   4.677  15.059  0.3419 -0.1558  0.0855
33509W        W46923  10.320  10.033  10.570 -0.1390  0.0037  0.0513
33510W        W46924  17.345  11.156   2.666 -0.2150 -0.1029 -0.3107
33511W        W46925  13.944   1.885  11.230 -0.0494  0.1593 -0.0835
33512W        W46926  10.129   2.897  11.936  0.1077  0.2978  0.0333
33513W        W46927   4.624   7.050  13.604  0.0956 -0.0582  0.1734
33514W        W46928  13.777  15.005   3.190 -0.0886 -0.1433 -0.0907
33515W        W46929   0.442   2.298  16.097 -0.2107  0.1401 -0.1578
33516W        W46930  12.724   2.105   0.308  0.0524 -0.1481 -0.0832
33517W        W46931   1.226   3.334   2.826  0.3948 -0.0009  0.1343
33518W        W46932   7.970   9.642  10.559  0.1821  0.0041  0.0773
33519W        W46933  11.047   1.757   5.517 -0.2571 -0.1695 -0.1581
33520W        W46934  12.087  15.418   6.700 -0.1647 -0.1222  0.1320
33521W        W46935  16.497   3.278  13.720  0.0120  0.1025  0.1948
33522W        W46936   6.121  15.248   1.949  0.5463  0.3202  0.0216
33523W        W46937  17.893  14.013   2.242  0.1341 -0.2096 -0.0936
33524W        W46938  17.310  16.505  15.957  0.0139  0.0520 -0.0774
33525W        W46939   0.439   6.108   1.338 -0.1812 -0.1551  0.1308
33526W        W46940   4.558   2.342  14.500 -0.0137  0.2854  0.1109
33527W        W46941  11.225   7.121  13.286 -0.1123 -0.0331  0.2365
33528W        W46942   6.692   2.383  16.042  0.0410 -0.1005 -0.1114
33529W        W46943  15.937  11.945   3.852  0.1101 -0.0244  0.0445
33530W        W46944   8.171  18.169  15.075 -0.0362  0.1738 -0.3064
33531W        W46945  16.776  18.039   0.321  0.1496 -0.1085  0.0058
33532W        W46946  13.740   5.013  16.230 -0.1325 -0.2417  0.1255
33533W        W46947   3.299  11.098   6.825  0.0417 -0.0743 -0.3060
33534W        W46948   6.357   0.702  13.258 -0.0273 -0.1088  0.0566
33535W        W46949  16.650   6.957  13.073  0.0968  0.1112  0.2491
33536W        W46950   5.770   9.918  14.846 -0.1907  0.0122  0.0775
33537W        W46951   0.274  13.873  11.725  0.1345 -0.2456 -0.0896
33538W        W46952  11.728   0.910   3.420  0.1282 -0.2228  0.0011
33539W        W46953   7.073  13.946  10.649 -0.2258  0.1087 -0.2819
33540W        W46954   6.919   3.957  11.466 -0.0261 -0.1665 -0.4363
33541W        W46955   2.412  14.150  15.789 -0.2359 -0.0109 -0.0749
33542W        W46956   3.709   7.955  11.976  0.1850 -0.2738  0.4006
33543W        W46957  12.251   3.709   5.958 -0.1031 -0.1921 -0.0109
33544W        W46958  16.857  12.725   2.504 -0.1251  0.1538 -0.0544
33545W        W46959  14.408   7.265  14.551  0.4785  0.1146  0.0842
33546W        W46960  16.552   8.447  12.995  0.0915  0.2199 -0.1504
33547W        W46961   0.244  14.635  13.135 -0.0885 -0.2161 -0.1071
33548W        W46962   5.346  13.044   1.955  0.0813  0.0482 -0.0747
33549W        W46963  17.951   4.301   1.746  0.1967  0.1812 -0.0533
33550W        W46964  14.601  13.838   0.651 -0.0986  0.0253  0.0375
33551W        W46965   4.890  13.468   0.603  0.1344  0.2048  0.0272
33552W        W46966  15.437   0.554   5.952 -0.2063  0.2600 -0.0234
33553W        W46967   6.768   1.147  14.826 -0.1743  0.0537 -0.0064
33554W        W46968   0.771  18.171   0.713 -0.0451  0.0621 -0.0150
33555W        W46969  15.615   4.007  12.513 -0.0414  0.0499 -0.2923
33556W        W46970   8.205  16.901  11.519 -0.0324  0.0201 -0.1709
33557W        W46971   2.823  12.997  14.262 -0.1552 -0.0341  0.0341
33558W        W46972  16.693   7.316  10.454 -0.0451 -0.0316  0.1457
33559W        W46973   8.123  10.904  14.871  0.5149  0.1565 -0.0923
33560W        W46974   3.024   0.185  15.320  0.1853  0.1717  0.3967
33561W        W46975   1.671   7.485   2.384  0.3919 -0.1504 -0.0947
33562W        W46976   7.085   7.963  15.278 -0.1251 -0.0762 -0.3915
33563W        W46977  14.762  13.260  11.078  0.1275  0.3311 -0.1499
33564W        W46978  11.060   5.006  13.873  0.1058  0.0776  0.0077
33565W        W46979  16.965   3.470  15.324  0.0446  0.3566  0.2042
33566W        W46980  12.620   2.117   3.127  0.2627 -0.0892 -0.2156
33567W        W46981   7.839   8.055  13.010 -0.0609 -0.0486 -0.1703
33568W        W46982   8.053  11.129   2.233  0.1444 -0.1260  0.2859
33569W        W46983   3.135   1.387   5.722  0.3044 -0.4059 -0.1158
33570W        W46984  12.067   5.626   4.526 -0.1214 -0.4699  0.1009
33571W        W46985  13.859   7.866   5.809 -0.3977 -0.0336  0.1190
33572W        W46986  16.083  12.735   4.331  0.3092 -0.1253  0.1280
33573W        W46987  13.913   8.135   2.382  0.3535  0.0127 -0.2178
33574W        W46988  18.262  10.460  11.374 -0.1154 -0.3513  0.0630
33575W        W46989   2.519  17.881   0.081 -0.0066 -0.0125  0.0754
33576W        W46990   2.958  16.069  15.984  0.2210  0.4724 -0.1879
33577W        W46991  13.655  14.551   5.909 -0.2745 -0.0244  0.0690
33578W        W46992  10.216  18.054  11.994  0.1779  0.4613 -0.1508
33579W        W46993   8.981  18.067   4.270 -0.2573 -0.0892 -0.0221
33580W        W46994  15.873   5.975   4.096  0.2423  0.1056  0.0020
33581W        W46995   3.009   5.805  15.726  0.2952 -0.1100  0.1223
33582W        W46996   6.568  13.071   2.567  0.1898 -0.2123  0.1135
33583W        W46997  16.835   3.672  14.857 -0.4654  0.1528 -0.0683
33584W        W46998  12.502   9.934  15.489  0.2313  0.2330  0.2978
33585W        W46999  17.837   9.741   2.039 -0.2968  0.0815  0.1718
33586W        W47000  16.953  14.326   4.361  0.0955 -0.3442  0.3972
33587W        W47001   7.808  10.463  13.378  0.0536  0.1012 -0.0336
33588W        W47002  17.747   3.722  10.383  0.1487 -0.0488  0.0040
33589W        W47003  16.481  13.679   4.067  0.4927 -0.3452 -0.0626
33590W        W47004   5.048  13.097  16.383  0.0159 -0.1217 -0.0799
33591W        W47005  15.328  13.569   3.711 -0.3518 -0.3188  0.1585
33592W        W47006  10.082  16.228  12.104  0.1230 -0.4404 -0.1908
33593W        W47007   3.748   2.978  10.469 -0.0039  0.0866 -0.0875
33594W        W47008   2.699   9.409  11.553  0.3428 -0.0187  0.1445
33595W        W47009  14.494   1.941   4.283 -0.3774  0.0147  0.0129
33596W        W47010   5.059   4.597   5.742  0.0238  0.1699 -0.4408
33597W        W47011   9.573   4.370   1.773  0.0066  0.1913 -0.5006
33598W        W47012  15.968   1.969   2.126  0.0712 -0.1985 -0.1474
33599W        W47013   7.986  10.277   3.923 -0.0021 -0.3037 -0.1035
33600W        W47014  14.788   7.058  13.071 -0.0813  0.1567  0.1867
33601W        W47015  11.989   1.151  15.779  0.0622  0.1247 -0.0033
33602W        W47016   7.432  11.658  11.704  0.1934 -0.2661  0.2200
33603W        W47017  11.147   5.540   4.298 -0.0056 -0.1120  0.1520
33604W        W47018  10.932   2.937  13.065 -0.1934  0.0332 -0.2861
33605W        W47019   5.639   1.910   6.220  0.2315  0.2276 -0.0259
33606W        W47020   5.241   3.089  14.931 -0.2220 -0.2195 -0.0852
33607W        W47021  10.796  12.517  13.746  0.0048 -0.0267 -0.0095
33608W        W47022   6.992   9.270  15.676 -0.1125 -0.0985  0.0998
33609W        W47023  15.827   0.835   5.063 -0.0736  0.5582 -0.4085
33610W        W47024   5.467  10.634  14.935 -0.1414  0.1135  0.0087
33611W        W47025   3.793   2.349   1.263 -0.0363  0.2074 -0.2205
33612W        W47026  18.197   1.741   2.458 -0.0351 -0.0577  0.1267
33613W        W47027   5.915   9.858  12.055  0.2448  0.2875 -0.1954
33614W        W47028  16.149   1.260   4.913 -0.0142  0.3660 -0.0745
33615W        W47029   3.093  13.767  14.046  0.1915  0.0240 -0.2725
33616W        W47030  16.888  15.352   2.097  0.3647 -0.1554  0.1099
33617W        W47031   0.855   8.122   5.432 -0.0755  0.0717 -0.0468
33618W        W47032   7.456  13.032  15.651 -0.1461 -0.1169 -0.0049
33619W        W47033   0.146  16.114   6.271 -0.1348 -0.1571 -0.0697
33620W        W47034  17.342   8.210  11.784 -0.1138  0.0120 -0.2257
33621W        W47035  16.382  17.288   4.321 -0.0453 -0.2831  0.1785
33622W        W47036   1.901   3.768  12.806 -0.1712  0.1133 -0.1817
33623W        W47037   5.559   4.888  12.820 -0.0322 -0.1625  0.0894
33624W        W47038   8.301   9.226   3.796 -0.2016  0.0530 -0.1437
33625W        W47039   8.694   8.081   2.320  0.0129 -0.0336  0.0813
33626W        W47040  16.102  14.859   0.890  0.0855  0.1889  0.1896
33627W        W47041   1.352   5.959   2.951  0.2011 -0.2716  0.0573
33628W        W47042  13.732   1.563  12.565  0.1095  0.0764 -0.3281
33629W        W47043   6.101   8.662   3.984 -0.0502 -0.3716 -0.1629
33630W        W47044  11.041   4.312   5.259 -0.0190 -0.2849  0.2553
33631W        W47045  14.830  14.119  14.111 -0.3226  0.1127 -0.1560
33632W        W47046  10.578   7.781   0.084 -0.2493 -0.0241 -0.1116
33633W        W47047  11.525  10.036  16.546  0.3024 -0.1807  0.2335
33634W        W47048   0.914  14.938   5.566  0.3173 -0.0005 -0.0334
33635W        W47049  13.096  16.944  14.799 -0.1840 -0.0877 -0.0661
33636W        W47050  13.944  11.931   3.705 -0.2490  0.0745  0.3076
33637W        W47051  17.859   0.658   4.843 -0.0253  0.2392 -0.0560
33638W        W47052  13.501  15.721  15.555  0.0775 -0.1508 -0.3667
33639W        W47053   3.746  12.165  12.281  0.2778  0.2258 -0.1489
33640W        W47054   5.241   0.761   4.157 -0.1720 -0.0574  0.0708
33641W        W47055   1.834   0.152   1.017  0.1525 -0.0572  0.3526
33642W        W47056   0.135   9.858   3.680 -0.2125  0.0906  0.0128
33643W        W47057  18.165  11.649   5.723 -0.0818  0.1432  0.1254
33644W        W47058   1.923  14.200   4.884  0.0965  0.2957 -0.0022
33645W        W47059  10.772   5.950  10.783 -0.1676  0.2801  0.0626
33646W        W47060  13.297  13.255  13.413  0.1607  0.3025 -0.1406
33647W        W47061  11.669  10.951  14.324 -0.1398 -0.0671 -0.1018
33648W        W47062  16.670   3.433   2.758 -0.2200 -0.2617 -0.2071
33649W        W47063  17.151  11.489   3.952 -0.1067  0.1718 -0.3204
33650W        W47064  16.711  14.700   3.716 -0.0994 -0.4510  0.0019
33651W        W47065   5.812   7.383   2.614  0.1077  0.0877  0.3232
33652W        W47066  13.717  11.776  10.277 -0.0266 -0.5088 -0.2550
33653W        W47067  13.796   9.482   0.355 -0.1150  0.4708 -0.0054
33654W        W47068  12.526  13.029  15.681  0.2777 -0.2357 -0.0048
33655W        W47069  16.174  10.246  15.465  0.1493 -0.0212 -0.0399
33656W        W47070   7.837   2.924  15.090 -0.0078  0.2038  0.4306
33657W        W47071  17.056  10.883   1.880  0.0228 -0.2083  0.3050
33658W        W47072   9.347   9.755  14.571  0.1370 -0.2190  0.2644
33659W        W47073  16.973   4.055   0.275  0.1611 -0.2216  0.0089
33660W        W47074   5.468  15.910  12.251  0.1633  0.3140 -0.0568
33661W        W47075  12.018  11.827   2.962 -0.0801  0.0312 -0.0406
33662W        W47076   7.173   9.334  13.952 -0.1531  0.0958 -0.2551
33663W        W47077   8.562  17.600   4.243  0.3459 -0.2554  0.2151
33664W        W47078   7.456  14.575  13.811 -0.1877  0.1170 -0.3097
33665W        W47079   8.585  16.787   3.877  0.1444  0.4202 -0.0467
33666W        W47080  11.667   6.696  14.582  0.2059  0.2480 -0.1492
33667W        W47081   3.667   8.112  16.036  0.1205  0.2803  0.0469
33668W        W47082  14.214   7.312   1.993  0.5870  0.0194  0.0399
33669W        W47083  11.850  10.513   0.031 -0.0082  0.0002 -0.0817
33670W        W47084   4.785  10.089  14.880 -0.0011  0.0998 -0.1235
33671W        W47085  11.083   6.723  15.359 -0.4140  0.0281 -0.0321
33672W        W47086   1.051   0.063  12.133  0.0592  0.0342 -0.0761
33673W        W47087   9.986   3.541   3.536  0.0011 -0.1275 -0.0617
33674W        W47088  11.091  18.207   0.235  0.1816 -0.0686  0.0615
33675W        W47089  13.931   8.296   3.234 -0.2028  0.2188 -0.2596
33676W        W47090   9.289  15.257  15.264  0.0762 -0.1169 -0.1338
33677W        W47091   8.497   0.485   3.270  0.0694 -0.3041 -0.0546
33678W        W47092  14.372   7.384  12.689 -0.0730  0.0548  0.3243
33679W        W47093  12.870  18.026   4.472  0.1986  0.0667  0.0950
33680W        W47094   3.898   1.203   2.909 -0.2219  0.1998  0.0660
33681W        W47095   0.315   8.575  13.110  0.1866  0.2122  0.1035
33682W        W47096   8.884   9.111   2.229  0.0634  0.0345  0.0420
33683W        W47097  13.504   1.575  15.341 -0.1187 -0.0979  0.0533
33684W        W47098  18.204  12.862   6.140  0.2059  0.0787 -0.4378
33685W        W47099   6.708   7.256   3.401  0.0470 -0.1242 -0.1124
33686W        W47100  13.643   0.558   2.276 -0.0225  0.0107  0.0274
33687W        W47101  15.298  11.392   2.593 -0.1114  0.1316 -0.2321
33688W        W47102   1.625   1.515  12.402 -0.0427 -0.2470 -0.1558
33689W        W47103  13.548   0.349  12.589 -0.1821 -0.1268 -0.1323
33690W        W47104   6.132   8.166   3.705 -0.1276  0.1071  0.1182
33691W        W47105  11.849  10.379   0.861 -0.3545  0.3526 -0.0474
33692W        W47106  16.045  16.029  11.673 -0.0261  0.1755  0.0412
33693W        W47107  18.159  16.573   6.200  0.0594 -0.0923  0.2905
33694W        W47108   0.095   2.685  15.805  0.3078 -0.2284  0.4147
33695W        W47109  17.668   9.099   2.833 -0.0783 -0.4150 -0.0719
33696W        W47110   7.954   9.573   5.102  0.1103 -0.1903  0.2008
33697W        W47111   9.915  11.388   0.320 -0.0589  0.0965  0.1668
33698W        W47112   2.867  10.487   3.943 -0.1076  0.0314  0.2721
33699W        W47113   4.827   2.638   3.843 -0.2558  0.1753 -0.1063
33700W        W47114   7.938   6.834  14.314  0.1228 -0.1302  0.0007
33701W        W47115  10.290  10.764   4.208  0.2120  0.0219  0.1639
33702W        W47116   3.779  12.059  10.682  0.1191 -0.1480 -0.1354
33703W        W47117  16.974   7.752   1.453  0.1732  0.0730  0.2589
33704W        W47118  13.856   1.105  14.095 -0.3247 -0.0030  0.0442
33705W        W47119   4.197  10.168   1.567 -0.0344  0.0573  0.1250
33706W        W47120   1.791   3.166   1.456 -0.3146  0.0823 -0.0651
33707W        W47121  18.049   7.009   0.599  0.0203 -0.0154 -0.4092
33708W        W47122  15.285  13.887  13.978 -0.1635  0.2920 -0.4699
33709W        W47123  17.572  18.157   3.294  0.2736  0.0537 -0.3016
33710W        W47124   6.769  10.061  15.114 -0.0082 -0.1572 -0.0062
33711W        W47125   7.092  12.864   4.832  0.1151 -0.0990 -0.0153
33712W        W47126   2.767   8.751   2.884 -0.1244 -0.0695 -0.0182
33713W        W47127   6.725  15.751   2.098  0.1566  0.2080  0.3752
33714W        W47128   5.109   2.986   0.492  0.3088 -0.2439  0.2454
33715W        W47129   8.696  10.543   3.328 -0.0828 -0.2593 -0.0187
33716W        W47130   9.636  17.679  16.531 -0.0550  0.1373 -0.3801
33717W        W47131   4.382   7.959  13.948 -0.3239 -0.6234 -0.0749
33718W        W47132   5.949   6.867  14.363  0.2418  0.1471  0.0325
33719W        W47133   5.638   1.006   6.015 -0.1100  0.4495  0.1569
33720W        W47134  16.490   9.052  11.981 -0.0583  0.1262  0.2403
33721W        W47135   1.635   9.013   3.023 -0.4829 -0.1810 -0.2565
33722W        W47136   8.383  12.092  11.488  0.2369  0.2392  0.2413
33723W        W47137   2.692  15.230   5.088  0.0537  0.0780  0.2147
33724W        W47138  15.476   3.316   1.922 -0.0433  0.0045  0.1092
33725W        W47139  16.916   2.118  14.777  0.1126 -0.1172 -0.3585
33726W        W47140  17.674   1.002   2.093 -0.1732 -0.0246  0.0491
33727W        W47141   0.907  15.640   0.144  0.2399 -0.2375 -0.0064
33728W        W47142  11.384   2.619   3.595  0.0555 -0.0216 -0.0008
33729W        W47143   6.250  10.471   5.144 -0.1155  0.1125 -0.3111
33730W        W47144  16.539  11.457   5.089 -0.1029  0.0630  0.0228
33731W        W47145  11.891  12.737   3.874 -0.1035 -0.1983  0.0039
33732W        W47146   3.093   5.328  15.124 -0.0907 -0.3047 -0.1577
33733W        W47147   2.840   1.018   2.282  0.0220  0.0468 -0.0680
33734W        W47148  13.529  14.479   2.498  0.1707  0.3183  0.2125
33735W        W47149  15.206  11.026   4.620  0.3388  0.0993 -0.0438
33736W        W47150   8.864  11.791  15.838 -0.0726 -0.0702 -0.1868
33737W        W47151   8.304   5.509  10.602  0.0576  0.1533 -0.0056
33738W        W47152   1.102   6.825   2.502  0.4628 -0.1424 -0.0544
33739W        W47153   1.054  14.760   1.712 -0.0662  0.0641  0.1582
33740W        W47154  13.428   4.904   3.583 -0.1213  0.2980 -0.1523
33741W        W47155   8.688   8.544  13.383 -0.2801  0.0758  0.0896
33742W        W47156   5.167  14.201   2.994  0.0322 -0.1802  0.0825
33743W        W47157   0.923   8.590  12.357 -0.4262 -0.0570  0.0366
33744W        W47158   0.860   2.169   0.285  0.0204 -0.0589 -0.0041
33745W        W47159  11.491   9.235  15.897  0.1301 -0.0238 -0.1261
33746W        W47160  11.166   7.751   5.752 -0.1501  0.0536  0.2098
33747W        W47161   2.752   6.434   0.318 -0.0754 -0.0131  0.1119
33748W        W47162   9.754   2.741   2.635 -0.0447  0.2034  0.2448
33749W        W47163   8.199   2.549  13.575 -0.0789 -0.0662  0.0270
33750W        W47164   9.949   0.561  14.156 -0.1812 -0.2048 -0.0249
33751W        W47165   5.569  13.833   0.801  0.3214  0.0897 -0.0129
33752W        W47166   7.800   5.202  15.208 -0.0787  0.1619 -0.5237
33753W        W47167  15.332  15.336   3.776 -0.1145 -0.2642  0.3162
33754W        W47168  17.578   0.244  14.086 -0.0700  0.2355 -0.1596
33755W        W47169   8.545  13.929  15.767  0.1417 -0.0318 -0.0644
33756W        W47170  18.039   7.082   4.731 -0.3627  0.0574 -0.0520
33757W        W47171   1.657  14.226   3.683  0.2252 -0.2971 -0.1709
33758W        W47172   0.452   9.633   3.320  0.1330  0.1171  0.3872
33759W        W47173   3.152  14.652  12.090 -0.2597  0.0753 -0.2496
33760W        W47174  14.193  12.712  12.628  0.1892  0.3859  0.1031
33761W        W47175  13.066  17.944   4.940 -0.0299  0.2975 -0.0241
33762W        W47176  12.525   5.064   4.026 -0.0729  0.0979 -0.1146
33763W        W47177  10.981  10.952  11.296  0.0475  0.3688 -0.1373
33764W        W47178   2.659   2.962   4.141  0.0433  0.0765 -0.3302
33765W        W47179   9.908   7.160  12.583  0.2664 -0.0285  0.0158
33766W        W47180  11.329  17.227  14.468  0.2222 -0.0886  0.0870
33767W        W47181  13.067   3.577  11.653  0.1564 -0.2736  0.1251
33768W        W47182   8.584  15.645   6.525  0.0484  0.0428  0.3017
33769W        W47183  12.523  13.722   5.542 -0.0862  0.1860  0.1867
33770W        W47184   9.320  11.019  15.747 -0.2489 -0.1439  0.1073
33771W        W47185   9.950  10.797   2.289  0.2889 -0.0268 -0.0151
33772W        W47186  17.054   1.869  10.572 -0.2671  0.1770  0.2800
33773W        W47187  14.295  11.589  12.070  0.0850  0.0553 -0.2046
33774W        W47188  13.907  17.974  15.832  0.2725  0.1672  0.0565
33775W        W47189  16.161   8.852   3.551 -0.0321  0.1497 -0.1590
33776W        W47190  17.733   6.383   1.793 -0.1115  0.0209  0.1084
33777W        W47191   5.339   8.330   4.786  0.2609 -0.0786  0.1462
33778W        W47192   4.347  17.478  16.135 -0.2093 -0.0779  0.1516
33779W        W47193   4.252   0.185   4.959 -0.0262  0.0872  0.0734
33780W        W47194  14.566  17.053   3.567 -0.1553  0.1011  0.0406
33781W        W47195   9.616  11.804  11.284  0.2861  0.1401  0.2676
33782W        W47196   1.548  17.213  14.881 -0.0242 -0.2473  0.1062
33783W        W47197  11.396  18.022   0.947 -0.2585 -0.2013 -0.0213
33784W        W47198   6.530  10.622   3.155  0.0913 -0.0465  0.0383
33785W        W47199  12.810   6.890   1.901  0.2616 -0.2598  0.0604
33786W        W47200   8.433   9.171   0.152  0.1024 -0.2825  0.0319
33787W        W47201   7.093   9.252   0.774 -0.0098 -0.0158 -0.1678
33788W        W47202   7.855  10.514   2.450  0.0517  0.1851 -0.1466
33789W        W47203   2.740  13.185  15.761 -0.1040  0.0984  0.0484
33790W        W47204  16.686  14.202   3.677 -0.2192 -0.2026  0.2609
33791W        W47205   3.743   8.592  13.760  0.0564 -0.0252  0.2253
33792W        W47206   8.898   2.332   3.322 -0.0691  0.0623 -0.0130
33793W        W47207   1.467  15.178  14.159 -0.1105  0.0126  0.0703
33794W        W47208  11.487  14.848  14.920  0.2082  0.0405 -0.2241
33795W        W47209   0.143   9.940  10.825 -0.2568  0.2626 -0.1140
33796W        W47210  12.897   4.128   2.898 -0.0393  0.1735  0.1443
33797W        W47211   4.168   9.642  11.467  0.1254  0.2440  0.0255
33798W        W47212   1.967   2.579   3.139 -0.1767  0.1092 -0.0251
33799W        W47213  15.248  11.216   0.339 -0.1556  0.4671  0.1890
33800W        W47214   2.941  12.036   1.821  0.1053 -0.1881  0.3230
33801W        W47215   6.944  11.751   2.007  0.1995  0.0634  0.1241
33802W        W47216  12.000  16.141   2.477  0.0760  0.0304  0.0894
33803W        W47217   0.863  11.627  16.324 -0.0152 -0.1251  0.3490
33804W        W47218   4.366   1.081  11.265 -0.1202 -0.1145  0.2010
33805W        W47219  14.810  15.363   3.976 -0.1364 -0.2374 -0.1434
33806W        W47220   1.631  13.071  11.429  0.3205 -0.1155 -0.0903
33807W        W47221   5.331  17.791  15.361 -0.1479 -0.1172  0.0097
33808W        W47222   0.830  11.092  16.512 -0.0852 -0.1524  0.0502
33809W        W47223  13.860  14.479  14.377 -0.0406 -0.1300 -0.1734
33810W        W47224   9.484   7.554  12.664  0.3142  0.0412  0.0530
33811W        W47225   7.984   6.637  11.314 -0.1644 -0.3999  0.0481
33812W        W47226  15.725   5.792   1.954 -0.1386 -0.2057  0.1596
33813W        W47227   2.999   0.382   2.417 -0.3434 -0.2815 -0.2918
33814W        W47228  10.249   5.491  14.212 -0.0534  0.0176  0.4109
33815W        W47229   4.973   2.049  12.256  0.2455 -0.4041 -0.1846
33816W        W47230  13.003  14.995   2.622  0.0592 -0.0507  0.3645
33817W        W47231  11.933   8.989   1.655  0.0972  0.2259  0.2394
33818W        W47232  14.031   4.305   4.758 -0.0757 -0.0860 -0.0530
33819W        W47233   5.313  13.465  10.917 -0.0608 -0.1417  0.1146
33820W        W47234  11.203   0.470   1.046  0.2485 -0.3987  0.2710
33821W        W47235   5.475  16.864  12.727  0.0239 -0.0540 -0.1278
33822W        W47236   3.614  10.971  16.233 -0.0439 -0.0298  0.1810
33823W        W47237   5.746   0.277  15.811  0.0697 -0.1211 -0.0708
33824W        W47238  16.213  13.940   3.708  0.0403  0.3129  0.1783
33825W        W47239  13.395  12.359   0.837  0.0405  0.1928 -0.0668
33826W        W47240  13.769   2.859   5.401  0.2520  0.2878  0.2763
33827W        W47241  13.063   2.398   1.325 -0.1401  0.3222 -0.1892
33828W        W47242  11.176  10.392  15.960 -0.0702  0.0187 -0.2456
33829W        W47243   9.206  14.114   6.278  0.3166 -0.3140 -0.0672
33830W        W47244  17.016   4.035  14.346  0.2048 -0.2330 -0.1104
33831W        W47245   2.048   2.275  12.478 -0.1271 -0.0761 -0.1488
33832W        W47246  15.841   0.784   4.027  0.0428  0.0171  0.0045
33833W        W47247   7.007  17.704  13.505 -0.3804  0.0875 -0.0963
33834W        W47248   5.517   3.324   6.403 -0.0310  0.2579  0.3559
33835W        W47249   6.015  12.093  15.476  0.2893  0.0080  0.2656
33836W        W47250   5.892   7.173  16.310 -0.1207  0.1350  0.1090
33837W        W47251   7.949   5.566   1.524 -0.0193 -0.0268  0.0946
33838W        W47252  13.584  13.135   6.025 -0.2449  0.0899  0.2093
33839W        W47253   3.795   4.600  15.724 -0.3958  0.1687  0.1299
33840W        W47254  12.720  16.578  16.066 -0.1098 -0.4494  0.1821
33841W        W47255  14.868   4.742  10.639 -0.2301  0.2884 -0.0616
33842W        W47256   1.696  18.024   3.905 -0.0818  0.1689 -0.1830
33843W        W47257   4.737   0.810   3.432  0.0139 -0.3323 -0.1123
33844W        W47258  16.381  17.921  12.737  0.0847  0.2905  0.2745
33845W        W47259  13.502  11.092  11.524 -0.3981  0.0042  0.1191
33846W        W47260   2.777   2.227   5.144 -0.0667 -0.3413 -0.0779
33847W        W47261   9.424   3.549  15.152  0.3077 -0.1593  0.1182
33848W        W47262  10.536  15.542   2.364 -0.0659 -0.2082 -0.2132
33849W        W47263  12.598  15.492  15.164 -0.0796 -0.3719 -0.0525
33850W        W47264  13.191  13.105   5.633 -0.0289  0.2668 -0.1231
33851W        W47265  10.470  15.406   1.202  0.2127  0.4881  0.1172
33852W        W47266   4.815   0.572   1.330  0.3470 -0.2789 -0.0699
33853W        W47267  17.396   6.412  11.829  0.2109 -0.0309 -0.1588
33854W        W47268  14.846   6.100   1.858  0.0572  0.0717 -0.0334
33855W        W47269   1.735  16.479   4.767 -0.1738 -0.2425 -0.0093
33856W        W47270  10.449   2.889  15.509  0.1450  0.0802 -0.0025
33857W        W47271   3.179  12.828   5.279 -0.2200  0.0368 -0.0398
33858W        W47272   2.390   0.499   1.513  0.2372  0.0751  0.1114
33859W        W47273  13.655   7.444   1.772  0.2096  0.1213  0.0373
33860W        W47274  12.794  14.960  16.254 -0.0473 -0.2502  0.2248
33861W        W47275   6.588   1.553  14.406 -0.0368  0.0150  0.1688
33862W        W47276  15.475  17.482  16.353  0.2132  0.0984 -0.0418
33863W        W47277  14.007   2.850   4.938 -0.1120 -0.0390  0.0558
33864W        W47278  16.395   3.873  14.928 -0.1473 -0.0483  0.0317
33865W        W47279  16.572  16.552   4.711 -0.0086 -0.3828  0.0096
33866W        W47280   3.930  10.516  13.951 -0.0423 -0.0355  0.1236
33867W        W47281  11.077  14.052  12.376  0.1485  0.0156 -0.1579
33868W        W47282   1.160  12.035   4.585 -0.0174 -0.0495  0.3248
33869W        W47283  13.727   6.545  13.881  0.3609 -0.2571 -0.0427
33870W        W47284   3.331   4.209  16.500 -0.1145 -0.0843  0.0635
33871W        W47285  11.718  15.517   4.791  0.2218 -0.1927 -0.0322
33872W        W47286   2.097   6.750  15.554  0.2108 -0.1198  0.0801
33873W        W47287   0.732   7.599   5.250  0.0798 -0.1575  0.2567
33874W        W47288  12.289  11.692  16.474 -0.1090 -0.3554 -0.1640
33875W        W47289   3.146   3.214   0.936  0.0162  0.0164 -0.2078
33876W        W47290   7.903  11.195   0.722  0.0533 -0.0334  0.0171
33877W        W47291   1.731   1.959   0.786  0.0945 -0.1240 -0.0239
33878W        W47292   4.707   2.184  12.690 -0.1904  0.1100  0.1059
33879W        W47293  10.560  10.844  15.496 -0.0299  0.1410  0.0812
33880W        W47294  12.532  12.534   2.836 -0.3198 -0.2682 -0.1202
33881W        W47295   4.812  13.566  13.529 -0.0754 -0.3076 -0.3312
33882W        W47296  14.966  16.738  12.197 -0.5038 -0.2035  0.2800
33883W        W47297  13.653   0.590  14.928  0.1018  0.2328  0.1876
33884W        W47298   5.038   9.730  11.628  0.0701  0.0938 -0.0706
33885W        W47299  14.583   8.540  12.013 -0.0784 -0.0815  0.3268
33886W        W47300  11.751   1.574  13.396 -0.0415 -0.6427 -0.3367
33887W        W47301   5.848   3.464  15.826  0.1398  0.1662  0.1647
33888W        W47302   2.610   6.006   0.491  0.0148 -0.0271  0.0827
33889W        W47303   9.687   1.110  14.177  0.0052  0.2759 -0.0250
33890W        W47304   4.702  14.397  12.480 -0.3099  0.0936 -0.2191
33891W        W47305  10.939  14.326  13.703 -0.1159 -0.0382 -0.0745
33892W        W47306  11.216   9.583  14.757 -0.1493 -0.3078  0.0901
33893W        W47307   3.777  13.074   1.292  0.1512 -0.0382  0.1363
33894W        W47308   3.175  14.503  12.782 -0.2419  0.0501 -0.4104
33895W        W47309  12.803  15.679   3.578  0.1433 -0.0639 -0.2169
33896W        W47310  13.595   4.246  15.968  0.0557  0.0402  0.1380
33897W        W47311   6.161   8.610   5.290  0.1702 -0.0385 -0.0565
33898W        W47312   2.478  15.048  12.722  0.1312 -0.3302 -0.2839
33899W        W47313   3.260   3.125   1.403 -0.0845 -0.2540 -0.0307
33900W        W47314   0.479  11.104  13.147  0.0004 -0.6946 -0.2257
33901W        W47315  11.188  16.750  14.116  0.4152 -0.0912 -0.0189
33902W        W47316   8.035   9.125  15.759  0.1776 -0.1768 -0.2221
33903W        W47317   7.235  10.086   3.507  0.1913 -0.2940 -0.2656
33904W        W47318  15.526   4.979  14.950  0.1287  0.0775 -0.0784
33905W        W47319  18.259   3.597  16.542  0.0221  0.1226 -0.1261
33906W        W47320  14.446   6.914  13.403  0.2314  0.2349  0.0815
33907W        W47321   5.808  10.604  12.408  0.0184  0.1762  0.1097
33908W        W47322  16.319   9.711  13.584  0.4128 -0.1078  0.1083
33909W        W47323   7.990   8.164  15.916  0.1068 -0.1303  0.1896
33910W        W47324  10.467  12.572   3.941 -0.2309 -0.3174  0.0595
33911W        W47325  18.073   5.641   1.576  0.1850 -0.1347  0.2583
33912W        W47326   2.234   9.792  15.778 -0.2970  0.0967  0.0373
33913W        W47327   5.737  17.699  15.751 -0.0968 -0.1162  0.2999
33914W        W47328  10.984   7.355  13.740  0.0750  0.3826  0.0345
33915W        W47329   1.753   7.629  12.519 -0.0096  0.0910  0.0752
33916W        W47330   1.906   7.134  11.411  0.2381  0.0518 -0.0228
33917W        W47331  14.751   9.671  13.123  0.1589  0.2007 -0.1704
33918W        W47332  13.689  10.249   1.460 -0.1032  0.3733 -0.0553
33919W        W47333   9.883  16.730  16.403  0.1989  0.1643 -0.1594
33920W        W47334  13.738  11.944  15.701  0.3131  0.1105  0.2282
33921W        W47335   7.788   3.056  14.637 -0.0502  0.0467  0.2128
33922W        W47336  16.128  14.825   1.814  0.0809  0.0920 -0.1005
33923W        W47337   3.517  11.980  16.479  0.0528 -0.0794  0.2492
33924W        W47338   9.630  11.387   1.691  0.0539 -0.0471  0.0308
33925W        W47339   4.824   2.487   2.472  0.2080 -0.0149  0.1584
33926W        W47340   3.774  15.502   4.520 -0.1459 -0.0219  0.0427
33927W        W47341  13.489   8.698   3.849 -0.0383 -0.0022 -0.1130
33928W        W47342   3.781  13.159   0.057 -0.1744 -0.0608 -0.2319
33929W        W47343  18.167   0.244   1.936 -0.0140  0.1135  0.1623
33930W        W47344   6.961   6.511   4.344 -0.1049  0.2104  0.0079
33931W        W47345  10.841  11.318   0.034  0.0587  0.0657  0.2940
33932W        W47346  10.695  17.439   3.484 -0.4912  0.0203  0.6173
33933W        W47347   3.799   4.138   3.887 -0.1619 -0.2583  0.0751
33934W        W47348   1.118   1.021  10.545  0.1787 -0.0814  0.0613
33935W        W47349  12.913   2.612  12.189  0.3002 -0.3588 -0.3186
33936W        W47350  17.029  16.004   0.805 -0.1334 -0.0927 -0.1573
33937W        W47351  15.123   4.769   3.876  0.0463  0.2119 -0.1857
33938W        W47352   9.825  16.948   5.204  0.1876 -0.1824  0.1559
33939W        W47353   7.385   8.170  14.639 -0.0431 -0.0440 -0.0818
33940W        W47354   2.046  16.323  14.670 -0.0048 -0.1100  0.1389
33941W        W47355  16.082   0.242   0.952 -0.2442 -0.0474 -0.2037
33942W        W47356  17.280   0.204   2.198 -0.0874  0.2105  0.3732
33943W        W47357   0.582  16.703   0.860  0.3303  0.4242 -0.0681
33944W        W47358  12.353   2.394  12.306 -0.0321 -0.2574 -0.0500
33945W        W47359   8.526   5.909  15.290 -0.1703  0.1411 -0.0539
33946W        W47360  15.940  15.995  14.518  0.0332  0.1150 -0.3493
33947W        W47361  17.193   3.492  11.533  0.3047 -0.0047 -0.0926
33948W        W47362  13.116  14.735  13.724 -0.0846  0.1629 -0.0036
33949W        W47363   9.065   5.429  11.754 -0.0398 -0.0840 -0.0404
33950W        W47364  17.486   8.181   2.280 -0.3987 -0.2157  0.3662
33951W        W47365   3.398   7.409  14.702  0.2515 -0.0335 -0.0641
33952W        W47366   5.510  18.141  15.650  0.0574 -0.1350  0.1492
33953W        W47367  10.648   7.960   4.175  0.0030 -0.0702 -0.1287
33954W        W47368   8.728   4.473   4.159  0.0253 -0.0059  0.0255
33955W        W47369  11.272  14.093  11.902  0.2239 -0.1732  0.3223
33956W        W47370  12.360  11.077  12.683 -0.0876 -0.2539 -0.1123
33957W        W47371  11.171  17.785  11.513 -0.0503  0.0051 -0.0059
33958W        W47372   1.563  11.870   6.676 -0.0047 -0.2337 -0.0326
33959W        W47373   8.655   3.440  15.255 -0.0869 -0.1186 -0.0378
33960W        W47374   1.089  11.025   2.562 -0.0145  0.1726 -0.0283
33961W        W47375  14.727   0.540  12.585  0.2795 -0.1171 -0.0359
33962W        W47376  14.899  11.539   0.042 -0.1207  0.1193  0.2547
33963W        W47377  15.431  16.891   1.012 -0.2707 -0.2479 -0.2242
33964W        W47378  11.602  10.640  12.947  0.0088  0.0486 -0.2402
33965W        W47379  15.169   7.531   0.816  0.0617  0.1173  0.1730
33966W        W47380  17.078   9.236  12.522  0.0934 -0.1937 -0.0919
33967W        W47381  16.700   4.354  12.764 -0.1888 -0.0112 -0.2182
33968W        W47382  16.242   7.972   4.277  0.1365  0.0204  0.2328
33969W        W47383   1.806   5.731  16.440  0.0570 -0.0052  0.3349
33970W        W47384   7.110  16.569   3.732 -0.2418  0.0768  0.0012
33971W        W47385  16.704  15.989   3.599  0.0640 -0.2237 -0.2682
33972W        W47386  18.031  14.189   0.593  0.1254  0.1539 -0.2699
33973W        W47387   6.553   7.133  15.496 -0.2640 -0.3171  0.1088
33974W        W47388   4.850  16.280  12.901  0.0078  0.1738 -0.1176
33975W        W47389  14.501  10.020  13.397  0.0106  0.2644 -0.3631
33976W        W47390   0.549   1.807  15.898 -0.0011 -0.1649 -0.1937
33977W        W47391   1.102   0.577   5.961 -0.1129 -0.1892  0.0006
33978W        W47392  13.040   1.388  10.837  0.2869  0.0569  0.2904
33979W        W47393   4.611   6.749   1.243  0.2663  0.1426 -0.1267
33980W        W47394   4.552   3.919  11.029  0.0066 -0.3031  0.1504
33981W        W47395   8.678  13.085  12.605 -0.1081  0.0103 -0.1514
33982W        W47396   0.599   1.260   1.867 -0.4287 -0.0666  0.1569
33983W        W47397   5.045   8.402   1.779  0.1669  0.1594  0.0732
33984W        W47398   3.741   1.678   4.881  0.0608  0.0057 -0.1606
33985W        W47399   4.421  16.136  13.617  0.0994 -0.1145  0.0320
33986W        W47400  11.668  13.921  15.675 -0.0793 -0.3172  0.1537
33987W        W47401  15.235   9.180  11.054 -0.2988 -0.3781  0.1008
33988W        W47402  15.184  16.152  13.053 -0.2401  0.2398  0.0065
33989W        W47403  17.220   3.479   0.371 -0.0006 -0.1629  0.1952
33990W        W47404  17.937  14.445   1.026  0.1541  0.2530  0.2921
33991W        W47405   3.901   8.607  16.113  0.2687 -0.0444 -0.2856
33992W        W47406   4.595   8.294   1.021 -0.0594 -0.0418 -0.1176
33993W        W47407   8.033   2.336  13.107 -0.3676  0.0128 -0.1386
33994W        W47408   1.323  14.763  13.472 -0.2287 -0.0147  0.1830
33995W        W47409   6.865   9.443   2.032  0.0616  0.0610  0.3032
33996W        W47410  16.417   2.334   5.995  0.1573 -0.0196 -0.2037
33997W        W47411   6.060   9.509  14.319 -0.0410  0.2576 -0.1949
33998W        W47412   4.655  14.077   0.344 -0.2259  0.0070  0.1166
33999W        W47413  16.864  15.917   0.115 -0.1719  0.3757 -0.1256
34000W        W47414  12.259   6.462  13.463 -0.3676  0.1083 -0.0394
34001W        W47415  14.094   4.855  14.866 -0.2239 -0.2473  0.1589
34002W        W47416   9.219   5.405  13.108 -0.0858  0.2073  0.0832
34003W        W47417   7.742   1.942  12.964 -0.2612  0.0087 -0.2779
34004W        W47418  14.490   2.193   5.587  0.2009  0.1157 -0.2263
34005W        W47419  12.544   1.976   1.968 -0.0763 -0.1655  0.2607
34006W        W47420   2.593  16.057   6.502 -0.1333  0.2334 -0.1513
34007W        W47421  11.170   3.974  14.849 -0.0175 -0.0324  0.1461
34008W        W47422   7.574  14.793  13.373 -0.0206  0.4369 -0.0747
34009W        W47423  10.834   8.044  13.278  0.3112 -0.1847 -0.0965
34010W        W47424  14.120  13.233  15.183  0.0393  0.0232  0.2607
34011W        W47425  16.690   0.483   5.671 -0.0264  0.0449 -0.0336
34012W        W47426  17.791   0.315  11.912 -0.0241 -0.2320  0.0468
34013W        W47427  17.550  11.188   0.127  0.0756  0.4452  0.0243
34014W        W47428  15.190  11.730   2.234  0.1388  0.3880  0.0071
34015W        W47429   0.690   2.026   5.356  0.0976  0.0404  0.1693
34016W        W47430   9.339   6.358   0.605  0.0886  0.0072  0.0096
34017W        W47431   0.529   9.673   6.169 -0.0732 -0.1146  0.1380
34018W        W47432   8.518   0.687   1.852  0.0218 -0.0176 -0.0589
34019W        W47433   7.769  16.093  16.117  0.2137  0.0221  0.0340
34020W        W47434  12.360  12.661   4.510  0.1860  0.1301  0.0072
34021W        W47435   9.708   1.928  11.276 -0.0042 -0.1348  0.1967
34022W        W47436   4.984   2.712  11.856 -0.1454 -0.1881 -0.0807
34023W        W47437   2.699   9.900   0.116  0.1037  0.1708 -0.1450
34024W        W47438   6.560  17.381   5.981 -0.1369  0.0033  0.2073
34025W        W47439  12.662   1.425  16.243  0.1740  0.1436 -0.0626
34026W        W47440  11.518   5.094   5.833  0.0324  0.1083 -0.2136
34027W        W47441  10.321   8.148  13.460  0.0798  0.0106  0.0163
34028W        W47442  18.080   2.829   3.646 -0.0684 -0.0098 -0.0134
34029W        W47443  16.176   1.746   4.720  0.0537  0.3884 -0.3143
34030W        W47444  10.080  14.036  11.276  0.2354 -0.1914 -0.0116
34031W        W47445   9.240  14.527  16.022  0.0556  0.0274 -0.2328
34032W        W47446   6.832  11.095  15.448  0.0545  0.0153  0.1416
34033W        W47447  17.323   1.574   0.405 -0.0065 -0.2870 -0.0461
34034W        W47448   0.289  10.913  10.880  0.0367  0.1384 -0.1271
34035W        W47449   2.377   1.190   1.084  0.1014 -0.0043 -0.0271
34036W        W47450   1.479   0.210   5.298 -0.1163  0.1162  0.0088
34037W        W47451   7.683   5.154  13.130 -0.2210 -0.0849 -0.0776
34038W        W47452  10.022  17.206   4.146  0.1326 -0.0131 -0.0894
34039W        W47453  13.652   6.460  11.592 -0.1798 -0.2547 -0.0360
34040W        W47454  14.495   4.450   5.478 -0.0769 -0.3211 -0.0948
34041W        W47455  12.570  16.435  11.980 -0.0645 -0.0715 -0.1037
34042W        W47456   9.530  17.874   2.583  0.2248  0.1127  0.2754
34043W        W47457   4.076   2.123   0.839 -0.0131  0.2400 -0.0904
34044W        W47458   4.567  10.514   5.350 -0.0416 -0.0974  0.1623
34045W        W47459   5.399   3.673   1.743  0.4509 -0.3912 -0.0064
34046W        W47460  10.017  13.351   2.606 -0.0513 -0.0661  0.2116
34047W        W47461  13.955  11.465   4.909  0.1601  0.1197 -0.0078
34048W        W47462   4.572   9.976  13.868  0.0363  0.1537  0.2014
34049W        W47463  12.046   0.978  11.812 -0.2576 -0.2439  0.2064
34050W        W47464   4.940   7.429  13.591  0.2609 -0.0020  0.2717
34051W        W47465  17.566  16.385  10.717  0.0978 -0.1143 -0.0623
34052W        W47466  16.998   2.097   0.367  0.3102  0.1250  0.0583
34053W        W47467  16.921   2.018  15.345  0.0187 -0.0344  0.0649
34054W        W47468  10.954   6.674  12.973  0.2631  0.0978  0.1647
34055W        W47469  16.311   4.191   2.939  0.2181  0.0716 -0.2139
34056W        W47470  16.182   1.111   5.422  0.3639  0.1030 -0.2288
34057W        W47471  13.682  17.713  16.344 -0.1823 -0.0507 -0.1129
34058W        W47472  16.776   2.376  11.753 -0.1617  0.1108  0.0128
34059W        W47473  13.902   4.583  13.021 -0.2521  0.0825 -0.1784
34060W        W47474  14.372   1.837  13.231 -0.1016  0.4104  0.1409
34061W        W47475  15.227   9.754  13.011  0.1946  0.2123  0.1410
34062W        W47476  17.706  12.493  15.863 -0.1050 -0.0774  0.1924
34063W        W47477  16.243   7.087   4.138 -0.0695  0.1653  0.0430
34064W        W47478  15.211   3.872   0.324 -0.0608  0.0541  0.0072
34065W        W47479  10.739   1.378  14.855  0.0366  0.0388  0.0240
34066W        W47480   7.819   0.494   0.317 -0.0468 -0.0087  0.0509
34067W        W47481   1.267  11.619  15.206  0.0488  0.0265 -0.3057
34068W        W47482   5.691  18.056  16.547  0.1176 -0.2578 -0.0294
34069W        W47483   9.142  10.539  12.540  0.1899  0.0057  0.4101
34070W        W47484   6.305   2.580   3.661 -0.2091 -0.1046 -0.0688
34071W        W47485  15.436   9.762  14.319 -0.2423 -0.0520  0.0484
34072W        W47486   4.284   8.355   4.162 -0.1602  0.0928  0.0358
34073W        W47487  14.514   9.647  11.761 -0.2351  0.2842  0.0610
34074W        W47488   3.978   7.548  11.112 -0.0617 -0.2749  0.1037
34075W        W47489   7.234   7.221   3.344 -0.0065  0.1854 -0.0300
34076W        W47490   5.888  14.057   6.310 -0.2701  0.3371 -0.3807
34077W        W47491  11.907  11.593  12.144 -0.0362 -0.1398  0.0152
34078W        W47492  17.893  16.187  16.525 -0.1524  0.0046 -0.3327
34079W        W47493  18.035  13.730  13.445 -0.1465  0.2727 -0.1393
34080W        W47494  17.414   6.423   4.755 -0.0671 -0.3511 -0.2943
34081W        W47495   5.133   9.224  14.489  0.3285  0.1938  0.2869
34082W        W47496   4.720   5.893  12.788  0.0266  0.2340  0.0423
34083W        W47497  14.695   1.460   2.576 -0.1912  0.1245  0.0285
34084W        W47498   3.030   9.801  15.653 -0.1893  0.3034 -0.2117
34085W        W47499   8.239   5.784   3.161 -0.5312  0.0940  0.0734
34086W        W47500  14.596  16.602  13.477 -0.0644  0.1985  0.0379
34087W        W47501  10.138   3.574  11.296 -0.0843 -0.2426  0.2023
34088W        W47502   6.208   6.928  10.056  0.0252 -0.3119 -0.2113
34089W        W47503   4.154  14.183  16.072  0.0561 -0.2875 -0.1159
34090W        W47504  16.265  17.889   3.253  0.2136 -0.1020 -0.1355
34091W        W47505  11.857  11.244   1.867  0.1671 -0.2503  0.4410
34092W        W47506   5.083   2.133  15.372 -0.3044  0.0097  0.0224
34093W        W47507   7.659  10.827  15.653 -0.1162 -0.0601  0.0140
34094W        W47508   2.592   6.720  13.771  0.1289  0.2466 -0.0736
34095W        W47509   8.667  14.885  12.104  0.0743 -0.0646  0.1482
34096W        W47510   9.127   5.968   5.473 -0.5087 -0.0358 -0.2539
34097W        W47511   2.183   4.394  13.315 -0.0356  0.2363  0.3108
34098W        W47512  11.490  14.445   2.882  0.0734  0.1793  0.0542
34099W        W47513   0.114   0.958   3.818 -0.2104 -0.0314 -0.0677
34100W        W47514  16.065   9.098   0.950  0.2761  0.0951  0.0506
34101W        W47515  14.491  18.195  14.937 -0.0264 -0.1399  0.2607
34102W        W47516   9.592   7.488   2.133 -0.0715  0.0380 -0.1014
34103W        W47517   2.933  13.375   0.934 -0.2054 -0.0785  0.3037
34104W        W47518  17.883  10.491  16.052 -0.1630  0.2991  0.2268
34105W        W47519   7.074  13.118  13.039 -0.2585 -0.0778  0.2733
34106W        W47520   1.832   9.655   0.487 -0.0185  0.0708  0.1257
34107W        W47521  11.659   5.832  15.492 -0.1707  0.1549 -0.0310
34108W        W47522   4.847  17.739  15.392  0.0241  0.1601  0.1964
34109W        W47523   4.158   3.869   4.249 -0.0511 -0.0729  0.3062
34110W        W47524  13.965   1.448  13.007  0.1632 -0.0781 -0.2325
34111W        W47525   6.227  14.995  12.619 -0.0719  0.0627  0.2204
34112W        W47526   4.054   5.677   4.951 -0.5057 -0.0487  0.0601
34113W        W47527   8.450  13.080  14.124  0.2011 -0.1213  0.2544
34114W        W47528  16.103  11.934   1.626 -0.1988 -0.3060 -0.4703
34115W        W47529   4.758  11.239   1.796 -0.0365  0.0424 -0.0427
34116W        W47530   9.936   8.931   5.225 -0.1122  0.3166  0.3935
34117W        W47531  15.071   2.486   3.419 -0.2683 -0.1503 -0.2570
34118W        W47532  17.623   5.018  15.128 -0.0819 -0.1710 -0.1005
34119W        W47533  12.586  17.274  16.543 -0.0318 -0.1551  0.3188
34120W        W47534  11.740   8.353   4.015  0.0069  0.1817  0.0484
34121W        W47535   9.851   8.578   5.622 -0.2924 -0.1292  0.0085
34122W        W47536   2.086   5.762   1.766 -0.0592 -0.1806  0.0696
34123W        W47537  11.774  11.920   4.932  0.1008 -0.1686  0.1333
34124W        W47538   2.839  15.317  12.407  0.0490 -0.0375 -0.1316
34125W        W47539  13.624   0.260  13.583 -0.3220 -0.1264  0.0073
34126W        W47540   1.704  15.013   4.487 -0.0091 -0.1230 -0.0685
34127W        W47541  10.084  18.068  15.618  0.1190  0.1227  0.0520
34128W        W47542  12.875  16.764   3.495 -0.0309 -0.2737  0.1232
34129W        W47543  12.923  17.549   4.647  0.0023  0.3630 -0.0480
34130W        W47544  12.704  14.682  12.168  0.3572  0.1951 -0.1489
34131W        W47545  10.972  12.409   3.899  0.1555  0.2263 -0.0255
34132W        W47546   8.651   6.839  10.999  0.0131  0.1508  0.0397
34133W        W47547   7.833  11.305  11.180 -0.1095 -0.1078 -0.1057
34134W        W47548  11.653   0.343   2.231  0.1308 -0.0567 -0.1305
34135W        W47549   1.499  14.041  12.373 -0.1241 -0.1953 -0.0817
34136W        W47550  16.113   6.556   2.454 -0.1296 -0.0534  0.2011
34137W        W47551   2.352  16.085  12.560  0.1738 -0.1904 -0.1407
34138W        W47552   3.537   6.670   4.238  0.3624  0.0484 -0.2095
34139W        W47553   7.713   2.160  14.873  0.0096 -0.1471  0.1350
34140W        W47554  11.692   2.769   2.636  0.1432 -0.0448  0.0974
34141W        W47555  12.515  10.280   3.221 -0.1532 -0.0711 -0.1489
34142W        W47556  12.474  13.012   2.649  0.0770 -0.0928  0.1042
34143W        W47557  14.708   2.957  12.629 -0.0801 -0.1643  0.1704
34144W        W47558  13.589   4.383  11.289 -0.0086 -0.2016 -0.0150
34145W        W47559   8.754   9.308   0.573  0.2923  0.2256  0.2070
34146W        W47560  10.424  11.986   3.318  0.1297 -0.1981  0.0795
34147W        W47561  10.847   5.007   1.475 -0.1637 -0.1744  0.1041
34148W        W47562  15.750   3.923   9.649 -0.0348 -0.0906  0.0174
34149W        W47563  18.128   7.239  14.697  0.0503  0.1430  0.0239
34150W        W47564  18.256  11.213   4.837 -0.0082 -0.1202  0.2576
34151W        W47565   5.977  14.891   5.499  0.0831  0.2982 -0.1353
34152W        W47566  15.524   6.023   6.009 -0.0070 -0.1045 -0.1111
34153W        W47567   2.708   4.923  16.226 -0.1554 -0.2614  0.0055
34154W        W47568  10.884  17.320   2.620  0.2411 -0.4342  0.0278
34155W        W47569   4.708  17.802  11.954 -0.1243  0.0043  0.1847
34156W        W47570  10.989   5.809  12.505 -0.0500  0.3095 -0.2813
34157W        W47571   8.222   9.594  14.756  0.0425 -0.1693  0.0225
34158W        W47572   0.290  16.257   3.521 -0.3430  0.1062  0.2024
34159W        W47573  16.043   3.587   6.012 -0.1041 -0.1905  0.2100
34160W        W47574  17.832   5.938  15.869 -0.1889 -0.0903 -0.1644
34161W        W47575  16.682   8.940  11.549 -0.2207 -0.0402 -0.0707
34162W        W47576   6.225   5.837   1.338  0.2264  0.0349  0.2067
34163W        W47577   0.568   6.710   4.833 -0.0798 -0.0834  0.0173
34164W        W47578   3.995   0.952   5.928  0.3947  0.0274 -0.1453
34165W        W47579   6.040  15.188  14.701 -0.0604 -0.4090  0.0857
34166W        W47580   5.892   5.906   0.773  0.1458  0.2446  0.2188
34167W        W47581   9.196   4.064   2.719 -0.0117  0.2355  0.0266
34168W        W47582   1.583   5.591  13.928  0.4185  0.2736  0.0215
34169W        W47583   1.325  13.457   3.272  0.0488 -0.0034  0.3271
34170W        W47584  16.086   5.001   3.547  0.1150 -0.1292 -0.2638
34171W        W47585  16.979  15.371  15.780  0.0006  0.0177 -0.2840
34172W        W47586   3.057  13.039  16.126 -0.3782 -0.0452  0.2021
34173W        W47587   6.496  13.519   1.236  0.1271 -0.3270  0.0621
34174W        W47588  12.777   7.854  14.061 -0.1023 -0.3307  0.1754
34175W        W47589   8.160  16.920   1.833  0.0285 -0.0674  0.1102
34176W        W47590   1.546   2.023  13.622  0.1664  0.0987 -0.0717
34177W        W47591   9.832  17.597  13.625  0.1895  0.1765  0.0843
34178W        W47592  13.360   5.099  11.937  0.1264 -0.1126  0.0881
34179W        W47593   8.787  17.922  14.368 -0.1013  0.0162  0.2928
34180W        W47594  17.843   5.918   2.532  0.0173 -0.0975  0.1350
34181W        W47595   6.730   5.976  13.465 -0.3569 -0.2437 -0.1887
34182W        W47596   2.779   6.515   2.558 -0.1243  0.0081 -0.1470
34183W        W47597   9.947   6.850   4.384  0.1376  0.0335 -0.0280
34184W        W47598   1.486  14.822   5.289  0.1187 -0.0744  0.0764
34185W        W47599   6.968  10.495  12.970  0.0832 -0.1157  0.1790
34186W        W47600  13.236  12.649  15.307  0.0136 -0.0280 -0.1913
34187W        W47601  13.716   9.319  14.692 -0.1325 -0.1364  0.4163
34188W        W47602   1.696  11.210  12.113 -0.3293  0.0018 -0.2473
34189W        W47603   2.487  17.063  16.182 -0.0190  0.0854 -0.3405
34190W        W47604   8.474   2.183  15.974  0.1348  0.1889  0.2500
34191W        W47605   1.433  10.845  15.780 -0.1610 -0.1978  0.2284
34192W        W47606  15.778   3.949  14.963  0.0220 -0.3968 -0.1745
34193W        W47607  13.706   1.468   4.708  0.1256 -0.0731  0.2294
34194W        W47608  17.664  14.661  13.828 -0.1544 -0.0352  0.1001
34195W        W47609  15.588   7.738  15.413  0.1866 -0.1375  0.0819
34196W        W47610  12.668  16.195   5.254  0.0820 -0.0169 -0.1784
34197W        W47611   0.978   9.197  15.140 -0.1375  0.2421 -0.0551
34198W        W47612   9.779   0.211  13.548  0.1203  0.0594 -0.1768
34199W        W47613   8.606  13.805   1.809 -0.0498  0.3116 -0.0402
34200W        W47614  14.747  13.699   4.239 -0.0881 -0.2410 -0.1204
34201W        W47615   7.480   2.251   4.917 -0.0464 -0.1147 -0.1689
34202W        W47616  18.283   5.012  15.998 -0.0528  0.1039  0.2173
34203W        W47617   9.019  10.811  15.153  0.1587 -0.4841 -0.0432
34204W        W47618   5.533   5.562   0.524 -0.1626  0.2199 -0.1802
34205W        W47619   9.269   9.935   5.409 -0.1599  0.1133  0.2016
34206W        W47620   7.208   3.606  14.185  0.1802  0.0008  0.0234
34207W        W47621   6.000   1.899  15.634 -0.2666  0.1834  0.0060
34208W        W47622   7.250  15.775   1.379 -0.0108 -0.0356 -0.0708
34209W        W47623  12.182   9.849   1.437 -0.0270  0.0454 -0.3314
34210W        W47624   0.901   8.231  15.191 -0.2821 -0.1015 -0.2903
34211W        W47625   1.700   3.442  11.195 -0.4411  0.2762 -0.0583
34212W        W47626  16.233  14.435  11.555 -0.1377  0.1025  0.3743
34213W        W47627  15.684  11.082  14.973  0.3264  0.0593  0.0240
34214W        W47628   0.895   9.891  13.159  0.4161  0.3512 -0.1999
34215W        W47629  15.629   9.648   5.461  0.1951  0.1455 -0.1697
34216W        W47630  13.533   7.290  14.246 -0.1976  0.1196  0.0198
34217W        W47631   0.527  15.770  16.390 -0.0080 -0.2630 -0.0504
34218W        W47632   6.582  18.191   6.594  0.2275  0.1333  0.3091
34219W        W47633   5.141   9.516   0.438  0.1000 -0.0748  0.1901
34220W        W47634   9.694  17.601   5.471  0.0235 -0.0466  0.1101
34221W        W47635  17.726   0.933  15.596  0.1410 -0.0182  0.1854
34222W        W47636   6.445   3.600  10.274  0.1130  0.1628  0.1449
34223W        W47637   9.712   4.159  14.081 -0.0328  0.2250  0.2834
34224W        W47638  16.970  11.848  14.742  0.1459 -0.0857 -0.1230
34225W        W47639   5.872  15.658   1.521  0.0163 -0.0094  0.1773
34226W        W47640  15.275   8.788  14.242 -0.0322  0.2690 -0.3487
34227W        W47641  15.234   3.377  16.042  0.1076 -0.0973 -0.1734
34228W        W47642   8.220   2.141   2.118 -0.2401  0.0504 -0.0233
34229W        W47643   4.743   4.026   3.508 -0.0021  0.2950  0.0174
34230W        W47644  13.354   0.271  13.065  0.3660  0.0356  0.0128
34231W        W47645   9.489  16.665  13.619 -0.1386 -0.3090 -0.0355
34232W        W47646  12.549  11.862   1.423  0.0797  0.0817 -0.1580
34233W        W47647   9.941   3.051   4.519 -0.1396  0.2038 -0.1633
34234W        W47648   7.449   2.330  13.127 -0.0181  0.1004  0.3626
34235W        W47649  13.985  15.556  14.363 -0.1865 -0.3649 -0.1854
34236W        W47650  18.233  11.962   2.585 -0.0208 -0.0283  0.1089
34237W        W47651  11.198   4.167  14.387  0.0122 -0.3043  0.1538
34238W        W47652   5.168  13.633   5.098 -0.2690 -0.0426 -0.0410
34239W        W47653  16.491   2.511  12.700  0.0932  0.0198  0.0454
34240W        W47654   2.777   6.285  11.878 -0.1012 -0.0426  0.1495
34241W        W47655   2.151  16.548   5.976  0.0666 -0.3005  0.0591
34242W        W47656  11.946   1.658   3.271 -0.1047  0.1203  0.0210
34243W        W47657   6.124   7.421  12.746 -0.1188  0.1896  0.1179
34244W        W47658  15.919   4.400   4.476 -0.0814  0.1135  0.2819
34245W        W47659   4.548  10.025   2.729  0.2537 -0.1142 -0.0955
34246W        W47660   4.227   7.264   5.272 -0.0620 -0.4423 -0.0897
34247W        W47661   8.306   2.302   4.687 -0.0758  0.1394  0.1287
34248W        W47662  16.405  12.157   3.758 -0.1980  0.0663 -0.0119
34249W        W47663  15.389  10.766   4.256 -0.2303 -0.1257  0.0972
34250W        W47664   4.472   2.990  13.134  0.0806  0.0513  0.1648
34251W        W47665  12.958  15.325   0.136 -0.1154 -0.1878  0.0017
34252W        W47666  12.245   2.941  12.804 -0.1015 -0.1400 -0.1333
34253W        W47667  12.521   2.359  15.927  0.0326  0.2121  0.1233
34254W        W47668   7.518   2.979  15.916 -0.3580  0.0257 -0.0530
34255W        W47669   7.321  18.207   2.877  0.2120  0.0164  0.0068
34256W        W47670  14.707  17.537  14.960  0.0600  0.1393 -0.2965
34257W        W47671   7.364   3.401   4.578  0.3355 -0.2366  0.1379
34258W        W47672  14.862  11.637  13.168 -0.2672 -0.1918 -0.0665
34259W        W47673  17.490   7.709   4.025  0.0196  0.1169  0.0388
34260W        W47674   5.336  12.283  11.613  0.1334  0.2308 -0.0765
34261W        W47675  13.101   2.718   5.859  0.1294  0.3273  0.3023
34262W        W47676   1.133  15.044   3.566  0.0930  0.2421  0.0202
34263W        W47677  16.264  17.838  11.760 -0.4396 -0.1756  0.2345
34264W        W47678   8.671   3.509   5.700  0.0778  0.2164 -0.0579
34265W        W47679   3.404   2.580  11.135  0.2663  0.4285  0.1513
34266W        W47680   1.002   0.300  14.201 -0.0258  0.2324  0.2937
34267W        W47681  15.530  10.027  11.688 -0.1759 -0.0210 -0.3009
34268W        W47682   7.301   1.624   6.166 -0.1934  0.1544  0.0657
34269W        W47683   6.445  11.736  13.003  0.2191  0.1756 -0.0797
34270W        W47684   0.100  14.013   2.684 -0.1144  0.1654  0.2139
34271W        W47685  16.745   1.672   4.608  0.2341 -0.0922  0.1273
34272W        W47686   1.309   2.308  14.985 -0.0672 -0.0388  0.3103
34273W        W47687  12.258   3.824  15.090 -0.1571  0.0312 -0.2571
34274W        W47688   0.463  12.673  10.877  0.2245 -0.3410 -0.1274
34275W        W47689   8.503  16.667   1.648  0.0473  0.2199 -0.1985
34276W        W47690  15.512   3.188  15.088 -0.3617 -0.0995 -0.0781
34277W        W47691   4.457   8.450  16.016  0.1781 -0.2088 -0.3600
34278W        W47692   1.272   2.018  11.696  0.1177 -0.2662  0.4393
34279W        W47693   0.900  10.349   0.794  0.2750 -0.1826  0.1717
34280W        W47694  14.021   1.971   0.276  0.4233  0.1703  0.0390
34281W        W47695  12.538  12.571   0.683  0.2144 -0.2555 -0.0600
34282W        W47696  16.364  15.580  13.656 -0.0534  0.0874  0.2657
34283W        W47697   8.931  11.586  10.135 -0.2601 -0.0618  0.1729
34284W        W47698  11.361   8.736   4.733  0.0090 -0.0443  0.0426
34285W        W47699   3.530   7.559   2.614  0.5122 -0.0360  0.0487
34286W        W47700   2.849  17.709  11.805 -0.0355  0.2511  0.1482
34287W        W47701   6.053  16.361   2.677 -0.2743  0.1190 -0.1606
34288W        W47702  15.947  13.406  13.315  0.1647  0.2278 -0.4032
34289W        W47703   4.459   2.762  14.798  0.2926 -0.1153  0.0358
34290W        W47704  11.170   1.010   1.170 -0.1934 -0.0355  0.0960
34291W        W47705   9.010  15.388  15.677  0.0684  0.0324 -0.3855
34292W        W47706  13.753   1.322   2.793 -0.1708  0.2066  0.0309
34293W        W47707   3.589  11.564   3.308  0.2186  0.0767  0.1686
34294W        W47708   4.175   0.030   0.034  0.5435  0.2632 -0.0931
34295W        W47709  11.030   1.366   3.709 -0.1826  0.1182  0.0417
34296W        W47710  14.898   7.912  16.289  0.0938 -0.0517  0.0613
34297W        W47711  17.818  14.939   1.222 -0.2810 -0.0546 -0.0333
34298W        W47712   6.572   8.126  15.120  0.2017  0.1133 -0.0745
34299W        W47713  17.689   6.064  11.284  0.1764 -0.0432  0.0986
34300W        W47714  11.244   2.490  11.452  0.0221 -0.0907  0.1645
34301W        W47715   9.514   1.807   2.120 -0.0110 -0.2621 -0.0530
34302W        W47716  17.451   6.169   0.892 -0.2270 -0.0392 -0.2792
34303W        W47717  14.838   8.491  14.566  0.0646 -0.1028  0.1806
34304W        W47718  17.626   9.392  14.721 -0.1079 -0.1526  0.0297
34305W        W47719   8.170   6.787  14.728 -0.1169 -0.0235 -0.0741
34306W        W47720  14.026   4.305  13.476 -0.2443 -0.0370  0.0468
34307W        W47721   7.718   3.395  15.020 -0.5331 -0.0861 -0.0259
34308W        W47722  14.315   6.062  11.071 -0.1180  0.2147 -0.1510
34309W        W47723  17.790  16.249  12.962 -0.1634  0.0730 -0.1052
34310W        W47724  15.042   3.834  13.371  0.3273  0.4565  0.2312
34311W        W47725   7.510   1.058  13.644 -0.0916 -0.1491 -0.0368
34312W        W47726   3.242  12.288  16.164  0.0284  0.2376  0.2229
34313W        W47727   4.740  17.467   6.015 -0.0745 -0.0787 -0.1355
34314W        W47728   4.087  10.480   1.907 -0.0500  0.1694 -0.3932
34315W        W47729  16.945   6.684   2.091  0.2514 -0.2192  0.3576
34316W        W47730  17.059   2.088   4.854  0.5108  0.1842 -0.2870
34317W        W47731  12.809  17.580   2.368  0.3558  0.0590 -0.0151
34318W        W47732   2.812   7.895   3.196  0.0755 -0.1260 -0.3092
34319W        W47733   4.771   7.009  10.710  0.1054 -0.4371 -0.1889
34320W        W47734   7.273   8.655  10.437 -0.0541  0.1805 -0.1458
34321W        W47735   0.918   0.992   5.702  0.0367  0.0292  0.3628
34322W        W47736   4.433  12.977   3.537  0.0611  0.1996 -0.1432
34323W        W47737   9.462  12.692  11.465  0.1867  0.2352  0.0454
34324W        W47738  16.476   8.014   2.409 -0.0483  0.0067  0.0613
34325W        W47739   2.284   3.235   4.345  0.1750 -0.0001  0.1574
34326W        W47740  14.881   9.419  11.378 -0.0773  0.1978 -0.1739
34327W        W47741  15.710   3.374   5.360 -0.1603 -0.0222  0.3959
34328W        W47742  15.985  14.895  12.933 -0.1292  0.0435  0.0520
34329W        W47743   7.319   3.982   5.389  0.0064 -0.1004 -0.0246
34330W        W47744   0.569   2.914  10.694  0.1590 -0.3734 -0.0485
34331W        W47745  12.037  17.184  10.806 -0.2201 -0.3817  0.1715
34332W        W47746  11.590   2.461  12.918 -0.1039  0.2592  0.0739
34333W        W47747   8.098   0.696   1.608 -0.0930  0.0151 -0.0650
34334W        W47748   0.253   5.848  14.610  0.3458  0.1498 -0.0220
34335W        W47749  17.884   8.163  13.194  0.1302 -0.3053 -0.2012
34336W        W47750   5.000   5.531   5.222  0.0072 -0.3197  0.3509
34337W        W47751  17.335   0.810   2.896  0.0020  0.2225 -0.3053
34338W        W47752  16.191   7.523   5.569 -0.0979 -0.0066 -0.3069
34339W        W47753   4.658  16.948  12.343  0.0718 -0.0820 -0.2128
34340W        W47754  13.552  16.905   2.151  0.0417  0.0095 -0.1793
34341W        W47755   6.011  14.700   0.934 -0.1757  0.2857 -0.3094
34342W        W47756  12.923   6.275  16.034  0.2677 -0.0774 -0.1597
34343W        W47757  11.007  12.035  13.812 -0.0514  0.0221  0.3442
34344W        W47758   8.539  15.961   1.818  0.1183  0.2656  0.0465
34345W        W47759  12.556   0.056   1.840  0.0817 -0.0986 -0.2100
34346W        W47760   2.188  12.806  10.789  0.1890 -0.1684 -0.2653
34347W        W47761   1.515   4.402   3.318  0.1896 -0.2530  0.0579
34348W        W47762  12.472  14.315   5.401  0.1073 -0.0328 -0.0750
34349W        W47763   2.668   7.363  12.579  0.1350 -0.0151  0.0804
34350W        W47764  14.104   3.807  10.778  0.0296  0.0836  0.0428
34351W        W47765   2.086   2.597   5.153  0.2875 -0.2167 -0.1084
34352W        W47766  12.061   8.148   3.668  0.2545 -0.0444  0.1670
34353W        W47767   6.742   0.869   6.358 -0.1675 -0.3805 -0.0353
34354W        W47768   5.510  17.468  12.206 -0.1238 -0.1156 -0.2125
34355W        W47769  10.170   0.431   6.587 -0.0989  0.0267 -0.4195
34356W        W47770   6.136  11.390   3.323  0.0012 -0.0131  0.4112
34357W        W47771   3.571   2.162   2.056 -0.0064 -0.2342 -0.0269
34358W        W47772   5.896   8.131   5.968  0.0632  0.2130 -0.0246
34359W        W47773  12.488  16.897   3.086 -0.1215 -0.0164  0.0674
34360W        W47774   2.251  14.818  15.744  0.0616 -0.0505 -0.2689
34361W        W47775   2.518  14.814  15.182 -0.0977  0.2023  0.2552
34362W        W47776   6.470  18.235  15.305  0.0888  0.0364 -0.0684
34363W        W47777   5.018   3.585   2.088  0.0673  0.0455  0.1463
34364W        W47778   8.674  14.635   5.137 -0.2375 -0.2282 -0.0006
34365W        W47779   5.546   4.620  12.055  0.1414 -0.0850 -0.1584
34366W        W47780  17.637  17.492   4.530  0.0351  0.2251 -0.2666
34367W        W47781  10.126   1.470  13.477 -0.3543 -0.0940  0.0645
34368W        W47782  16.876   1.522   1.897  0.0682 -0.1585 -0.0606
34369W        W47783   6.685   7.472   4.172  0.1538 -0.3023 -0.0752
34370W        W47784  16.033   9.295  15.716  0.3158  0.3542  0.0963
34371W        W47785  10.967   5.565   2.545  0.0221  0.2806  0.1167
34372W        W47786  14.402  10.860   5.225  0.0132  0.2456  0.3002
34373W        W47787  12.642   9.270   3.214 -0.1103  0.1484  0.4636
34374W        W47788  12.556   0.759   1.430 -0.0192 -0.1479 -0.0784
34375W        W47789  18.001   7.757   4.065 -0.1404 -0.0342  0.0800
34376W        W47790   8.129  11.272   5.230  0.3851 -0.0781 -0.0120
34377W        W47791   1.513  13.197  15.252 -0.0632  0.2061  0.1487
34378W        W47792   4.213   5.257  12.192  0.1600 -0.2168 -0.1052
34379W        W47793   3.734  13.684  16.489 -0.1757 -0.1856 -0.1764
34380W        W47794   6.323   3.361  11.119  0.0883 -0.0330 -0.0271
34381W        W47795  14.128  14.139   4.696  0.0399 -0.0014  0.2604
34382W        W47796  18.108  16.203   0.413 -0.0087 -0.2353 -0.2299
34383W        W47797   1.377  12.983  12.414  0.1729 -0.0311 -0.4675
34384W        W47798  13.364   5.707  13.416 -0.1414  0.0797  0.0249
34385W        W47799   6.846  14.512  14.001  0.1797 -0.1171  0.1724
34386W        W47800   0.921  13.812  14.329 -0.2987  0.0874 -0.2022
34387W        W47801   7.450  12.413   4.144  0.0409  0.1973  0.1134
34388W        W47802   5.187   0.982  11.885  0.0680  0.0079  0.3114
34389W        W47803  17.478  17.937   0.960 -0.1000  0.0399 -0.1535
34390W        W47804   4.429   9.682   6.336 -0.1454  0.0768 -0.0832
34391W        W47805   0.629  15.283  14.371 -0.0259 -0.0679  0.0213
34392W        W47806   8.831  15.251  13.334 -0.0229 -0.0148 -0.1238
34393W        W47807  16.988   7.760   0.390  0.5578 -0.1034 -0.0716
34394W        W47808   6.775  15.456   4.494 -0.1103 -0.1013  0.1567
34395W        W47809   6.054   0.782  15.175  0.3319  0.1418 -0.1134
34396W        W47810  12.870   2.774  13.489 -0.0885  0.0517  0.2711
34397W        W47811   3.325   6.159   1.980 -0.3137  0.1404  0.1311
34398W        W47812   9.838   7.374   4.039 -0.0297  0.3170 -0.1647
34399W        W47813   6.099   0.985   5.758  0.1263  0.1424 -0.0095
34400W        W47814  10.779  15.380   4.305  0.1259  0.0717 -0.0031
34401W        W47815  11.764   3.129  12.477  0.2850  0.0482 -0.1162
34402W        W47816  16.711   5.047   1.262 -0.1829 -0.0311  0.0110
34403W        W47817   4.735  16.171  15.561 -0.5814 -0.1369  0.4169
34404W        W47818  10.140  14.607   2.432  0.1627 -0.0990  0.2456
34405W        W47819   4.578  16.770  11.811 -0.0939  0.0378 -0.2663
34406W        W47820   9.606   6.184  10.239 -0.0208  0.0457  0.0697
34407W        W47821   2.863  14.599   2.749  0.1333  0.1008  0.0603
34408W        W47822  16.994  13.971  11.759 -0.1882 -0.0611  0.4116
34409W        W47823   2.987  11.462   1.973 -0.0666  0.0159  0.2949
34410W        W47824   3.230   7.008   1.889 -0.2362  0.1786  0.0232
34411W        W47825   6.380   5.614  11.800  0.1420  0.0939  0.0556
34412W        W47826   9.243  12.373   0.029  0.1605 -0.0711 -0.1430
34413W        W47827  14.122  14.931   5.854 -0.0569  0.0229  0.0103
34414W        W47828   0.918  15.500   4.435 -0.0520  0.0178 -0.1388
34415W        W47829   3.042   9.223   3.238  0.1007  0.3302  0.2056
34416W        W47830  16.094  10.497  10.488 -0.1316  0.0941  0.2146
34417W        W47831  13.984   6.041   2.884 -0.0573 -0.0453  0.3790
34418W        W47832  17.598  12.624   3.848 -0.0789 -0.1938  0.0354
34419W        W47833   0.280  16.048   0.158 -0.2982  0.1819  0.0255
34420W        W47834  10.427   3.764  13.227  0.0343  0.2527  0.1988
34421W        W47835   8.201   9.900   5.430  0.1196 -0.0704 -0.3412
34422W        W47836  16.837  10.010   1.673  0.1848  0.0093 -0.1352
34423W        W47837   7.567  16.278   5.935 -0.0885 -0.0791  0.0027
34424W        W47838  14.043   4.039  10.355  0.1812  0.0101  0.3457
34425W        W47839  15.051   3.880  12.032 -0.1512  0.0122  0.0289
34426W        W47840  12.680   4.691  11.640  0.3177  0.0244  0.0405
34427W        W47841  10.908  16.794   3.336 -0.0802 -0.0812 -0.1146
34428W        W47842  17.393   0.959   4.805  0.0128  0.0170 -0.0778
34429W        W47843   3.517  10.376   5.107 -0.0245  0.2771 -0.3682
34430W        W47844  18.259  14.324  14.637  0.0899 -0.0330  0.2039
34431W        W47845   2.263   9.128  11.509  0.1041 -0.1301  0.2205
34432W        W47846   0.649   1.985   5.893  0.0919  0.0527 -0.0490
34433W        W47847  16.328   0.724  13.802 -0.0672  0.0812 -0.0231
34434W        W47848   9.087  10.357   1.144  0.0237 -0.2587 -0.1622
34435W        W47849   4.488   1.919   1.793  0.1815  0.1708  0.2451
34436W        W47850   0.964  12.681  10.656 -0.2201  0.0482  0.0811
34437W        W47851   1.595  15.692   1.832 -0.0873 -0.1371  0.1907
34438W        W47852  13.027  15.951  15.700 -0.0947  0.1667  0.0491
34439W        W47853   4.469  13.067   5.198 -0.0701  0.4253  0.0727
34440W        W47854   6.384   4.895  12.981  0.0446  0.3280 -0.0114
34441W        W47855  15.172   1.553   2.489  0.1733  0.5435  0.1676
34442W        W47856   6.059  13.257  12.079  0.2489 -0.0725  0.4013
34443W        W47857   3.902  12.284  16.556  0.4222 -0.1374  0.1370
34444W        W47858   2.559   2.853   5.760 -0.0833 -0.2042  0.1772
34445W        W47859   0.264  15.460   1.301  0.1035  0.1723 -0.1288
34446W        W47860   3.649  16.426  10.762  0.1865  0.0419  0.1271
34447W        W47861   5.934   2.173  13.839  0.0064 -0.1087 -0.0771
34448W        W47862  10.051   1.775  16.045  0.0362  0.3027  0.0640
34449W        W47863  17.039  12.840   5.217  0.2731 -0.2691 -0.1154
34450W        W47864   2.777   4.582  11.436 -0.0513 -0.0420 -0.1122
34451W        W47865   0.183   7.182  11.638  0.1161  0.0078  0.1732
34452W        W47866  11.452  13.168  13.906  0.2758 -0.1129 -0.0491
34453W        W47867   3.927   2.196   5.903  0.1471 -0.0299  0.1518
34454W        W47868  18.011   0.924  12.954  0.1091 -0.2259 -0.0581
34455W        W47869  16.901   9.560   3.795 -0.3308  0.0727 -0.0580
34456W        W47870  17.346  10.012   4.295 -0.2524 -0.2158 -0.0176
34457W        W47871   8.618  18.217  11.423 -0.1758  0.2539 -0.0309
34458W        W47872   5.338  10.852   3.596  0.1699  0.3005  0.3563
34459W        W47873  10.835   9.455   1.165  0.2318  0.1939  0.1978
34460W        W47874   8.579  17.665  14.719  0.0277 -0.0587  0.1008
34461W        W47875   7.940  15.339  11.841 -0.0666 -0.0361 -0.0520
34462W        W47876   1.259  13.739   2.130  0.0015  0.5061  0.1800
34463W        W47877   2.581  14.829   3.999  0.2262 -0.2306 -0.3862
34464W        W47878  12.215  16.657  16.110 -0.1234  0.1083 -0.0628
34465W        W47879   6.607   3.168   3.396  0.3235  0.0472  0.0473
34466W        W47880  11.578  16.047  13.352 -0.1435  0.0407 -0.2540
34467W        W47881   7.821   3.353   0.048  0.0134  0.1295  0.4496
34468W        W47882   3.576  14.437  14.874 -0.0268 -0.1239  0.0978
34469W        W47883   4.343  11.567  15.073 -0.1319 -0.0315  0.0602
34470W        W47884   1.394   7.143   3.716  0.1079 -0.0481  0.0451
34471W        W47885   0.862  15.561   6.715 -0.0299  0.1522 -0.2946
34472W        W47886  17.923  16.572   3.006  0.0057  0.0861 -0.0302
34473W        W47887  17.707   7.150  11.259  0.0564  0.1231 -0.0905
34474W        W47888  14.394  13.106   5.722  0.1688  0.0203 -0.0569
34475W        W47889  11.030  17.739   0.132  0.1398  0.2374 -0.0016
34476W        W47890  16.919  10.858  14.260  0.1995 -0.1423  0.2018
34477W        W47891   1.767   7.300  13.555 -0.2341 -0.0252  0.3633
34478W        W47892   0.559  10.871  15.195  0.0981  0.1447  0.3282
34479W        W47893   3.499   4.362  12.269 -0.2523  0.2186 -0.4099
34480W        W47894   9.654   5.892  10.717  0.2822  0.0967 -0.2915
34481W        W47895   8.555  11.852  11.086  0.0881  0.3724 -0.2996
34482W        W47896   9.180  18.117  15.287  0.2221 -0.3776  0.2382
34483W        W47897   5.244  15.670  11.654 -0.0918  0.0252 -0.1133
34484W        W47898   0.390   5.644  12.551  0.2032  0.1534  0.3394
34485W        W47899   1.044  18.196  10.780  0.0931 -0.2524  0.1092
34486W        W47900   8.602  18.176  12.043  0.1338  0.0830  0.0152
34487W        W47901  10.171  14.918   1.253  0.0275 -0.0808  0.3976
34488W        W47902   1.621  17.556  15.864 -0.1441  0.1424 -0.0000
34489W        W47903  16.243   0.652  11.718 -0.1392 -0.0835 -0.1083
34490W        W47904   0.801   1.103   0.069  0.0118 -0.1691 -0.0183
34491W        W47905  13.678  11.954  12.265 -0.2267  0.1473 -0.0359
34492W        W47906   4.801  10.546   1.326  0.0783 -0.0024 -0.2562
34493W        W47907  12.192  13.028  12.810 -0.2660  0.0119  0.1458
34494W        W47908  14.050  12.736  15.026  0.3562  0.0001 -0.0586
34495W        W47909   4.837  14.944  13.194 -0.0256 -0.0435  0.2345
34496W        W47910   4.121  15.299  14.869 -0.1105  0.6875 -0.2319
34497W        W47911   1.723   4.541  10.328  0.1274  0.4183 -0.0614
34498W        W47912   4.196  12.056  16.015 -0.1687 -0.1245  0.0462
34499W        W47913  17.434  13.743  11.507  0.0791 -0.2211  0.1558
34500W        W47914  10.541  14.641  13.319 -0.0679  0.1029 -0.0094
34501W        W47915  13.615   5.377  12.425  0.2402  0.0284 -0.1119
34502W        W47916   9.683  17.983  13.890 -0.1310 -0.0930 -0.3556
34503W        W47917   6.849  11.937  13.338  0.2084  0.2060 -0.4029
34504W        W47918  16.240  10.715   2.503  0.2168  0.1597  0.0165
34505W        W47919  12.624   7.353  12.452  0.0089  0.0411 -0.0649
34506W        W47920   1.583   9.871   3.795 -0.2299 -0.0569 -0.0396
34507W        W47921  15.143   3.829   4.026  0.1324 -0.0383  0.3206
34508W        W47922   5.300   8.818  13.235  0.3818 -0.0805  0.1852
34509W        W47923  13.129   7.965   9.882  0.1203 -0.2390 -0.1533
34510W        W47924  17.067  14.897  15.014  0.2408  0.1708 -0.0126
34511W        W47925   7.206  17.139   4.855  0.2045 -0.1495 -0.0259
34512W        W47926   2.484  17.330  13.313  0.1180 -0.1055 -0.0177
34513W        W47927  15.340   4.486  11.361 -0.0967 -0.1964 -0.1733
34514W        W47928  16.122   4.128  16.405  0.0417  0.0880 -0.0017
34515W        W47929   0.710   2.516  12.267  0.0846 -0.0719 -0.0425
34516W        W47930   3.632  14.321  12.873 -0.1933 -0.1501  0.0385
34517W        W47931  17.320  11.551   4.457  0.0208 -0.0040 -0.2555
34518W        W47932   1.094  15.863   1.721  0.1840  0.0706 -0.3430
34519W        W47933  10.453   9.236  15.019 -0.2388 -0.0537  0.0046
34520W        W47934  18.199   8.949  10.804  0.1116  0.1020 -0.1449
34521W        W47935   5.354   3.897  12.704 -0.0809 -0.0167  0.1948
34522W        W47936   0.399   2.863   1.641 -0.3654 -0.0649 -0.1604
34523W        W47937   1.114   8.819  15.892  0.2616  0.2011 -0.2996
34524W        W47938   2.974   8.508   2.038 -0.1479 -0.4118 -0.0928
34525W        W47939  14.332   7.928   3.273 -0.3261 -0.2285 -0.0663
34526W        W47940  16.528   6.106   3.651 -0.1234  0.0482 -0.0820
34527W        W47941  12.666  11.686   4.628  0.0406 -0.0011 -0.1892
34528W        W47942   3.169  11.324  16.058 -0.1529  0.0882  0.1889
34529W        W47943  16.301  14.763  13.361  0.0433  0.0131  0.1927
34530W        W47944   7.971   0.623   5.826 -0.4665  0.3882  0.0610
34531W        W47945   1.886  16.625  15.639 -0.1654 -0.0064  0.1306
34532W        W47946   8.391   7.918  15.663 -0.2057  0.3314 -0.0718
34533W        W47947  16.577   7.709  10.940  0.1459  0.0774 -0.0483
34534W        W47948  12.155   5.281   1.643 -0.0978 -0.0184 -0.1186
34535W        W47949   6.298   5.741  13.561  0.3816 -0.1029  0.0584
34536W        W47950   2.028   6.395  14.346 -0.2798 -0.0594  0.0312
34537W        W47951  15.041   1.511  13.563  0.0396  0.1645  0.3207
34538W        W47952   1.957   8.262  15.530  0.1009  0.0459  0.2606
34539W        W47953  15.682   1.672   2.558  0.2587 -0.0981  0.0940
34540W        W47954   3.154   7.302  11.805 -0.1748  0.1344  0.3052
34541W        W47955   8.304  10.666  11.473  0.1788  0.0926  0.4214
34542W        W47956   2.455  17.580   4.579  0.1076  0.0418 -0.0604
34543W        W47957   6.662   5.651  16.281 -0.1290 -0.0613 -0.2178
34544W        W47958  14.481   9.898   1.339  0.2178 -0.1173  0.2705
34545W        W47959  18.183   0.775  13.921 -0.1583  0.1900 -0.1764
34546W        W47960  12.722   5.609  16.340  0.1718 -0.5143 -0.0866
34547W        W47961   2.906  12.039  13.163 -0.0140 -0.2399 -0.2197
34548W        W47962  13.033   2.813   3.336 -0.0264 -0.0704 -0.1456
34549W        W47963   3.337   9.127   3.828  0.3393 -0.0517 -0.1197
34550W        W47964  13.323  11.766  14.285  0.0966  0.0528 -0.0308
34551W        W47965  14.503   9.435   2.639 -0.4528 -0.1518  0.0941
34552W        W47966  12.307   8.620   1.647  0.0298 -0.2883  0.0497
34553W        W47967   9.075  15.209   3.235 -0.1765  0.2037 -0.2124
34554W        W47968  18.168   1.176   2.449  0.3331 -0.2024 -0.3382
34555W        W47969   9.468   6.758  15.965 -0.1372 -0.3965  0.1453
34556W        W47970   4.585   5.030   4.493 -0.0963 -0.0049  0.2295
34557W        W47971  12.849  13.441  11.898  0.1373 -0.0191 -0.4176
34558W        W47972  11.728   6.490   1.223 -0.0939 -0.2017 -0.2410
34559W        W47973   1.562   1.263   2.884  0.2237 -0.1067 -0.2505
34560W        W47974   4.963   7.545   3.113 -0.1007 -0.1362 -0.0695
34561W        W47975   9.058  10.693   2.016 -0.0865 -0.1256 -0.0555
34562W        W47976   1.675   8.711   2.107  0.1969  0.0069  0.1477
34563W        W47977   0.517   9.734  11.798 -0.1089  0.0077  0.3186
34564W        W47978  17.623   8.692   2.428 -0.2536 -0.1577  0.1979
34565W        W47979   2.559  18.142   4.996  0.0732 -0.1185  0.2527
34566W        W47980   8.579   2.893   4.210  0.4343 -0.1273  0.3807
34567W        W47981  15.780   1.577   1.868 -0.3550 -0.2666  0.1771
34568W        W47982   0.640  13.998  15.090  0.1143  0.2084  0.0630
34569W        W47983  16.497  15.880   5.344  0.1020 -0.1857  0.0751
34570W        W47984   6.833   9.966   1.900  0.0043  0.1633 -0.1597
34571W        W47985   2.601   0.715   2.582 -0.1390  0.2587  0.1025
34572W        W47986   0.902   7.144  12.214  0.1736 -0.1120 -0.1223
34573W        W47987   7.733   6.639   5.444 -0.0116 -0.1499 -0.0013
34574W        W47988   3.989   0.104   5.421 -0.0590  0.1516 -0.0920
34575W        W47989   7.798   6.738  15.583  0.2005 -0.2517  0.2774
34576W        W47990   8.163   5.054  13.321  0.1192  0.1168 -0.0133
34577W        W47991   9.824  16.676  11.903  0.0572  0.2347  0.0940
34578W        W47992   2.496   8.310  15.713 -0.0479  0.1050 -0.1352
34579W        W47993   4.324   9.703  14.245 -0.0954 -0.3696  0.0183
34580W        W47994   0.415  12.917   3.508  0.2691  0.4020  0.0251
34581W        W47995   8.039   1.605   3.938  0.2198  0.0146  0.1865
34582W        W47996   4.556   6.314  14.227  0.0398 -0.1937 -0.1656
34583W        W47997  10.152   2.470   4.455 -0.0390 -0.0790 -0.0200
34584W        W47998   9.776  15.199  13.376  0.2193  0.0385 -0.0113
34585W        W47999  15.895  13.498  14.588 -0.1679 -0.0668  0.3179
34586W        W48000   0.248   8.494   0.467 -0.0001  0.2375  0.2546
34587W        W48001   5.123   5.834  13.680  0.0168  0.2156 -0.2599
34588W        W48002   0.460   7.737  15.799  0.0433 -0.1495 -0.3118
34589W        W48003   9.943   6.453  11.097  0.2952 -0.0321 -0.0013
34590W        W48004   9.349   6.150  14.757 -0.3061  0.3062  0.2146
34591W        W48005   8.554  15.220  14.755  0.2622 -0.0546 -0.2615
34592W        W48006  14.257   8.116   6.061 -0.1611  0.1281 -0.2003
34593W        W48007   1.040   1.469   4.654 -0.0290  0.2621 -0.0640
34594W        W48008   4.540   2.498  13.340 -0.0151  0.1933 -0.1198
34595W        W48009   7.311  11.159  15.416  0.2304 -0.2551 -0.1660
34596W        W48010   9.937   6.817  16.240  0.3736 -0.0869 -0.1791
34597W        W48011   7.866   8.476  11.600 -0.3144 -0.0115 -0.0321
34598W        W48012  13.261   4.253  15.083 -0.0986  0.1767 -0.2455
34599W        W48013   6.230   5.692   1.905 -0.0705  0.0726 -0.0059
34600W        W48014   1.518  12.954  15.721  0.0893 -0.1295  0.0417
34601W        W48015  15.514   9.980  13.375 -0.0762 -0.1725 -0.1376
34602W        W48016   9.622   4.075  13.449  0.2555 -0.2189 -0.3557
34603W        W48017   7.832  13.008   0.901 -0.0038  0.0433  0.2694
34604W        W48018   9.610   2.140  15.146  0.3273  0.3127 -0.0083
34605W        W48019  15.816  16.764   5.392 -0.2241 -0.2280  0.1183
34606W        W48020   8.680   9.790   3.482  0.2202 -0.1274 -0.1798
34607W        W48021   9.064   5.960   1.290 -0.0526  0.1215  0.0187
34608W        W48022  13.299   7.330  14.712 -0.0847 -0.0529 -0.0350
34609W        W48023  14.892   1.659  14.296  0.0689 -0.1822 -0.1111
34610W        W48024   3.288  18.097  14.322 -0.3317  0.0110 -0.0763
34611W        W48025  13.117  10.218   1.264  0.1281 -0.2427 -0.3795
34612W        W48026   5.910   1.555  10.883  0.0430 -0.1177  0.0905
34613W        W48027   3.735   8.031  13.205  0.1228  0.1093 -0.0538
34614W        W48028  11.599  11.870   0.093 -0.0508  0.1208  0.0046
34615W        W48029   6.597  13.457  13.699  0.0038  0.1949 -0.0855
34616W        W48030   3.631  14.518   1.695  0.0920 -0.0889  0.0888
34617W        W48031  11.555   3.899  10.984 -0.3842 -0.0119 -0.2791
34618W        W48032   6.934  14.543  15.405 -0.0885  0.3007 -0.2903
34619W        W48033   4.952  12.847   0.533  0.3697 -0.1303 -0.1298
34620W        W48034  15.343   2.017   1.683  0.0191  0.0251  0.2281
34621W        W48035  17.238   9.761   4.773  0.4498 -0.1446  0.4330
34622W        W48036   1.848   7.710  15.398  0.3186  0.1044 -0.1197
34623W        W48037  17.450   6.350   3.779 -0.2546  0.1204  0.0184
34624W        W48038   4.539   4.930  13.171  0.2499  0.1787  0.2002
34625W        W48039   9.284   7.885   5.302 -0.0193  0.1021  0.3499
34626W        W48040  13.361  13.741   2.576 -0.1581 -0.0352 -0.1160
34627W        W48041  16.970   8.207   5.293  0.1999  0.1094  0.0740
34628W        W48042  15.272  10.001  11.200 -0.0487 -0.0221 -0.0666
34629W        W48043   1.899  13.065  14.946 -0.1224 -0.0969 -0.0407
34630W        W48044   6.221  16.258  11.775  0.1608  0.0128  0.1455
34631W        W48045   5.860   7.518   4.696  0.0063  0.2036 -0.1045
34632W        W48046  14.508  13.223   4.295 -0.1458  0.1468  0.2319
34633W        W48047   0.027  10.624  15.036 -0.1442  0.1906  0.1013
34634W        W48048  17.539  13.279   0.994  0.1494  0.0886 -0.2061
34635W        W48049  10.627   9.304  11.480  0.0287  0.1666 -0.2092
34636W        W48050  17.771   8.195  16.428 -0.2778 -0.1493 -0.0437
34637W        W48051  15.051   6.913   0.185 -0.1338  0.1206  0.3241
34638W        W48052  10.916   0.790   0.808 -0.1392  0.1652  0.1916
34639W        W48053   0.463   2.735   3.790  0.2552 -0.1476 -0.0484
34640W        W48054   8.086   6.206  12.700  0.0828 -0.0526  0.1645
34641W        W48055   6.127  16.200  13.050  0.1405  0.0484 -0.1757
34642W        W48056   2.772   6.008   4.670 -0.1569 -0.1270 -0.1152
34643W        W48057   5.037   8.170  15.012 -0.1513 -0.4824  0.2142
34644W        W48058   4.913   1.454  12.131  0.0835  0.0571  0.1513
34645W        W48059  17.541   2.456  11.127  0.0284  0.0387  0.1665
34646W        W48060   3.791   8.696  15.278 -0.2869  0.1986  0.0317
34647W        W48061   6.315  15.773   0.264 -0.2235 -0.0225  0.2452
34648W        W48062   5.296   9.311  12.988 -0.1072  0.2704  0.2082
34649W        W48063   1.361   8.922   4.208  0.1728 -0.0234  0.2811
34650W        W48064   8.018  18.284  14.341  0.3452 -0.0749 -0.2747
34651W        W48065   6.287   5.903  11.261  0.2058 -0.0362 -0.0058
34652W        W48066  13.607   1.514  13.983  0.0271  0.2318  0.2108
34653W        W48067   9.536   6.917  16.529  0.0854 -0.1606 -0.2946
34654W        W48068  10.390   2.319  11.190 -0.3435 -0.0572  0.4450
34655W        W48069  13.256  16.628   2.540  0.0282 -0.0150  0.3189
34656W        W48070   7.740   0.198   4.827  0.2109  0.1161  0.0545
34657W        W48071   4.219   6.440  15.912 -0.0547  0.1101 -0.1274
34658W        W48072   1.594   9.983  10.027  0.1003 -0.2347 -0.1330
34659W        W48073   9.251   9.807  11.869  0.1184  0.0483 -0.0302
34660W        W48074  16.011   9.756  10.687 -0.1672  0.3799  0.2258
34661W        W48075   9.730  17.070   1.919 -0.2223  0.1394  0.1496
34662W        W48076  13.462   2.898   3.679 -0.0677 -0.0434  0.1871
34663W        W48077   3.152   6.123   0.468  0.0902  0.0039 -0.1461
34664W        W48078  10.148   6.420   2.277 -0.0161  0.0948  0.1663
34665W        W48079   7.988   1.930   4.765  0.3068 -0.3084  0.0512
34666W        W48080   1.085   9.626   2.259 -0.3137  0.0602  0.0863
34667W        W48081   7.356   9.132  12.574  0.0823  0.0973  0.0593
34668W        W48082  17.998  15.001  11.382 -0.2158  0.0902 -0.0327
34669W        W48083  15.307  16.442   2.910  0.0897 -0.0836 -0.1076
34670W        W48084  11.902   8.934   4.741 -0.3233  0.1394  0.0844
34671W        W48085  16.708  16.392   5.154 -0.0376  0.1909  0.2914
34672W        W48086  10.174   3.861   4.363  0.2449 -0.1969 -0.2810
34673W        W48087   5.408   2.722   1.226 -0.1847 -0.1459 -0.1781
34674W        W48088   6.504  12.704   5.492 -0.0328 -0.0504 -0.3348
34675W        W48089   3.753   7.127  15.601  0.1163  0.1159 -0.0677
34676W        W48090  11.879   8.690  11.337 -0.1838 -0.0780  0.1488
34677W        W48091   1.778   5.361  15.094  0.0546 -0.0030 -0.0800
34678W        W48092   3.812  14.141  10.800 -0.0455  0.0276  0.0627
34679W        W48093  10.149   0.084   5.549 -0.1907  0.0897 -0.1282
34680W        W48094   6.504   5.243  12.229 -0.2702 -0.0482  0.0503
34681W        W48095   2.144  10.802  12.755 -0.1663  0.2615  0.2397
34682W        W48096   6.115  10.098   0.215 -0.2963  0.0435 -0.0138
34683W        W48097  16.084   9.760  15.421  0.1055  0.2763  0.0211
34684W        W48098  17.647  13.767   1.758 -0.0976  0.2062 -0.2132
34685W        W48099  17.038   9.138   3.078  0.2843 -0.1255  0.1621
34686W        W48100  14.235  13.375   2.452  0.1562  0.0966  0.0896
34687W        W48101  15.538  10.915  14.513 -0.1017  0.2842 -0.1139
34688W        W48102  15.133  11.760  14.885 -0.2179 -0.0292 -0.0097
34689W        W48103  16.444   6.305  16.088  0.2205  0.2552  0.1622
34690W        W48104   0.019   4.714  10.746  0.0573 -0.0630 -0.2707
34691W        W48105   5.113  16.156  12.467  0.3372  0.1933 -0.1511
34692W        W48106   6.077   7.735  15.848 -0.0492  0.0020  0.0817
34693W        W48107  16.729   1.118   5.656  0.2384 -0.2752 -0.0903
34694W        W48108   3.850  13.910   1.272 -0.0687 -0.1710 -0.0305
34695W        W48109  11.430  15.451  12.602 -0.1714  0.0925 -0.0141
34696W        W48110   7.187  10.867   1.959 -0.0539  0.0828  0.2658
34697W        W48111  14.005   7.869   0.656 -0.1194  0.0360  0.3280
34698W        W48112   4.301  15.830   1.898 -0.1001 -0.0478 -0.0316
34699W        W48113   0.132  12.702   1.616 -0.1478 -0.1825 -0.0964
34700W        W48114  17.356   7.781  13.176 -0.1598  0.1759 -0.1833
34701W        W48115   6.764  13.499   2.566 -0.1381  0.1485 -0.0250
34702W        W48116  14.331   4.421  15.118 -0.2449  0.0504 -0.0219
34703W        W48117   4.252   7.262   0.567 -0.1996 -0.0936 -0.4438
34704W        W48118   4.195   0.521  12.446  0.7239 -0.2414 -0.3380
34705W        W48119   5.365  10.248   5.549 -0.1386 -0.1081  0.0049
34706W        W48120   4.515  15.784   2.678 -0.0473  0.0292 -0.0706
34707W        W48121  16.576   6.725  12.255  0.4180  0.2164 -0.0946
34708W        W48122   7.605   0.463   1.546 -0.2464 -0.1175  0.1764
34709W        W48123  13.638  18.108   0.446  0.2274  0.0690  0.0129
34710W        W48124  15.393  16.988   5.492  0.1515  0.2863 -0.0645
34711W        W48125   5.428   9.525  11.249  0.5040  0.0114  0.0119
34712W        W48126   4.004  14.862  15.018 -0.2417 -0.1743 -0.4029
34713W        W48127   2.280   5.894  11.332  0.1371 -0.1435 -0.2013
34714W        W48128  11.404   7.222  14.010  0.1010  0.0224  0.0189
34715W        W48129  15.116  11.768   2.868  0.0466  0.0954 -0.1675
34716W        W48130   1.034  11.869   6.397 -0.2174  0.1194 -0.0891
34717W        W48131  11.787   3.929   1.673 -0.1473 -0.1682 -0.2642
34718W        W48132   3.956   2.495  13.823  0.2073  0.0741  0.0705
34719W        W48133   5.569  15.307  14.783  0.3167 -0.2733  0.5119
34720W        W48134   4.334   0.481   2.178 -0.0146 -0.2691 -0.1117
34721W        W48135   1.284   5.512   5.932 -0.3062 -0.1297  0.0556
34722W        W48136  13.352  17.805   1.164 -0.2267 -0.0168 -0.0435
34723W        W48137   1.870  14.314   1.598 -0.2282  0.1702 -0.1819
34724W        W48138  10.727  17.744   6.348  0.0739 -0.0065  0.1479
34725W        W48139   7.440   0.786   5.054  0.1137  0.2249 -0.3149
34726W        W48140   1.109   5.758  15.461 -0.0320 -0.2944  0.2002
34727W        W48141   6.127   2.463   3.112 -0.0192  0.3083 -0.0410
34728W        W48142  16.549  14.615  14.574 -0.0675 -0.0586  0.1698
34729W        W48143  15.785   6.572   1.347 -0.0304  0.1011  0.0512
34730W        W48144  13.789  12.855   0.717  0.4394  0.1043 -0.1068
34731W        W48145  10.511  14.602   5.877  0.3427  0.3892  0.0600
34732W        W48146   4.076   8.236   2.746  0.1364  0.1082 -0.0875
34733W        W48147   8.401  16.478  12.836  0.1041 -0.1670  0.1188
34734W        W48148  16.196   5.740  14.654 -0.0029  0.0846  0.0671
34735W        W48149  10.842  18.199   1.971 -0.1779 -0.2744 -0.1452
34736W        W48150  11.266   9.111   0.175 -0.0711 -0.0860 -0.2372
34737W        W48151  14.267   6.973   4.507 -0.0339  0.0996  0.0081
34738W        W48152  15.944   7.886  11.702  0.2019  0.0655  0.0517
34739W        W48153  12.796  17.772  14.983 -0.0612 -0.4467 -0.2483
34740W        W48154   3.198  14.393   1.917  0.0267  0.0531 -0.0820
34741W        W48155   7.111  16.063   4.983  0.1968 -0.2080  0.2176
34742W        W48156   1.969   6.937   3.474 -0.0611  0.3558 -0.1292
34743W        W48157   3.209   5.873   0.894  0.1607  0.1832 -0.5565
34744W        W48158   8.582   5.102  14.626  0.0354 -0.2459 -0.0862
34745W        W48159  11.088   4.631  14.498 -0.0150  0.0032  0.1705
34746W        W48160   5.067   9.366  15.986  0.2333 -0.0958 -0.0561
34747W        W48161   0.890  16.777   2.344  0.0021 -0.0429 -0.0342
34748W        W48162  16.321   1.160   1.305  0.1558 -0.0462 -0.0467
34749W        W48163   9.219   2.389   4.356 -0.0718  0.0586  0.1823
34750W        W48164  12.016  13.821   2.419 -0.0022 -0.1752 -0.2505
34751W        W48165   1.271   8.135   0.731 -0.0400  0.1942 -0.0010
34752W        W48166   7.130   0.303   0.880 -0.3149 -0.3744  0.0376
34753W        W48167  14.764   1.979  12.793  0.2139  0.2240 -0.1680
34754W        W48168   5.234  13.844  13.630 -0.5507 -0.3715 -0.1204
34755W        W48169   1.551  11.151   3.605  0.0592 -0.0542 -0.1049
34756W        W48170   9.627  13.091  13.238 -0.1502 -0.0829 -0.0035
34757W        W48171  18.173   5.370  14.539 -0.0824  0.1097  0.0657
34758W        W48172  15.817   4.448  12.415  0.2075 -0.0236 -0.2083
34759W        W48173   8.632   1.556  11.308  0.2039  0.0370 -0.0605
34760W        W48174   8.956  14.252   1.742 -0.0152 -0.0466 -0.0194
34761W        W48175   2.423   7.468   4.975  0.2838 -0.3584  0.3427
34762W        W48176   0.426   9.225  13.828  0.0793  0.0416  0.0237
34763W        W48177  14.880   5.680   4.295  0.2597  0.0718 -0.1812
34764W        W48178  13.690   2.913  14.571 -0.0010  0.1276 -0.0837
34765W        W48179   2.959  12.044  14.291 -0.1342  0.0834 -0.3286
34766W        W48180   3.674   4.820  10.460 -0.3693  0.1975 -0.0465
34767W        W48181   4.235  14.401   2.018  0.0267  0.0171  0.2078
34768W        W48182  16.264  12.443   3.373 -0.0142 -0.0834 -0.2903
34769W        W48183  11.067  16.170  15.367  0.0708  0.0017 -0.4707
34770W        W48184   3.348  16.780  14.224  0.0276 -0.2444  0.0909
34771W        W48185   9.277   4.306  11.327 -0.0141  0.1717  0.0415
34772W        W48186   3.736  15.399  14.494 -0.1299 -0.0894 -0.0547
34773W        W48187  13.963   1.387   6.039  0.0705  0.0416  0.3225
34774W        W48188  11.197   3.953   3.968  0.0114 -0.1654 -0.0953
34775W        W48189   9.833  15.403  15.712  0.1924  0.0833  0.2366
34776W        W48190  14.550  10.822  13.880 -0.1675  0.3059 -0.2879
34777W        W48191   8.003   0.757  15.156 -0.1932 -0.2029 -0.2222
34778W        W48192   4.334  15.640   5.777  0.1701 -0.1407  0.0310
34779W        W48193   2.562   4.491   2.984 -0.0272  0.2469 -0.0858
34780W        W48194   3.148   9.583   4.128 -0.1529  0.0260  0.1298
34781W        W48195  11.318   1.836   2.074  0.3920 -0.0806  0.1200
34782W        W48196   1.700   2.670  11.229  0.0964 -0.1022  0.3142
34783W        W48197  10.666   1.360   0.633 -0.0173  0.0813 -0.3413
34784W        W48198  11.695   2.214  16.010 -0.0429 -0.4159 -0.3130
34785W        W48199   3.908   9.641  12.514 -0.0530  0.4121 -0.1764
34786W        W48200   2.548   9.483   1.364 -0.1099 -0.2317  0.1403
34787W        W48201  18.209   2.109  11.691 -0.0151 -0.1766 -0.1995
34788W        W48202   8.530   0.806   6.159 -0.0856 -0.2276 -0.0293
34789W        W48203   2.482  17.557   2.079  0.0012 -0.2467  0.2175
34790W        W48204   0.715  14.459   2.804  0.1148 -0.1350 -0.0309
34791W        W48205  10.649   7.789  16.174  0.1200 -0.0315 -0.0374
34792W        W48206  13.816  17.639   4.486  0.1648 -0.2839  0.1297
34793W        W48207   8.533   5.627  15.863 -0.1093  0.0181 -0.1532
34794W        W48208  12.534  16.396   3.759  0.1337 -0.3952 -0.0942
34795W        W48209  16.333  14.056  12.891 -0.2163 -0.3074  0.0274
34796W        W48210  12.115   6.950  13.700  0.1913 -0.1891 -0.1606
34797W        W48211  16.398   4.223  13.776  0.2521  0.0115 -0.1796
34798W        W48212   4.545   0.670  14.987 -0.0910 -0.1522  0.3842
34799W        W48213  16.577   3.825  12.720  0.1018  0.2535  0.2025
34800W        W48214  14.803  12.220   0.844  0.0105 -0.0009 -0.1362
34801W        W48215   9.438  17.361   2.613  0.1854  0.2872  0.2225
34802W        W48216   3.857  17.517  13.783  0.1799 -0.0161  0.2066
34803W        W48217  12.004  15.438  16.097 -0.0763 -0.0887  0.1081
34804W        W48218   5.311   5.595  15.268  0.0817 -0.3176  0.3330
34805W        W48219  16.046   5.513  13.753  0.2685 -0.0323 -0.1843
34806W        W48220   3.836  14.316   2.911 -0.0083 -0.1691  0.4195
34807W        W48221   6.970   7.187  12.512  0.2254  0.1529  0.0562
34808W        W48222   7.490  10.537   5.326  0.0506 -0.0622  0.2010
34809W        W48223  10.209   1.914  14.355  0.3130 -0.0787 -0.1129
34810W        W48224   1.565   4.513  10.785  0.1545 -0.0130  0.2955
34811W        W48225   8.758  15.374   1.090  0.0544  0.2360  0.3109
34812W        W48226   9.524   6.685  11.261  0.0300 -0.0873 -0.1461
34813W        W48227   2.978  10.269  10.346  0.1613  0.0128 -0.1442
34814W        W48228   8.289  12.884  15.458  0.1380  0.2328 -0.0258
34815W        W48229   8.645  13.301   1.593  0.3566 -0.1053  0.2320
34816W        W48230  12.882  16.050   4.749 -0.0930  0.0879 -0.0104
34817W        W48231   8.642   7.551   2.979  0.0251  0.2621 -0.0950
34818W        W48232   4.256   8.033  14.555  0.0075  0.0223  0.0583
34819W        W48233  15.400   6.110  14.475  0.4459 -0.1662  0.5204
34820W        W48234  14.491  14.338  15.927  0.1617 -0.2179 -0.1517
34821W        W48235   0.469   5.236   0.902 -0.0006 -0.0591 -0.1822
34822W        W48236   8.745  16.050   2.692  0.1667 -0.1640  0.0239
34823W        W48237   4.972  17.424  14.158  0.1205  0.2056  0.3903
34824W        W48238   7.080   3.211  13.851  0.1009  0.2766 -0.3279
34825W        W48239   4.932  16.430   1.064  0.2065 -0.1909 -0.0313
34826W        W48240   6.962   6.019   3.270 -0.5099  0.2251  0.2552
34827W        W48241   6.903  11.182   4.814 -0.1335  0.0847  0.2253
34828W        W48242   6.396  12.803   3.460 -0.0869  0.1239 -0.0908
34829W        W48243   1.825   3.533   0.810 -0.1175  0.0244  0.0421
34830W        W48244   8.703   5.272   3.300  0.0040  0.0783  0.0003
34831W        W48245   5.248   7.890  13.688  0.4275  0.2027  0.1137
34832W        W48246  10.234  13.181  16.233 -0.0243 -0.0317 -0.2773
34833W        W48247  16.582  16.659   2.597 -0.2563  0.2469 -0.0342
34834W        W48248   9.626   1.746   4.012 -0.2318  0.1755 -0.0174
34835W        W48249   1.437   4.133  15.793  0.1413  0.0707 -0.0113
34836W        W48250   5.943  17.370  11.597  0.1492 -0.0877 -0.0831
34837W        W48251  17.883  10.196   2.260  0.1024 -0.1532  0.0209
34838W        W48252   1.954  12.780   5.459 -0.1086  0.1721 -0.1155
34839W        W48253  17.134   5.071  15.073 -0.1440  0.0786 -0.1444
34840W        W48254   2.848   1.316   1.831 -0.0309  0.1065 -0.1831
34841W        W48255  14.442  14.205   0.896  0.0290  0.1424 -0.0494
34842W        W48256  10.517   2.706   5.328  0.3221  0.1847 -0.1250
34843W        W48257   7.975  10.418  14.663 -0.1530 -0.3466  0.1518
34844W        W48258  11.069  10.292  10.857 -0.0861  0.1249  0.0082
34845W        W48259   2.946  15.545  16.019 -0.0102 -0.0439  0.0327
34846W        W48260   5.684   1.808   3.138  0.0599  0.4170  0.0984
34847W        W48261   1.321  12.205  12.076 -0.2951  0.1188 -0.4072
34848W        W48262   7.212   9.814  11.190 -0.1326  0.0540 -0.0023
34849W        W48263   3.126  17.279   2.370  0.1335  0.0245 -0.3038
34850W        W48264   7.739  16.441   2.128  0.1131 -0.0803 -0.1778
34851W        W48265  14.797  16.781  14.338 -0.1654 -0.1388  0.0594
34852W        W48266  15.239   0.546  12.553  0.1274  0.4150 -0.0075
34853W        W48267   4.387   8.521  12.153 -0.0764  0.2236  0.3040
34854W        W48268  11.015   8.402  14.848  0.1532  0.1104  0.0316
34855W        W48269   9.030   0.814  11.551  0.1771 -0.0495 -0.0173
34856W        W48270   9.076  10.299  11.841 -0.2073  0.1947  0.1197
34857W        W48271   1.307   5.375   4.257 -0.2123  0.1458  0.0354
34858W        W48272   9.257  14.423  11.034  0.1461  0.1036  0.1902
34859W        W48273  12.751   1.817  10.718 -0.3224 -0.1835 -0.0591
34860W        W48274   2.453   2.929   5.239  0.1176  0.2864  0.0105
34861W        W48275  11.604  14.597  14.455 -0.1040  0.0002 -0.0318
34862W        W48276   2.257  17.984   5.385  0.0579  0.0387  0.2237
34863W        W48277   4.586   2.223   0.952  0.2610 -0.3347  0.0638
34864W        W48278   6.491  16.911  10.913  0.0948  0.0345  0.0450
34865W        W48279  15.857  11.322  14.467  0.0126 -0.2286 -0.1776
34866W        W48280   6.949  10.951  12.530  0.3560  0.0446 -0.0555
34867W        W48281  13.160  15.278   5.259  0.1702  0.1406  0.0915
34868W        W48282  11.765   2.327   5.527  0.0816 -0.0176 -0.0351
34869W        W48283   3.388   5.498  16.017  0.0019 -0.0672 -0.2252
34870W        W48284   3.790  13.135  14.357  0.3794  0.0587 -0.1739
34871W        W48285   9.240  11.535  15.637 -0.1259  0.3210 -0.2060
34872W        W48286   2.609  13.234   1.327 -0.2068  0.0927  0.0600
34873W        W48287   2.752  13.281   2.246  0.0026 -0.1437 -0.0361
34874W        W48288   8.014   4.307   0.244 -0.0359  0.2477 -0.3173
34875W        W48289   9.110  12.124   4.299 -0.1789 -0.1381 -0.0000
34876W        W48290   2.500   0.422  12.457  0.2296  0.0721  0.0416
34877W        W48291   9.764  18.125  11.777  0.3241 -0.1039  0.1410
34878W        W48292  17.381   2.558   2.445  0.2714  0.0224  0.0062
34879W        W48293   7.746   2.052   1.399 -0.0160 -0.3116 -0.1403
34880W        W48294  14.856   3.799  12.524  0.1843 -0.0484 -0.2070
34881W        W48295  14.692   7.529  12.331 -0.2013 -0.1216  0.3433
34882W        W48296   3.981  14.657   6.196  0.0183  0.1386  0.3474
34883W        W48297  12.889   3.184  11.400 -0.2439  0.1312  0.1570
34884W        W48298   5.784  13.309  11.159  0.2175  0.0038  0.1359
34885W        W48299   4.154  12.147   3.590  0.1060 -0.1525  0.0682
34886W        W48300  17.495  12.144  16.149 -0.0333 -0.2682  0.0755
34887W        W48301   2.460  10.061   0.558  0.1220 -0.2306  0.2832
34888W        W48302  10.966   7.495  13.261 -0.1672  0.0560  0.2501
34889W        W48303   0.230  15.880   1.708  0.1735 -0.0193  0.0832
34890W        W48304  17.300   2.026   2.251  0.2399 -0.1646 -0.0331
34891W        W48305  17.309   7.116   2.014  0.2040  0.2197  0.0240
34892W        W48306   6.102  12.572  15.545  0.0627 -0.0130  0.1295
34893W        W48307  11.563   9.809  10.347  0.3330  0.0249 -0.0682
34894W        W48308   4.364  16.873   0.298  0.3506  0.2923 -0.0180
34895W        W48309   5.704  16.757  14.627 -0.2027  0.0055 -0.0382
34896W        W48310  11.869   9.980   4.735 -0.2897  0.2124 -0.2234
34897W        W48311   0.629   0.879   6.096 -0.3431 -0.1258 -0.0819
34898W        W48312  10.943  17.228  16.388  0.1360 -0.1612 -0.2724
34899W        W48313  16.750  10.052   3.590  0.1413  0.0692 -0.0234
34900W        W48314  17.136  11.624  13.383  0.5397  0.1105  0.0517
34901W        W48315   8.082  10.450  12.751 -0.1273 -0.0665  0.4080
34902W        W48316   5.378  10.105   2.166 -0.0622  0.2961 -0.2240
34903W        W48317   5.791   1.921   1.115 -0.1854  0.1128  0.1730
34904W        W48318  16.375   8.048  14.769 -0.2304 -0.4050  0.3267
34905W        W48319  11.161  13.891   1.736  0.1244  0.1823  0.2119
34906W        W48320  17.088   5.775  14.312 -0.0309  0.2621  0.2727
34907W        W48321   8.484  13.858  13.112 -0.1588 -0.3279 -0.3240
34908W        W48322  14.498   3.482  13.806 -0.2346 -0.0417 -0.0075
34909W        W48323  11.257   4.001  11.362  0.0415 -0.2417 -0.5094
34910W        W48324   0.062  14.972   4.653  0.0589  0.0100  0.1249
34911W        W48325   9.952   8.211  14.838 -0.0438  0.0315 -0.2235
34912W        W48326  16.107   2.873  12.870 -0.0659 -0.1877 -0.1067
34913W        W48327  10.210   7.246  10.373  0.0460 -0.1561 -0.1982
34914W        W48328   5.228   7.001   1.041  0.1985  0.2101 -0.1331
34915W        W48329  12.117   4.817   1.912 -0.1102 -0.2322  0.1389
34916W        W48330   4.472   5.956  13.370  0.1247  0.1032  0.2965
34917W        W48331   4.297   7.276  11.444  0.1312 -0.0091 -0.7158
34918W        W48332  17.147   8.014  13.574  0.0048 -0.0088  0.0602
34919W        W48333   2.992   9.270   5.027  0.1338 -0.2384  0.2442
34920W        W48334   9.545  13.890  13.346  0.1204 -0.1320  0.1523
34921W        W48335  13.570   6.423   5.123 -0.1511 -0.0292  0.1694
34922W        W48336   0.290   5.811  12.032  0.4094 -0.0149 -0.1299
34923W        W48337   6.476  11.834   4.922  0.0380  0.1990 -0.0779
34924W        W48338   1.410  13.035   2.965 -0.0599  0.2335 -0.0472
34925W        W48339   3.250  10.602  14.657  0.1957  0.0182  0.1705
34926W        W48340  11.258   0.144  13.290  0.0304  0.1433  0.0038
34927W        W48341  10.342  14.551  14.877 -0.1182  0.0403  0.3169
34928W        W48342   7.703  10.073  12.394 -0.1259 -0.1398  0.3406
34929W        W48343   6.938  14.982   1.978 -0.0974  0.0594  0.0377
34930W        W48344   1.674  12.171   6.163 -0.0179 -0.1550 -0.1715
34931W        W48345  16.434  11.264   0.297  0.4943  0.0491  0.1700
34932W        W48346   6.576  14.428  12.565  0.4628 -0.2277  0.1666
34933W        W48347   5.583  15.520   2.763 -0.2118  0.2400 -0.1433
34934W        W48348   2.744  13.137   0.106  0.1441 -0.3546  0.2376
34935W        W48349   5.961   6.388  14.612 -0.0625  0.0879 -0.0266
34936W        W48350   7.507  11.488  12.133 -0.1627 -0.0066 -0.2144
34937W        W48351  10.479  13.436  13.296  0.1018 -0.1376  0.0299
34938W        W48352  14.466   4.293   3.882  0.2826 -0.3796  0.0419
34939W        W48353   6.644  12.753   1.161  0.0997  0.2546  0.3397
34940W        W48354   5.557   9.940   6.297  0.2036 -0.0747  0.2016
34941W        W48355  11.879   3.789  14.135  0.0874 -0.3713  0.1748
34942W        W48356   1.741  16.818  14.617 -0.1339  0.2968 -0.0018
34943W        W48357   4.368  17.464   1.513  0.2896 -0.0531  0.0113
34944W        W48358  12.262  15.692   2.480 -0.0171  0.2670 -0.2776
34945W        W48359   6.356  16.517   1.400 -0.0220 -0.3231 -0.0362
34946W        W48360   4.899   3.523   5.831 -0.1266 -0.2232  0.1984
34947W        W48361  11.171  13.723   4.829  0.1860  0.0434  0.0916
34948W        W48362   9.603   8.232   5.901 -0.0002  0.2406 -0.0800
34949W        W48363  10.699   7.647   1.096 -0.1654 -0.1956  0.0682
34950W        W48364   2.792   9.656   0.754 -0.0451  0.0938 -0.0679
34951W        W48365   9.180   7.448   1.476 -0.2023  0.3698 -0.1186
34952W        W48366   4.904   6.157  13.177  0.4811 -0.3570  0.3724
34953W        W48367   8.832   9.332   3.769  0.1143 -0.3106 -0.1466
34954W        W48368  13.662   8.902   0.022 -0.0948 -0.1026 -0.1157
34955W        W48369   2.042   3.065  13.911 -0.0250  0.1527 -0.2352
34956W        W48370   3.424  11.713  10.657 -0.0549  0.1963  0.0467
34957W        W48371   2.259  13.188   5.507 -0.1716 -0.2470  0.1386
34958W        W48372   5.247   6.225   4.603  0.1164  0.0101  0.0708
34959W        W48373  12.568  11.637   3.654 -0.1254  0.1220  0.1448
34960W        W48374   9.984   4.423  11.038  0.3425 -0.2488 -0.0200
34961W        W48375   6.107   8.881  13.697  0.1291  0.1428  0.0800
34962W        W48376  16.280  16.591  12.235 -0.0622 -0.0542  0.0210
34963W        W48377   3.533   2.097   6.230  0.0054  0.0213 -0.0168
34964W        W48378  10.419  16.015   4.453 -0.1384  0.0180 -0.2964
34965W        W48379  14.646   0.482   0.865  0.0290 -0.2311 -0.2111
34966W        W48380  16.592  16.625  14.657  0.3832  0.1852  0.0065
34967W        W48381   9.416   8.081  10.809  0.0046  0.1618 -0.0258
34968W        W48382  13.239  13.723  15.943  0.0428 -0.1583  0.5054
34969W        W48383  17.965   6.749  10.962  0.1196 -0.0812  0.2658
34970W        W48384  16.871   6.816  13.993 -0.1355 -0.2299 -0.2080
34971W        W48385   2.914  17.381  14.866 -0.0933 -0.0424 -0.2355
34972W        W48386   1.207   5.358   5.118 -0.1350 -0.1329 -0.1488
34973W        W48387   9.644   2.095  13.746 -0.1714 -0.0016  0.0853
34974W        W48388  11.788   1.836   5.538 -0.0107  0.2237  0.1513
34975W        W48389  17.791   5.468  11.942 -0.0410 -0.0504  0.5684
34976W        W48390  14.105  11.071   4.139 -0.2872  0.0631 -0.2079
34977W        W48391   7.896   6.218  11.682  0.1743 -0.0603 -0.0049
34978W        W48392   7.298   5.241  15.166 -0.1676 -0.1315 -0.0608
34979W        W48393  10.179   6.085   4.393  0.0358 -0.2425 -0.1937
34980W        W48394  13.201   7.170   2.241  0.0184 -0.0389  0.1877
34981W        W48395   0.181  16.216   4.327  0.2548 -0.1990 -0.0197
34982W        W48396   0.060  10.754   3.051 -0.0492  0.0276  0.1535
34983W        W48397   0.136   2.749   1.248  0.0321  0.1170  0.2609
34984W        W48398  10.242  16.540  13.065 -0.3282  0.2238  0.1720
34985W        W48399   0.619   3.038   2.114  0.1380 -0.1802  0.1807
34986W        W48400  16.369   7.038   1.992 -0.2235 -0.1853  0.3161
34987W        W48401  10.672  15.101   4.767  0.1876 -0.1003  0.1038
34988W        W48402   5.446   7.221   0.653 -0.0996 -0.1047 -0.1693
34989W        W48403  10.479   6.632  12.739 -0.1787 -0.4172  0.3356
34990W        W48404   5.663   1.347  15.678  0.0382 -0.0774  0.1771
34991W        W48405   4.175  17.844   1.860  0.0396 -0.3488  0.0951
34992W        W48406  10.922  12.607   1.170  0.1367  0.1455 -0.1718
34993W        W48407   7.447   8.368   3.870  0.1359  0.0257  0.1200
34994W        W48408   4.785  14.434  11.667 -0.0042  0.0534 -0.0258
34995W        W48409   6.680   6.139   4.909  0.0524 -0.3886 -0.0314
34996W        W48410   6.299  12.612  13.714  0.0184  0.1197  0.2820
34997W        W48411   5.693   0.719   5.550 -0.0714 -0.0453  0.3443
34998W        W48412   1.330  11.676  13.841  0.2069 -0.1501  0.0978
34999W        W48413   7.717  13.905  12.547  0.0060  0.1243  0.0700
35000W        W48414   2.129   3.904   0.793  0.1008  0.0273  0.0063
35001W        W48415  17.854  13.777   4.004 -0.1801 -0.1083  0.2173
35002W        W48416   3.767   7.569  15.327  0.1660  0.0927  0.1417
35003W        W48417   7.905  17.584  11.473 -0.4596 -0.2600  0.0486
35004W        W48418  10.324   0.287   6.091 -0.3416  0.1505 -0.0333
35005W        W48419   2.640   0.074  16.134  0.1054 -0.1350  0.2649
35006W        W48420   1.621   1.745   5.018  0.0378 -0.0002  0.0366
35007W        W48421   2.271  10.303   2.843  0.2889 -0.2359  0.0902
35008W        W48422  15.113  16.769   3.722 -0.1631  0.1603  0.0051
35009W        W48423  11.767  16.739   4.512  0.0817 -0.1559  0.0335
35010W        W48424   4.545   6.295  11.263 -0.0391 -0.0493  0.2019
35011W        W48425  17.483   0.530  14.465 -0.0854  0.1365 -0.2061
35012W        W48426  13.717  16.765  10.722  0.0518 -0.0583 -0.1322
35013W        W48427   8.867   9.067  16.435 -0.0325  0.2320 -0.0113
35014W        W48428  17.252  15.991  14.013  0.1711  0.4359  0.1685
35015W        W48429   4.146   1.523   1.683 -0.0977 -0.1965  0.0259
35016W        W48430   0.851  12.292  12.292  0.2843  0.2859 -0.1718
35017W        W48431   5.140   7.538  11.993 -0.0224  0.0165  0.1524
35018W        W48432   1.708  17.104   3.976 -0.0530  0.4569 -0.1298
35019W        W48433   3.758   1.622   3.670  0.1839 -0.1316  0.1701
35020W        W48434  16.375   4.666   4.628  0.0673  0.0160 -0.0835
35021W        W48435  15.944  10.159   3.116 -0.0908 -0.1311 -0.1482
35022W        W48436   7.282  16.023  12.880 -0.1040 -0.1062  0.1469
35023W        W48437  12.273  15.212   1.236  0.0769  0.0693 -0.1515
35024W        W48438  17.020  14.441  11.150 -0.1310 -0.0679 -0.3481
35025W        W48439  15.763   2.827  10.303  0.3183  0.1788 -0.1802
35026W        W48440   3.480   7.168  15.207  0.0074 -0.2213 -0.0921
35027W        W48441   0.512   6.517   3.865 -0.2488 -0.2285 -0.0713
35028W        W48442  10.886  15.781   1.904 -0.0894  0.0314  0.0726
35029W        W48443   5.444  15.507   1.192  0.2893  0.0222  0.2383
35030W        W48444  14.241   9.930  10.923  0.0056  0.0094  0.0024
35031W        W48445  17.416   9.322   0.050  0.0674 -0.0289  0.0821
35032W        W48446  10.882   1.963   2.744 -0.0231  0.0358  0.1472
35033W        W48447   8.137   4.390  15.013 -0.0342 -0.2236  0.1588
35034W        W48448   0.588   9.526  10.889 -0.0050 -0.4483  0.0657
35035W        W48449   5.562  14.593  13.906  0.1406  0.3375 -0.1773
35036W        W48450   9.543  14.875   2.442  0.0243 -0.0117  0.0801
35037W        W48451  14.335   3.546   1.725 -0.0042  0.1480  0.2882
35038W        W48452   3.763   3.249   5.626  0.2424  0.3112  0.0855
35039W        W48453  14.267  13.029   0.709 -0.0237  0.0785 -0.0322
35040W        W48454   9.823   8.129   1.053  0.1899  0.0289  0.0549
35041W        W48455  12.501   1.051  15.893  0.0969 -0.2198  0.0984
35042W        W48456  16.176   8.895   4.646  0.0917  0.0170 -0.1647
35043W        W48457   0.635  14.521  12.328 -0.2031 -0.1132 -0.1833
35044W        W48458  16.361  10.810  15.085 -0.2588  0.1119  0.2948
35045W        W48459  17.375  15.307  15.041  0.0657  0.2405 -0.0159
35046W        W48460  15.025   4.314   3.881  0.0798 -0.0992 -0.1632
35047W        W48461   2.328   2.423  13.216 -0.2859  0.1039  0.0454
35048W        W48462   3.845  17.207   1.288 -0.2365 -0.4468 -0.1746
35049W        W48463   0.142   2.311   2.626  0.1244 -0.0669  0.2931
35050W        W48464   6.368  15.753   3.610 -0.3449 -0.1271 -0.1713
35051W        W48465  13.639  13.542   2.985  0.1368 -0.0101  0.1933
35052W        W48466  15.981  12.934   2.206  0.0144  0.0818 -0.0307
35053W        W48467   5.557  11.052   0.873  0.0394 -0.0028  0.0618
35054W        W48468  12.050   5.883   3.498  0.2220  0.0566  0.1947
35055W        W48469   9.513   5.245  11.558  0.2913  0.0579  0.3563
35056W        W48470   2.186   6.985  13.579  0.0478 -0.2998 -0.1822
35057W        W48471   1.787   4.729  16.457  0.0615 -0.0678 -0.0542
35058W        W48472  12.626   7.126   2.820 -0.0052 -0.1296  0.0110
35059W        W48473   8.965   0.887   2.795  0.0692  0.1994  0.1815
35060W        W48474   6.303   2.777  14.875  0.1805 -0.1739  0.2576
35061W        W48475   5.559  10.625   0.566  0.3422 -0.1067  0.0952
35062W        W48476   2.298  12.946  12.113  0.2797  0.0595 -0.1022
35063W        W48477   3.884  11.663  16.326  0.3966 -0.1300  0.2487
35064W        W48478   8.429  13.950   3.782  0.1260  0.4235 -0.0151
35065W        W48479   5.543   5.090   2.829  0.1058  0.1745  0.0115
35066W        W48480  11.129   7.755  14.434 -0.4778 -0.0806  0.3042
35067W        W48481   0.487   0.593   1.198 -0.0685 -0.3099 -0.2747
35068W        W48482  11.272   9.948  16.119  0.2298  0.1667  0.2953
35069W        W48483   0.906   5.133  14.833  0.1600 -0.0219 -0.2089
35070W        W48484  12.128  14.912  15.606  0.1443  0.1867 -0.1784
35071W        W48485   5.575  16.252  10.941 -0.0451 -0.0948  0.5471
35072W        W48486  13.677  12.110   4.673 -0.0709 -0.0002 -0.0991
35073W        W48487  12.679  16.680   2.615 -0.1693  0.3316  0.2426
35074W        W48488  13.774   3.155  15.910  0.0724  0.0605  0.2262
35075W        W48489  11.447  11.978   1.825 -0.3173 -0.0300 -0.0724
35076W        W48490   5.737  10.276  14.019 -0.1753  0.2789  0.0333
35077W        W48491  13.301   9.761   3.627  0.2117 -0.3064 -0.0855
35078W        W48492   7.929  17.880   1.817 -0.0908 -0.1575  0.0644
35079W        W48493  17.753  12.074   0.630  0.3367  0.0749 -0.1966
35080W        W48494  15.321   1.539  15.167  0.0257 -0.2423  0.0768
35081W        W48495   1.558  16.167  13.415  0.0275  0.1860  0.4141
35082W        W48496   2.630   3.392   0.903  0.0880 -0.1641 -0.0514
35083W        W48497   8.156   1.845  11.999  0.1794  0.1714 -0.0942
35084W        W48498   7.959   1.740  14.631 -0.0087  0.0805 -0.3263
35085W        W48499   4.892   9.429   2.121 -0.1447 -0.0067 -0.1816
35086W        W48500  13.335   0.184   1.985  0.0137 -0.0906 -0.0748
35087W        W48501   4.139   9.515   1.500 -0.0708 -0.0615  0.1130
35088W        W48502  10.795  15.905  11.427 -0.2999  0.3168 -0.1024
35089W        W48503  11.997  12.921   6.148 -0.2969  0.1299 -0.1160
35090W        W48504   6.514  11.950   3.938 -0.3764 -0.0472 -0.2963
35091W        W48505   6.191   0.201   4.734  0.1154 -0.1525  0.0975
35092W        W48506   6.500  12.424  12.063 -0.0215 -0.1372  0.0684
35093W        W48507   8.009   9.548  13.670  0.1303 -0.3048  0.1166
35094W        W48508   2.686   5.129   0.696 -0.0377  0.0969 -0.1745
35095W        W48509   5.160   1.400   2.473  0.1014 -0.1369  0.1487
35096W        W48510   6.529   7.496  11.179  0.4118  0.1344 -0.2913
35097W        W48511  15.323  18.270   1.987  0.0323  0.1682  0.0243
35098W        W48512   6.944   1.665   1.481 -0.2533  0.1401 -0.1680
35099W        W48513   8.851  16.904  12.254  0.2346 -0.0407 -0.1360
35100W        W48514   1.400  10.726   3.208  0.0745 -0.2618 -0.3785
35101W        W48515   4.855  18.014   4.394  0.4202  0.1072 -0.0966
35102W        W48516  14.036   1.563  10.869  0.0023 -0.0667  0.1652
35103W        W48517  17.086   1.667  15.687 -0.3100  0.0348 -0.0026
35104W        W48518  11.989   2.544  11.852  0.0695 -0.1915  0.0968
35105W        W48519  17.131  10.491   1.194  0.3555  0.3335 -0.1208
35106W        W48520   4.814  17.249  16.083  0.0202  0.2830  0.3070
35107W        W48521  17.604  13.005   4.709  0.2404 -0.1226 -0.2112
35108W        W48522  12.054  14.705   4.582  0.1474 -0.1312  0.0333
35109W        W48523   8.673   6.539  16.481  0.2328  0.1611 -0.0647
35110W        W48524   3.455  17.624  15.490 -0.1141  0.0647 -0.0208
35111W        W48525   0.332   3.517  13.418  0.0784  0.0292  0.1515
35112W        W48526   2.073   8.415   4.921  0.0655 -0.1015  0.1283
35113W        W48527   7.932   8.550   1.320 -0.1451  0.0132 -0.3164
35114W        W48528  11.090   2.491  12.762  0.1303  0.1144  0.3081
35115W        W48529  10.078  14.634  16.354  0.0946 -0.2788  0.0525
35116W        W48530   6.701  15.091   4.148 -0.3072 -0.0058 -0.0593
35117W        W48531   1.218   8.326   1.238  0.1867 -0.0905 -0.1306
35118W        W48532   5.201  12.087   1.729 -0.0146  0.1458  0.0184
35119W        W48533   0.682   1.793   4.095  0.0783 -0.0109 -0.3496
35120W        W48534   1.763  11.879   0.299  0.2866  0.0274  0.0400
35121W        W48535  10.422   9.681  12.338  0.0097 -0.0455  0.1730
35122W        W48536   4.409   2.856   4.034  0.2763 -0.0718  0.0676
35123W        W48537  16.095  13.614  12.864  0.0272  0.1101 -0.0617
35124W        W48538  13.441   4.358   3.730  0.0100  0.2225 -0.1986
35125W        W48539   6.822  10.910   0.136  0.1202  0.1854  0.1092
35126W        W48540   8.153   2.878   5.316 -0.0804  0.0576  0.0906
35127W        W48541  11.000   7.049   2.428  0.1642  0.0531  0.0149
35128W        W48542   7.649   3.150   3.197  0.1927 -0.2465 -0.1262
35129W        W48543   2.451   0.118  13.375  0.2353 -0.1316  0.2726
35130W        W48544  16.394  12.220  11.626 -0.0362 -0.0079  0.1707
35131W        W48545   9.830  15.933   5.258 -0.1512  0.0144  0.0964
35132W        W48546   0.830  13.362  16.550 -0.1312 -0.0762  0.0392
35133W        W48547  12.775  14.850   1.270  0.1175  0.3788  0.0037
35134W        W48548  17.805  16.102   0.802 -0.0315  0.0274  0.3657
35135W        W48549  14.016   4.797  12.527 -0.4647  0.3089  0.1137
35136W        W48550   8.443   9.599   2.781 -0.0582  0.2713 -0.1773
35137W        W48551  14.003   6.460   1.978 -0.1089 -0.0753 -0.0677
35138W        W48552  16.686   7.198   0.266 -0.3153  0.1824 -0.0257
35139W        W48553  14.091   3.309   0.479 -0.0497 -0.0870 -0.0439
35140W        W48554   9.092   5.157  15.349 -0.2596 -0.2504 -0.2739
35141W        W48555   7.152   9.852   4.468  0.0029  0.1211 -0.1083
35142W        W48556   6.883   2.715   5.701 -0.0733 -0.0659 -0.0593
35143W        W48557   1.390   9.224  14.192  0.0246 -0.0046 -0.1529
35144W        W48558  10.082  14.313  13.878  0.0955 -0.2268 -0.1446
35145W        W48559  10.650   9.424   4.625 -0.0696  0.0552 -0.0174
35146W        W48560  10.730  16.664   5.122  0.1542  0.2289  0.0224
35147W        W48561   3.777  15.226   3.797  0.0934 -0.0685 -0.0875
35148W        W48562  14.929  15.505  10.716  0.2181  0.1772  0.2825
35149W        W48563   7.054   2.564   5.238 -0.0448  0.0921 -0.1191
35150W        W48564  15.184  14.636   0.927  0.2300 -0.0798 -0.4034
35151W        W48565   2.129   6.451  12.220 -0.0747  0.3412  0.0664
35152W        W48566  13.855   0.768   3.375 -0.1341 -0.2955  0.1382
35153W        W48567  13.539   1.220   1.327  0.3371 -0.0054  0.0801
35154W        W48568   9.424   8.283   6.374  0.4272  0.0196  0.1211
35155W        W48569   3.127   1.445  13.002 -0.3633  0.1020 -0.0058
35156W        W48570   0.024  16.747   4.353 -0.0286 -0.0873  0.3468
35157W        W48571   8.790  14.392  12.261 -0.1827  0.0017  0.0897
35158W        W48572   9.768   9.711  10.099 -0.3302 -0.0981 -0.0998
35159W        W48573   0.157   3.009  12.730 -0.2962  0.2726  0.0229
35160W        W48574   5.346  16.793   4.593 -0.0216  0.1694  0.3992
35161W        W48575   5.689   5.763  13.717  0.3990  0.2707 -0.1020
35162W        W48576  12.334  12.659   5.932 -0.1087 -0.0273  0.0129
35163W        W48577   9.275   3.665   0.520  0.1593  0.0673 -0.0483
35164W        W48578  11.387  18.114  15.396 -0.2171 -0.0828 -0.0500
35165W        W48579   0.149   9.806  13.688 -0.1018  0.1497  0.2451
35166W        W48580  17.755   2.400   1.576 -0.0301 -0.1322 -0.2400
35167W        W48581  10.038   5.200  13.441 -0.2045  0.1014  0.1778
35168W        W48582   2.149  11.240   0.768 -0.1194  0.0858 -0.1029
35169W        W48583   1.066  12.277   4.102 -0.1047 -0.2603 -0.1476
35170W        W48584  16.030   3.272  14.246  0.3331 -0.0360 -0.0222
35171W        W48585   9.086   5.502   3.424  0.1475  0.4688  0.0974
35172W        W48586  17.392   6.016  16.516  0.2536 -0.1364 -0.1358
35173W        W48587   6.282   3.539   4.334  0.0892  0.2137 -0.0954
35174W        W48588  10.320  12.457   3.053  0.0292 -0.1194  0.1261
35175W        W48589   5.131  13.121   0.992  0.0114  0.2318 -0.0436
35176W        W48590   1.373   5.105   2.735  0.2110  0.0399  0.3455
35177W        W48591  10.140   7.544   9.952  0.1599  0.1876 -0.3133
35178W        W48592   6.153  17.901  12.283 -0.0514 -0.0310 -0.1817
35179W        W48593   2.415   7.769   3.891 -0.1960  0.0519 -0.3509
35180W        W48594   6.632   6.085   4.400 -0.2258  0.0654  0.1023
35181W        W48595   6.470  17.852  11.900  0.0909  0.0600 -0.0864
35182W        W48596   3.288   7.173  12.794 -0.0886 -0.0832  0.2287
35183W        W48597  17.257  13.580  11.931  0.0598  0.2648 -0.0682
35184W        W48598   0.268  13.594  15.971  0.1336  0.0515  0.0970
35185W        W48599   6.346   3.513  16.024  0.1091  0.1937 -0.1756
35186W        W48600   5.803   0.782   2.889  0.1751  0.4435 -0.0078
35187W        W48601   3.046  12.089   0.577  0.0349  0.2496  0.2162
35188W        W48602  14.380  14.566   4.366  0.0725 -0.0317  0.2170
35189W        W48603  13.385   8.966  10.280 -0.1327 -0.2006 -0.1086
35190W        W48604   3.100   3.537  12.842  0.1375  0.4556 -0.0672
35191W        W48605   7.613   7.934  13.832  0.0035 -0.1329  0.2055
35192W        W48606   4.707  17.721   1.812 -0.1902  0.1294 -0.1559
35193W        W48607   0.531   6.116  13.411  0.2007  0.0401 -0.0626
35194W        W48608  12.047   8.910  10.360 -0.0630 -0.3508 -0.3147
35195W        W48609   8.408   6.830  14.063 -0.1401  0.2197 -0.1633
35196W        W48610   6.741   7.878  11.358 -0.0884 -0.3696  0.0251
35197W        W48611  16.323   3.031  10.983  0.0563  0.0149  0.2410
35198W        W48612  15.510  17.926   5.449  0.1920 -0.0187 -0.1918
35199W        W48613   2.018   6.217  14.811  0.1125  0.0903 -0.0364
35200W        W48614  13.752  16.237  13.482 -0.1636  0.0731 -0.1614
35201W        W48615   5.307  14.782   1.746 -0.4414 -0.0525  0.0478
35202W        W48616   2.161   3.276  15.056  0.5697  0.2225 -0.0568
35203W        W48617  10.546   7.371  14.007 -0.0212 -0.2780 -0.0118
35204W        W48618  14.112  14.000  14.371  0.1689  0.0027 -0.0256
35205W        W48619  10.932   1.842   3.546  0.0027  0.0136  0.0208
35206W        W48620  15.656   0.147  14.195  0.0116 -0.1607  0.1774
35207W        W48621  17.691  13.571   0.156  0.0877  0.1899  0.1774
35208W        W48622   4.048  12.938   2.093 -0.0811 -0.3336  0.2095
35209W        W48623   0.883   4.290  15.171 -0.3225  0.1128  0.0420
35210W        W48624   2.058  11.231   2.202 -0.1962 -0.0715 -0.0236
35211W        W48625   4.477  14.551   2.458  0.0046  0.4246 -0.2243
35212W        W48626   7.637   3.426  11.595 -0.1864 -0.0018  0.0691
35213W        W48627   8.676   6.212   1.401  0.2067 -0.2299  0.0154
35214W        W48628   2.385   5.326   4.216 -0.2453 -0.0530  0.0185
35215W        W48629  12.132   6.649  14.402  0.0717  0.3374  0.1153
35216W        W48630  14.835  17.050  12.931  0.1777 -0.0589 -0.1691
35217W        W48631  18.020  14.113  14.280 -0.0390  0.1773 -0.3182
35218W        W48632  14.720  12.912   4.663 -0.1871  0.1449 -0.0018
35219W        W48633  15.803   3.850  15.939  0.1051  0.1485 -0.0390
35220W        W48634  11.539  15.209   4.038  0.0527  0.2038  0.1082
35221W        W48635  16.909  15.747   5.621 -0.0566  0.0109 -0.3486
35222W        W48636  10.604   4.269   3.128  0.0244  0.1556 -0.0863
35223W        W48637  15.142  17.865  16.277 -0.2625  0.0875 -0.1402
35224W        W48638  10.947   9.308  11.971  0.1259  0.1123 -0.0513
35225W        W48639   0.401  10.407  11.091  0.0837  0.0159  0.0345
35226W        W48640  11.431   8.486  16.515  0.0805  0.1965 -0.1589
35227W        W48641  16.688   3.590   0.285 -0.1286 -0.0637  0.1581
35228W        W48642  15.619   7.484   3.219 -0.2842  0.0236 -0.2825
35229W        W48643   5.238   0.037   6.118 -0.1763  0.0927  0.0285
35230W        W48644  10.187   9.414   2.291 -0.0384 -0.0177  0.0214
35231W        W48645  10.818   4.644  13.081 -0.2101 -0.1323 -0.6374
35232W        W48646   0.522  14.090   4.057  0.2799 -0.0675  0.0762
35233W        W48647  10.169   6.150  15.421  0.3167 -0.0232  0.0273
35234W        W48648   2.375   5.752  12.939  0.0463 -0.2652 -0.0737
35235W        W48649  10.064  17.162  10.775 -0.4206 -0.1793 -0.0869
35236W        W48650  13.405  12.195  10.336  0.0429  0.2189 -0.4853
35237W        W48651   7.923  15.965   6.097  0.2054 -0.1805 -0.0429
35238W        W48652   9.869   8.121   4.715 -0.0574  0.1081 -0.2785
35239W        W48653  17.079  10.796   2.364  0.1643  0.2386 -0.1880
35240W        W48654  15.975   2.535  13.244 -0.1722  0.1561  0.2355
35241W        W48655  11.229  17.261  11.448  0.0048 -0.0031  0.0892
35242W        W48656  11.178   7.396   5.314 -0.0481 -0.2020  0.0391
35243W        W48657   6.260  13.644   2.684  0.2300 -0.1173 -0.3068
35244W        W48658   7.153   0.235  14.924  0.0567  0.0525 -0.2140
35245W        W48659   6.554  11.118   3.161 -0.1399  0.0029 -0.1700
35246W        W48660  15.202   3.936  14.259 -0.1832 -0.0366 -0.1689
35247W        W48661  10.681  17.337  14.746 -0.1383  0.1277  0.2240
35248W        W48662  16.890   0.695   2.676  0.1087  0.3302 -0.1445
35249W        W48663   1.104   3.828   3.793  0.2924  0.0701 -0.0451
35250W        W48664  17.490   6.252  14.246  0.0477 -0.1458  0.3097
35251W        W48665   3.606  18.234  15.609 -0.1669 -0.0436 -0.3306
35252W        W48666   0.806  13.173  12.915  0.0965  0.1813 -0.1124
35253W        W48667   7.827  17.697   0.579 -0.1237 -0.2614 -0.0860
35254W        W48668  16.588  17.747  12.235  0.0561 -0.0009  0.1254
35255W        W48669   1.520   7.439  14.491  0.2251 -0.1935 -0.2661
35256W        W48670  12.652   0.867  16.348 -0.2629  0.1154  0.2412
35257W        W48671  14.474  17.129  14.047 -0.1964  0.0333  0.3806
35258W        W48672   6.986   9.557  12.651 -0.1092 -0.1922  0.0250
35259W        W48673   9.193  18.203   0.067 -0.1049  0.2227 -0.1728
35260W        W48674  11.341   3.314   4.661 -0.1780 -0.0988 -0.1791
35261W        W48675   1.378   8.252   3.934  0.0570 -0.0683 -0.0866
35262W        W48676  17.893  12.774  13.174  0.1888 -0.1247  0.1319
35263W        W48677   1.694   7.548  16.215  0.0779  0.1186 -0.0729
35264W        W48678   4.826  11.874   4.779 -0.1380  0.0309 -0.2007
35265W        W48679   1.880   4.973  14.744 -0.0918 -0.1534 -0.0325
35266W        W48680   3.708   3.294   5.025 -0.1011 -0.0366 -0.3083
35267W        W48681   3.789  17.911  15.275  0.2292 -0.2333  0.1978
35268W        W48682  14.159  17.334  13.559  0.0018  0.0496  0.0086
35269W        W48683   5.423  17.666  14.912  0.1169 -0.0720 -0.1066
35270W        W48684  17.086   7.884  14.461 -0.3692 -0.2228  0.1948
35271W        W48685   7.886   4.122   9.667 -0.1210  0.1856 -0.1103
35272W        W48686   3.893   6.117  14.676 -0.0701 -0.1819  0.1629
35273W        W48687   2.293  12.026  12.082  0.3466  0.3632  0.2146
35274W        W48688  16.253   6.612   4.207  0.2827 -0.1207  0.1824
35275W        W48689  11.709  16.384   4.081 -0.2040  0.1146 -0.1171
35276W        W48690   9.575  15.859  12.583  0.1985  0.1623  0.2295
35277W        W48691   2.251   0.526  11.944 -0.0601  0.1155  0.0692
35278W        W48692   6.799   7.473   0.996 -0.0179 -0.2624 -0.2177
35279W        W48693   3.995   4.252   1.412 -0.0028 -0.0833 -0.1596
35280W        W48694   3.581   4.873   2.133 -0.0188  0.2984  0.0663
35281W        W48695  13.141   7.468  13.711  0.0104  0.3562  0.1820
35282W        W48696   3.460   2.661   2.189  0.0408  0.0940 -0.1000
35283W        W48697   8.286   3.871  14.153  0.0072 -0.0721  0.1313
35284W        W48698  11.004  16.635  15.141  0.1498  0.1682  0.3768
35285W        W48699  16.245   7.127   1.540 -0.1064  0.2353  0.1225
35286W        W48700  18.029   1.712   5.730 -0.2219 -0.0335 -0.3154
35287W        W48701   3.475  12.291   4.703  0.1413 -0.1256  0.0106
35288W        W48702   3.184   9.280   2.365 -0.0457 -0.2496 -0.1605
35289W        W48703   4.171  13.672  16.140  0.0228  0.0403  0.1248
35290W        W48704   9.194  12.124  12.139 -0.2137 -0.1402  0.1406
35291W        W48705   0.294   5.310  12.160 -0.0451 -0.3134  0.0219
35292W        W48706   6.153  14.296  14.629 -0.0566  0.0400 -0.2835
35293W        W48707  11.415  10.610   1.123  0.2222  0.0362  0.1661
35294W        W48708  17.039   6.557  11.522 -0.0373 -0.3652 -0.1512
35295W        W48709   0.417   8.326   3.355  0.0862 -0.0239 -0.3183
35296W        W48710   6.449   3.478  13.831  0.2884  0.0448  0.2267
35297W        W48711   0.550   5.494   9.719  0.1695  0.0967  0.0402
35298W        W48712   6.860   3.407  16.242  0.1385 -0.1808 -0.0989
35299W        W48713   5.704  10.476   3.401  0.0689  0.0317  0.0875
35300W        W48714   0.146  14.504   2.762 -0.1266 -0.0798  0.0850
35301W        W48715   7.959   1.262  13.872  0.2215  0.3401 -0.1013
35302W        W48716  10.482  14.758   2.086  0.2143 -0.0922 -0.0819
35303W        W48717   7.922   9.110   1.300  0.0112  0.1075  0.1974
35304W        W48718   3.982  15.699   2.557  0.0399 -0.3618 -0.1391
35305W        W48719  14.630  15.639  16.499 -0.0957  0.3298  0.0130
35306W        W48720   4.204   6.418  15.097 -0.0291  0.3222 -0.0504
35307W        W48721  13.154   5.484   3.205 -0.2087 -0.0072  0.0038
35308W        W48722  17.420   0.067   1.754  0.1461  0.0600  0.1003
35309W        W48723   0.939   7.196  13.501 -0.2569  0.2377 -0.5021
35310W        W48724   7.656  13.336   5.390  0.0710 -0.2800 -0.1390
35311W        W48725  17.995  12.217   3.058 -0.1437  0.2119 -0.0423
35312W        W48726   3.634  13.683  14.416  0.1723  0.0888 -0.0668
35313W        W48727   1.463   0.200  13.305 -0.1116  0.1995  0.1627
35314W        W48728   7.469  16.152   0.297  0.0729 -0.1412 -0.2837
35315W        W48729   0.096   1.453  14.627  0.0658  0.0169  0.2002
35316W        W48730   2.536  14.118   1.280 -0.0334 -0.2043 -0.2712
35317W        W48731   1.641   3.475  11.921  0.0429  0.0079  0.0088
35318W        W48732  10.301  15.630  12.098  0.1164 -0.3618  0.1966
35319W        W48733  13.942   7.693   5.115  0.0865 -0.1089 -0.1522
35320W        W48734  14.038   4.181   3.675  0.2732 -0.1414 -0.0654
35321W        W48735  10.711   1.972   1.344 -0.1805  0.1292  0.1937
35322W        W48736   4.313  14.069   5.096  0.0256 -0.2029 -0.0520
35323W        W48737  10.714   9.339  16.505  0.3170 -0.1933 -0.1227
35324W        W48738   9.445  16.376   2.231 -0.1481 -0.1785 -0.3121
35325W        W48739   2.998   8.401  13.740  0.2842  0.1042 -0.1003
35326W        W48740  12.581  10.196  16.223 -0.3193 -0.1782 -0.4820
35327W        W48741  18.101  12.344   4.338  0.0171 -0.0206 -0.0561
35328W        W48742  12.398   5.161  11.273 -0.0630  0.1048 -0.1915
35329W        W48743  14.451   8.623  10.110  0.1725  0.3354 -0.3125
35330W        W48744   3.167  10.012   3.881 -0.0705  0.1056  0.1280
35331W        W48745   2.535   0.322   3.418  0.0599  0.1163  0.1662
35332W        W48746   9.981   8.894   2.952  0.1052  0.1080 -0.0738
35333W        W48747   8.321   0.792   4.493 -0.0754 -0.2598 -0.3681
35334W        W48748  18.073   3.290  13.570 -0.1819 -0.2660  0.0253
35335W        W48749  10.327  14.078   6.765  0.1050 -0.1751  0.0453
35336W        W48750   6.402   6.521   5.671 -0.3110 -0.1675 -0.1011
35337W        W48751  11.245   9.722   1.167  0.3549  0.1724 -0.0891
35338W        W48752  11.396   2.893  12.729  0.0045  0.2693 -0.0022
35339W        W48753  16.545  12.153  14.916  0.0140  0.2167 -0.1810
35340W        W48754  10.374   3.832   1.267  0.3278 -0.0640  0.1876
35341W        W48755  13.603  15.641  16.192  0.1235 -0.1403 -0.3845
35342W        W48756  10.775   4.088  11.207  0.2045 -0.2047  0.0978
35343W        W48757  16.752   9.295   1.768 -0.1058 -0.2880  0.1537
35344W        W48758   1.436   5.393   9.712  0.0193  0.2861  0.2695
35345W        W48759  14.476  11.289  12.405 -0.0242 -0.0396 -0.1511
35346W        W48760   4.108  10.953   3.877 -0.1045 -0.1517 -0.1219
35347W        W48761   6.337  12.764   2.911 -0.1073 -0.0562 -0.3090
35348W        W48762   3.483   4.096   4.812  0.2067 -0.2720 -0.0911
35349W        W48763   2.245  18.113  11.220  0.0373 -0.1584 -0.0959
35350W        W48764  16.249   1.443  10.253  0.0576 -0.2054 -0.0064
35351W        W48765  11.942   5.122   2.678 -0.1001  0.2747  0.1218
35352W        W48766   0.636   3.684  12.154  0.4295  0.1707  0.0884
35353W        W48767   5.559   8.788  15.296  0.0192  0.0825  0.4006
35354W        W48768   8.993   5.087  10.686  0.0871  0.0113 -0.0550
35355W        W48769   4.160  14.547   4.922 -0.0259 -0.1045 -0.1663
35356W        W48770   1.056  15.339   1.028 -0.1346  0.0947  0.2128
35357W        W48771  13.004   1.807   5.813 -0.1270 -0.0552  0.0127
35358W        W48772   5.276   0.499   3.482 -0.2144  0.0570  0.1164
35359W        W48773   8.733  10.332   6.007  0.2628  0.0757 -0.2155
35360W        W48774   3.233   6.891  14.790  0.0146  0.1055 -0.0011
35361W        W48775  12.310  16.528   0.848 -0.0626  0.0395  0.1266
35362W        W48776  14.600   6.133  12.941  0.0591  0.2084  0.1327
35363W        W48777  15.726  14.120   2.069  0.0005 -0.0895 -0.1591
35364W        W48778  13.755   9.032   2.923  0.0092 -0.3236 -0.0894
35365W        W48779   8.818  12.506  13.364  0.0146  0.1362 -0.0924
35366W        W48780  15.220  13.360  12.858  0.1242  0.0767  0.1326
35367W        W48781  17.132   4.706  11.014 -0.0179  0.0495 -0.2880
35368W        W48782   7.838   3.002  12.483  0.0654 -0.0917  0.0354
35369W        W48783  15.398   1.246   1.107  0.1874  0.0944 -0.0721
35370W        W48784  17.592  15.999   5.714  0.1589  0.5143 -0.1191
35371W        W48785  15.371  16.209   3.613  0.0591 -0.0853 -0.2637
35372W        W48786   7.415   4.216  11.389  0.2967  0.0543  0.0284
35373W        W48787   2.260  14.868  16.247  0.0299 -0.1392 -0.0621
35374W        W48788   3.572   8.274   9.702  0.1667  0.1840 -0.2564
35375W        W48789   3.394  17.661   3.087 -0.0536 -0.0048  0.2372
35376W        W48790   6.804   2.800   2.762 -0.0655 -0.0580 -0.1732
35377W        W48791   6.112  11.802  16.435 -0.0365 -0.0428 -0.1248
35378W        W48792  12.915  15.877  15.179 -0.4863 -0.1470 -0.2022
35379W        W48793   5.863   9.496   6.172  0.0911  0.0284  0.5482
35380W        W48794   8.653   9.536   1.565  0.0318  0.0571  0.0007
35381W        W48795   4.722  10.834  13.789  0.0884 -0.1145  0.1717
35382W        W48796   6.722  13.418  12.196 -0.1883 -0.0388  0.0234
35383W        W48797   8.245   9.127   5.221  0.0184 -0.0762 -0.0364
35384W        W48798   7.074  16.465   0.565  0.1657  0.4164 -0.2938
35385W        W48799  16.100   5.500  12.429 -0.1222 -0.1296  0.0280
35386W        W48800   6.900  12.200  11.759 -0.0262  0.0702  0.0410
35387W        W48801   0.765   4.855  13.684 -0.1010  0.1622  0.3323
35388W        W48802  14.294   3.807   0.564  0.0555  0.2047 -0.1455
35389W        W48803  12.389   3.405   2.355 -0.0797  0.1892 -0.1098
35390W        W48804   1.705   3.949   4.480  0.4706 -0.3410  0.1851
35391W        W48805  17.151  12.062  10.737  0.3532  0.3909  0.1512
35392W        W48806   7.993   9.373   2.788 -0.0555  0.1302 -0.0661
35393W        W48807   4.591  18.036  14.996 -0.0701 -0.1992 -0.2387
35394W        W48808   3.556   8.368  10.834 -0.0312  0.0394 -0.2467
35395W        W48809  13.664   1.462   4.173  0.1493 -0.0104  0.0371
35396W        W48810  10.929  16.168  12.585 -0.1403 -0.1234 -0.0029
35397W        W48811   5.949   1.866   2.681 -0.0220 -0.0493  0.0899
35398W        W48812   8.553  11.937  12.900 -0.2089  0.1347  0.0474
35399W        W48813   6.589  16.677  15.379 -0.0205  0.1443 -0.0118
35400W        W48814   8.997   2.858   2.802 -0.0781 -0.0435 -0.2142
35401W        W48815   6.394   4.690  14.703 -0.4090 -0.1520  0.1467
35402W        W48816  12.796   0.230  12.661  0.0873  0.1608 -0.0850
35403W        W48817   4.160  13.111   0.383 -0.2732 -0.1463 -0.3286
35404W        W48818   8.111  14.851   3.004  0.0896 -0.2321 -0.1890
35405W        W48819  11.698  13.700   5.095  0.1035 -0.1500  0.0383
35406W        W48820   8.736   6.115  14.737 -0.1471 -0.1843 -0.0364
35407W        W48821   6.094  11.834   5.313  0.1468 -0.0091  0.1119
35408W        W48822   8.165  11.651  11.377 -0.0841  0.0826  0.0244
35409W        W48823   9.660  13.013   2.883  0.0567  0.0352 -0.4164
35410W        W48824   2.075   5.997   4.004  0.1509  0.2248  0.2959
35411W        W48825   0.842  14.173  13.005 -0.2557 -0.0882  0.0408
35412W        W48826   2.450   6.054   6.460  0.0619 -0.0204 -0.0153
35413W        W48827   5.966  11.657  11.797 -0.0827 -0.0323 -0.0487
35414W        W48828  11.233   6.335   1.305  0.3665  0.0409  0.0221
35415W        W48829   1.397  11.750   4.230  0.3244  0.1355 -0.0179
35416W        W48830   5.713   3.124  14.841 -0.0013 -0.1030 -0.2144
35417W        W48831  17.142   9.357  14.626 -0.2255 -0.0630  0.0027
35418W        W48832   2.542   6.065  12.499 -0.2261 -0.0346  0.5091
35419W        W48833  14.696  13.470  10.521 -0.2701  0.1626  0.0714
35420W        W48834   4.910  13.638  14.666 -0.1053  0.3115 -0.1420
35421W        W48835  11.998  13.456  15.744 -0.0910 -0.2070  0.2106
35422W        W48836   6.879  17.917  12.157 -0.4346 -0.1082  0.2239
35423W        W48837   4.957   0.269  15.781 -0.0919  0.2159  0.2704
35424W        W48838   1.367   2.081   0.207  0.0975 -0.2522  0.1889
35425W        W48839   0.379   5.077   4.811 -0.0899  0.0454 -0.0415
35426W        W48840  12.558  10.201   5.407 -0.0014 -0.1309 -0.2275
35427W        W48841   0.411   2.266   1.699  0.2196 -0.2307  0.0388
35428W        W48842  13.631  14.044   2.889 -0.2806 -0.0163 -0.1408
35429ION     NA48843  17.660   8.669   9.806  0.2785 -0.2671  0.2180
35430ION     NA48844  17.140   0.165  10.119 -0.0526  0.1952 -0.2799
35431ION     NA48845   9.707   5.569   3.634 -0.5785 -0.2103  0.2005
35432ION     NA48846  16.962   4.600   5.278 -0.0256 -0.3060 -0.1316
35433ION     NA48847   5.502  17.433  14.406  0.1099 -0.2132  0.3276
35434ION     NA48848  12.884  14.302  10.974  0.2807 -0.0217 -0.0084
35435ION     NA48849   1.596   7.653   9.716  0.0487 -0.5310 -0.1451
35436ION     NA48850   3.457   7.653   0.541  0.0132  0.1013 -0.2704
35437ION     NA48851   8.584  11.327   4.459  0.2988 -0.1577  0.1861
35438ION     NA48852   8.262   7.147  10.094  0.0091 -0.0539 -0.2869
35439ION     NA48853   2.079   9.072   4.597  0.0313 -0.0374 -0.0130
35440ION     NA48854   2.085   8.323  13.300 -0.0545 -0.6053 -0.0938
35441ION     NA48855   4.002   1.462   3.306 -0.0172  0.2573  0.1377
35442ION     NA48856  17.863  14.002  10.728  0.2069  0.2223  0.0527
35443ION     NA48857   7.588  13.088  10.144  0.0712 -0.2164  0.1271
35444ION     NA48858   5.717  16.391   6.441 -0.0192  0.1053  0.1118
35445ION     NA48859   1.232   8.830   1.168  0.0069  0.1297  0.2456
35446ION     NA48860   2.286   5.134   9.854  0.1385 -0.0951  0.0432
35447ION     NA48861  10.493  12.265   6.639  0.1033  0.0601  0.2378
35448ION     NA48862  10.029  17.021   3.127  0.2744  0.3190 -0.0285
35449ION     NA48863  16.837   9.117   4.165 -0.0327  0.0355 -0.0965
35450ION     NA48864  15.654   1.405   5.621 -0.0822  0.2796  0.1533
35451ION     NA48865   7.472  14.489   5.759 -0.1119 -0.0124  0.0434
35452ION     NA48866  14.544   9.368  16.434 -0.1276  0.2141  0.5422
35453ION     NA48867   3.656   4.973   1.624 -0.4878 -0.1905  0.1666
35454ION     NA48868  10.188   1.752   6.747 -0.0339 -0.0579  0.2263
35455ION     NA48869   3.176   4.144  12.728  0.1445  0.1440 -0.0696
35456ION     NA48870   7.972   8.719   0.739  0.0559 -0.3212  0.0714
35457ION     NA48871   6.123  11.687  13.662 -0.2832  0.1624 -0.1517
35458ION     NA48872  14.566  13.315  12.063  0.1093 -0.2283 -0.0098
35459ION     NA48873   8.627   7.520  13.373 -0.1059 -0.0998 -0.0393
35460ION     NA48874  17.663  17.745  13.406 -0.2270  0.0990 -0.0492
35461ION     NA48875  13.833  12.463  15.952  0.1626 -0.1431 -0.0512
35462ION     NA48876  13.742  12.697   2.452 -0.0424  0.4009  0.2154
35463ION     NA48877  12.852  12.046  10.200 -0.3541  0.0628  0.0239
35464ION     NA48878   2.454   1.021  12.107 -0.1014 -0.2129 -0.1082
35465ION     NA48879   1.933   8.788   0.418  0.2049  0.1593  0.0388
35466ION     NA48880   0.120   3.262   2.993 -0.0670  0.0061 -0.0507
35467ION     NA48881  13.699  17.764  12.985  0.1971 -0.4107 -0.3339
35468ION     NA48882   9.738  14.608   3.972 -0.0614 -0.3227 -0.1981
35469ION     NA48883   9.828   9.619   6.085  0.0837  0.2226 -0.1881
35470ION     NA48884   5.627  12.195   6.243 -0.0607  0.1194 -0.2457
35471ION     NA48885   1.213   0.018  15.672  0.2911  0.0098 -0.2547
35472ION     NA48886  17.114  10.694   4.412 -0.1170  0.0846 -0.1672
35473ION     NA48887   2.877   1.672  10.728  0.1639  0.0540 -0.0041
35474ION     NA48888   4.272  14.376   6.481  0.0407  0.0699  0.2254
35475ION     NA48889   1.232  14.347  11.031 -0.0379  0.0556 -0.0386
35476ION     NA48890   6.844   8.639   6.140  0.0308  0.2813 -0.2849
35477ION     NA48891  17.633  15.220   6.811  0.1639 -0.0652 -0.0840
35478ION     NA48892   4.158   5.156  11.190 -0.0749  0.1548 -0.3447
35479ION     NA48893   3.525  14.369  10.426 -0.1295  0.1361 -0.1300
35480ION     NA48894   7.397  18.182  11.895 -0.1451 -0.2130  0.1942
35481ION     NA48895   3.239  16.824  11.855  0.0589 -0.1855 -0.0546
35482ION     NA48896  18.174   7.329  13.661  0.2035 -0.2688  0.1599
35483ION     NA48897  10.290  13.253   6.603  0.1161  0.2994  0.0600
35484ION     NA48898   2.607   6.679  10.921  0.3615 -0.2749  0.1153
35485ION     NA48899  15.639   9.082   5.699  0.1944  0.2026 -0.0364
35486ION     NA48900  11.318   5.351  10.296  0.0917  0.0760 -0.1554
35487ION     NA48901   3.503   6.241  13.459 -0.1546  0.3325  0.1764
35488ION     NA48902  10.127  11.824   6.311 -0.2212  0.0206  0.0323
35489ION     NA48903  12.894   6.393   5.579  0.1929  0.1020 -0.1979
35490ION     NA48904   8.828  14.368   6.005 -0.0991 -0.1965  0.1878
35491ION     NA48905  10.918   4.125  13.755  0.1094 -0.1004 -0.0913
35492ION     NA48906  10.363  18.024   6.885  0.0339 -0.1482 -0.1520
35493ION     NA48907   4.952  13.959   6.263  0.0757 -0.1563 -0.1521
35494ION     NA48908   0.870   3.204  12.075 -0.0189  0.0462  0.0014
35495ION     NA48909   7.125   8.634  14.736  0.0949  0.3447 -0.1070
35496ION     NA48910   8.930   2.690  13.590  0.0294  0.1146  0.3497
35497ION     NA48911   8.140  14.898  12.001 -0.0429 -0.0415 -0.3496
35498ION     NA48912   1.689  11.165  10.461  0.2230  0.0559 -0.2196
35499ION     NA48913  14.211  12.405   1.398 -0.0708 -0.2783  0.3131
35500ION     NA48914  14.486   5.141   6.088  0.0889 -0.1950 -0.0356
35501ION     NA48915  16.523   7.114   9.660  0.1379  0.1066 -0.1709
35502ION     NA48916  15.656  13.303   2.370  0.0578  0.2162 -0.0463
35503ION     NA48917   8.823   4.710  15.541  0.0103  0.5646 -0.2273
35504ION     NA48918   3.653   8.768   1.629  0.0689  0.2545 -0.1105
35505ION     NA48919   7.681  17.374   6.254  0.0297  0.1944  0.1405
35506ION     NA48920   8.476   1.597   2.915  0.1557 -0.0212  0.0464
35507ION     NA48921   1.223   8.002   2.678  0.2017 -0.3681 -0.0427
35508ION     NA48922   2.127  17.451  10.562 -0.1758  0.1418 -0.0573
35509ION     NA48923  15.616  14.799  13.822 -0.1124  0.2667 -0.2780
35510ION     NA48924   0.368  17.923  11.678 -0.1127 -0.0098 -0.1288
35511ION     NA48925   1.359   2.629   5.866 -0.0330 -0.3013  0.1592
35512ION     NA48926  15.373   2.642  12.087 -0.1287 -0.0647 -0.0699
35513ION     NA48927  16.735  11.634  10.574 -0.0389  0.0052 -0.1232
35514ION     NA48928   0.858   4.377  13.526  0.1505  0.2317 -0.2185
35515ION     NA48929  15.393   7.959   5.247 -0.1045 -0.0506 -0.0911
35516ION     NA48930   4.936  14.021  15.624 -0.3752 -0.2149  0.1478
35517ION     NA48931   9.360  10.281  16.445 -0.1431 -0.2660  0.0245
35518ION     NA48932   6.333  17.233  10.511 -0.1221  0.1779 -0.2327
35519ION     NA48933   6.155   2.392  15.178  0.1084  0.4895  0.0903
35520ION     NA48934  11.848   8.065   0.533  0.1546  0.1398 -0.0056
35521ION     NA48935  12.606  16.525   0.384 -0.1157  0.1778  0.0371
35522ION     NA48936  11.926   2.074  10.763 -0.1639 -0.1641 -0.1074
35523ION     NA48937   0.592  10.079  12.186 -0.0583  0.3814  0.2922
35524ION     NA48938   6.087   1.110  16.508  0.0570 -0.0913  0.1649
35525ION     NA48939   3.593  16.431  15.422 -0.1279  0.0835 -0.1671
35526ION     NA48940  11.598   6.978   5.908  0.1583 -0.2671  0.3390
35527ION     NA48941   6.617   7.274   6.454 -0.0578  0.3099  0.1674
35528ION     NA48942   8.292   1.638  15.198 -0.1891 -0.3082 -0.1476
35529ION     NA48943   7.595   2.009  11.178 -0.0641 -0.2786 -0.1505
35530ION     NA48944   8.264   6.196   5.236  0.2123  0.2458  0.1251
35531ION     NA48945  16.656   9.589   2.865  0.0293 -0.3089 -0.3976
35532ION     NA48946  10.062  15.833  12.493  0.0924  0.3752  0.1357
35533ION     NA48947   4.310  12.946  15.720  0.3436  0.1478 -0.1980
35534ION     NA48948  10.259   9.314   4.076 -0.1453  0.0402  0.1562
35535ION     NA48949   1.539  13.695  15.576  0.2005 -0.2071 -0.2228
35536ION     NA48950   2.165   7.417  13.243 -0.2052 -0.1368  0.1205
35537ION     NA48951  18.168   7.997  11.879 -0.1829 -0.0739  0.2238
35538ION     NA48952   5.325   8.086  10.062 -0.1341 -0.1613  0.1793
35539ION     NA48953   1.600  18.049  14.652  0.1999  0.2478  0.1061
35540ION     NA48954  13.929  17.889  10.153  0.3492  0.3312  0.5253
35541ION     NA48955  10.704  10.222   0.265 -0.0587 -0.1165 -0.2202
35542ION     NA48956  14.914   2.221   1.676  0.1853 -0.2252 -0.1613
35543ION     NA48957  17.042  13.725   4.503  0.5537 -0.1920 -0.1865
35544ION     NA48958  15.289  10.503   0.889  0.3228  0.2008 -0.0201
35545ION     NA48959   4.318   1.649  10.914 -0.2972  0.1076 -0.0804
35546ION     NA48960  18.010   4.914  15.413 -0.0050  0.0191  0.0922
35547ION     NA48961  17.668  11.790   6.484  0.3321 -0.0819  0.0003
35548ION     NA48962   0.833   1.220   2.314  0.1235 -0.0529 -0.2898
35549ION     NA48963  11.279  14.581  15.376 -0.2135 -0.1200  0.0147
35550ION     NA48964  15.816   9.346  12.876 -0.2156  0.0190 -0.1736
35551ION     NA48965   2.757   4.121  14.373  0.1694  0.1888  0.2150
35552ION     NA48966  13.626  13.692  11.174  0.2379  0.1677  0.1018
35553ION     NA48967  12.830  15.863  10.776 -0.4429  0.0661 -0.1137
35554ION     NA48968  13.814  10.907  10.202  0.0268  0.2215 -0.2401
35555ION     NA48969  14.155  15.473  16.316 -0.0081  0.1130  0.0993
35556ION     NA48970  13.698   0.455  10.165  0.4320 -0.2270 -0.0590
35557ION     NA48971  11.304  17.534   3.497 -0.1242 -0.0826 -0.0696
35558ION     NA48972  18.064  13.793  15.802  0.1402 -0.4401 -0.2021
35559ION     NA48973  12.747  15.937   6.635  0.1986 -0.3389 -0.2495
35560ION     NA48974   7.655   1.225   5.297  0.1922 -0.0381  0.0193
35561ION     NA48975  15.348  12.473  10.460  0.0588 -0.0679  0.0386
35562ION     NA48976  12.394   8.437   9.737  0.0510 -0.0691  0.0979
35563ION     NA48977  11.809  12.266  16.367 -0.0842  0.0999  0.2878
35564ION     NA48978   5.818  15.135  13.401 -0.2556  0.0828  0.2290
35565ION     NA48979  14.660  14.733   6.552 -0.0761  0.2127  0.3820
35566ION     NA48980   4.390   1.936  14.812 -0.0666  0.1402  0.0443
35567ION     NA48981  11.923   7.915  10.606  0.0722 -0.0857  0.0639
35568ION     NA48982   5.650   8.638  14.862 -0.0235  0.1616 -0.0476
35569ION     NA48983  15.476   2.026  14.095  0.1048  0.1383  0.0466
35570ION     NA48984   0.555   4.024  14.858  0.1674 -0.0706  0.0201
35571ION     NA48985  13.513  17.090  14.993  0.1271 -0.0942  0.1691
35572ION     NA48986   8.173   4.584   0.631 -0.0233  0.0941  0.1729
35573ION     NA48987   8.645  18.158   6.650  0.2522  0.1218  0.1824
35574ION     NA48988  11.013   5.003   5.928  0.0918  0.2146  0.1711
35575ION     NA48989  17.608  11.549   5.722 -0.3431  0.1165  0.3319
35576ION     NA48990   6.594  16.278  15.802 -0.0749  0.3419 -0.2045
35577ION     NA48991  10.338  15.074   5.746 -0.3877  0.4497 -0.2216
35578ION     NA48992  15.848   3.925  13.624 -0.0087 -0.1175  0.0400
35579ION     NA48993   9.098  14.188  13.588  0.3418  0.1257 -0.3481
35580ION     NA48994   6.170   2.381  10.464 -0.1185 -0.0550 -0.0125
35581ION     NA48995  10.828   4.378  16.339  0.1310  0.2451  0.3503
35582ION     NA48996  12.150  10.282   9.926  0.2557 -0.2018 -0.2273
35583ION     NA48997   1.576  13.461  10.662  0.1487  0.2564 -0.2231
35584ION     NA48998   4.478   7.861   4.254  0.0698 -0.0484 -0.0596
35585ION     NA48999   0.114  14.559  14.161  0.2307  0.1532 -0.1046
35586ION     NA49000  16.892   4.189  13.905  0.1210  0.1483  0.1091
35587ION     NA49001   7.578   5.750   2.477  0.0392 -0.0942 -0.0336
35588ION     NA49002  11.968   5.993   6.046 -0.2284 -0.1229  0.0616
35589ION     NA49003   1.403   6.531  11.780  0.3215 -0.4379 -0.1302
35590ION     NA49004  16.777  16.533   0.251 -0.2595  0.1003  0.3119
35591ION     NA49005   9.659   8.332  10.271 -0.0955 -0.2555 -0.0096
35592ION     NA49006  16.234   2.348  10.300 -0.0037  0.3464  0.1724
35593ION     NA49007   2.353   0.484  10.354  0.1272  0.1237 -0.0207
35594ION     NA49008  12.774  13.924  15.965 -0.1175  0.0273 -0.0202
35595ION     NA49009   7.559  12.673   6.084 -0.1477 -0.0326  0.0391
35596ION     NA49010  13.209  15.342   6.714 -0.0191  0.1974 -0.0611
35597ION     NA49011   4.929  16.651  10.428 -0.1950  0.1725 -0.2032
35598ION     NA49012   4.924   9.257  10.185  0.0938 -0.4046 -0.0831
35599ION     NA49013  15.627   5.765   9.979 -0.1748 -0.2084  0.0227
35600ION     NA49014   5.234  16.149   6.527 -0.0663  0.0126  0.4973
35601ION     NA49015   9.285   2.302  13.403 -0.2868  0.1398 -0.3051
35602ION     NA49016  15.389  10.056   5.790  0.0095 -0.0397 -0.0378
35603ION     NA49017   5.532  14.388   0.145 -0.1710  0.1448 -0.3084
35604ION     NA49018  13.362  12.921   3.640 -0.2652  0.0002 -0.0714
35605ION     NA49019   1.482   1.118  10.239 -0.1662 -0.0480  0.2930
35606ION     NA49020   2.616   2.493   3.371 -0.2630  0.2465 -0.1092
35607ION     NA49021   4.318   5.378  10.081  0.3661 -0.0274  0.0305
35608ION     NA49022  17.390  12.462   0.878  0.0771 -0.3162 -0.2119
35609ION     NA49023  17.745   8.819   0.679  0.0663 -0.1874 -0.1897
35610ION     NA49024   9.064   1.945   5.165  0.0710 -0.4404  0.2622
35611ION     NA49025   3.359  12.154  13.971 -0.2039  0.3282 -0.1563
35612ION     NA49026   2.625  17.179  10.299 -0.1101 -0.0889 -0.0951
35613ION     NA49027   7.608  16.991   4.663 -0.0129  0.2051 -0.0997
35614ION     NA49028  17.306  14.488  15.789  0.3762 -0.3790  0.3252
35615ION     NA49029   3.898  15.202   6.190  0.0451 -0.3232  0.0904
35616ION     NA49030   9.388   5.462   5.440 -0.0842 -0.0501 -0.1947
35617ION     NA49031  12.663  13.474   6.387 -0.2125  0.0667  0.0299
35618ION     NA49032  17.450   7.659  10.463  0.0250 -0.0494 -0.1879
35619ION     NA49033   6.638  16.286  10.269  0.2026 -0.2891  0.2506
35620ION     NA49034  10.136  17.101  15.469  0.1050  0.0736  0.2620
35621ION     NA49035  14.687  15.408  12.658  0.1844  0.2697  0.0965
35622ION     NA49036  13.553  11.553   0.166  0.0241  0.2706  0.0099
35623ION     NA49037   2.089   6.383  10.232 -0.1793  0.3260  0.0915
35624ION     NA49038   2.958  12.914   2.476  0.1360  0.3641  0.2920
35625ION     NA49039  13.852   6.065   5.832  0.0974  0.0237 -0.5223
35626ION     NA49040   6.747   8.616  10.382 -0.0919  0.0206  0.0053
35627ION     NA49041   3.878   7.081   5.750 -0.1258 -0.0091 -0.1477
35628ION     NA49042  10.146   6.868   3.499 -0.0235 -0.1013  0.3067
35629ION     NA49043  14.986   3.947  10.079 -0.0003 -0.0546  0.1423
35630ION     NA49044  17.483  16.070   6.772 -0.1239  0.5762  0.2443
35631ION     NA49045   6.715  12.489  16.237 -0.0200  0.0025 -0.0971
35632ION     NA49046  10.054   7.297   6.219 -0.0507 -0.3050  0.2899
35633ION     NA49047   9.271   2.954  10.655  0.0600 -0.1720  0.0330
35634ION     NA49048   8.346  15.723   6.059  0.1429 -0.2353  0.1430
35635ION     NA49049   0.465   8.895   6.199 -0.1999 -0.2494  0.2337
35636ION     NA49050   7.155   0.106  10.594 -0.1566  0.1519  0.2210
35637ION     NA49051   7.870   8.832   5.039  0.1322  0.1071  0.0979
35638ION     NA49052   4.333  13.042   1.483 -0.2277  0.0620 -0.0175
35639ION     NA49053  17.335   1.183  11.772  0.1017 -0.1532  0.0269
35640ION     NA49054   1.274  11.795   2.125  0.1164 -0.2916  0.0992
35641ION     NA49055   6.084   1.899   6.094  0.0156  0.1711 -0.2919
35642ION     NA49056   1.188   1.089   6.126 -0.0089 -0.2448 -0.0327
35643ION     NA49057  13.961  16.416   2.941 -0.3463  0.2064 -0.2837
35644ION     NA49058   6.598  15.961   4.679  0.0323  0.1806 -0.0147
35645ION     NA49059   2.251  16.952   6.393  0.1327 -0.1706  0.0289
35646ION     NA49060   5.459   8.944  12.230  0.1891  0.0773  0.1587
35647ION     NA49061  10.252  16.873  10.397 -0.2577  0.1015  0.1203
35648ION     NA49062  12.894  16.205   4.121  0.1160 -0.1832 -0.0763
35649ION     NA49063   1.453   9.672   6.207 -0.2007 -0.1387 -0.0952
35650ION     NA49064   0.293   8.329   1.002  0.3640  0.2218 -0.1040
35651ION     NA49065   8.439   2.496  11.323 -0.1137  0.1618  0.0359
35652ION     NA49066   4.056   5.751   2.274  0.0552 -0.1622  0.0444
35653ION     NA49067   5.582  16.394   2.555  0.3489 -0.1339 -0.0528
35654ION     NA49068   6.016  13.075  15.038  0.2022  0.0243  0.1770
35655ION     NA49069   9.060  11.198  13.629 -0.2295 -0.3687  0.1650
35656ION     NA49070  11.610  15.570  10.611  0.0185  0.0707  0.0313
35657ION     NA49071  14.091   0.990   6.308  0.0478 -0.1202  0.0836
35658ION     NA49072  13.821   1.685  14.949 -0.2119 -0.2259 -0.0945
35659ION     NA49073   6.945  16.951  12.135  0.0030 -0.0075  0.0119
35660ION     NA49074  12.318  12.668   6.533  0.3275  0.1815 -0.0987
35661ION     NA49075   3.453   4.590   4.601  0.0888  0.0265  0.0468
35662ION     NA49076   6.071   1.480  10.385 -0.0029  0.2099  0.0447
35663ION     NA49077   0.962  10.983  14.106  0.4340 -0.0700  0.1735
35664ION     NA49078   6.870  16.833  10.619 -0.0441  0.0185  0.2038
35665ION     NA49079   5.658  18.147  11.517  0.0626  0.1584 -0.1409
35666ION     NA49080   1.654   1.729  11.890  0.2453 -0.2024  0.0856
35667ION     NA49081   9.189  14.978  11.940  0.0853 -0.0059 -0.1131
35668ION     NA49082   3.063   2.700   5.907 -0.1151  0.1328 -0.0133
35669ION     NA49083  16.826   4.013  10.053  0.1648 -0.2431  0.0844
35670ION     NA49084  15.374   0.500   9.946  0.1155 -0.1133  0.1370
35671ION     NA49085  13.104   5.832   6.230 -0.2203 -0.0338 -0.1175
35672ION     NA49086  11.347   6.866   2.981  0.2242  0.3931  0.0482
35673ION     NA49087  12.045   3.639   2.633 -0.0258  0.1531  0.0707
35674ION     NA49088   1.715   2.216  15.834 -0.2981  0.0327 -0.4099
35675ION     NA49089  17.632   4.438  11.193  0.1859  0.1479  0.1902
35676ION     NA49090  18.243  15.446   2.542 -0.0413  0.3047  0.2125
35677ION     NA49091   4.350   0.342   4.015 -0.2141  0.0997  0.1950
35678ION     NA49092  12.357  16.807  12.305  0.0830 -0.2524 -0.2027
35679ION     NA49093  15.623   1.170   0.642 -0.0847 -0.1056  0.0404
35680ION     NA49094  11.329  10.400  13.632  0.0668  0.0526  0.1193
35681ION     NA49095  14.947  10.895  10.020 -0.3589 -0.0069 -0.2848
35682ION     NA49096   2.172  14.518  14.874  0.0746 -0.2191  0.1132
35683ION     NA49097  14.737  15.524  11.757  0.2882  0.0981  0.4748
35684ION     NA49098   0.834   4.996  14.222  0.3554 -0.2737  0.0347
35685ION     NA49099   7.085   1.634  12.196  0.0033 -0.3013 -0.1421
35686ION     NA49100  10.502  10.521  12.224  0.2018 -0.0741  0.3549
35687ION     NA49101  12.371  13.895   1.166  0.1514  0.1125  0.1092
35688ION     NA49102   8.837   5.770   1.785  0.0234  0.0886 -0.1081
35689ION     NA49103   4.500   2.743   6.301 -0.1738 -0.1250 -0.4037
35690ION     NA49104   5.842   2.971   1.075  0.0914 -0.2025 -0.0627
35691ION     NA49105  14.385   3.472   6.089 -0.1007  0.2109 -0.2595
35692ION     NA49106   1.980   0.574  11.365 -0.0458  0.4669  0.4566
35693ION     NA49107   5.777   4.653  10.065  0.0117  0.1942 -0.1075
35694ION     NA49108   0.354   7.879  16.356 -0.0759  0.1682  0.0591
35695ION     NA49109  17.612  18.102   2.662  0.1748  0.2502 -0.4482
35696ION     NA49110   1.425  12.457  10.765 -0.0920 -0.0661  0.0155
35697ION     NA49111  14.433   5.834   0.891 -0.0884  0.1049  0.1299
35698ION     NA49112  10.425   9.007  13.130  0.2015 -0.0539 -0.2034
35699ION     NA49113   3.051   4.610   3.355  0.2369  0.1101  0.2744
35700ION     NA49114   3.692  10.716   6.147 -0.1653 -0.0529 -0.4233
35701ION     NA49115  12.516   3.785  10.581 -0.1760 -0.1568 -0.0890
35702ION     NA49116  14.737   8.658   5.468 -0.0782 -0.0685  0.1721
35703ION     NA49117   0.240   8.707  11.587 -0.0267 -0.2113  0.0259
35704ION     NA49118  13.043   2.616   0.129 -0.1146 -0.2392  0.1407
35705ION     NA49119  16.627   0.852  10.920 -0.1370  0.2503  0.0678
35706ION     NA49120  15.505   0.824  16.453 -0.1124  0.0128 -0.2347
35707ION     NA49121  15.797  11.610  11.964 -0.0072  0.3226  0.5307
35708ION     NA49122  13.609   0.860   4.110  0.0696  0.3914  0.0627
35709ION     NA49123   6.341  12.284   5.782  0.0604 -0.2534  0.2873
35710ION     NA49124   0.747  13.161  10.740  0.1802  0.0351  0.0324
35711ION     NA49125  15.634  16.697   5.875 -0.1303  0.1741  0.2179
35712ION     NA49126   3.533   6.476   0.321 -0.0531 -0.0484  0.2639
35713ION     NA49127  10.514   4.673   2.678  0.0236  0.5037  0.1514
35714ION     NA49128   1.526   9.523  13.793  0.4518 -0.0247  0.1776
35715ION     NA49129   4.555   6.435  11.796  0.0707  0.0521  0.0631
35716ION     NA49130   7.619  11.019  10.098  0.0806  0.1726 -0.2322
35717ION     NA49131   2.181   9.766   2.335 -0.2132  0.0854 -0.3095
35718ION     NA49132   0.130   1.728  10.785 -0.0457  0.0430  0.1677
35719ION     NA49133   4.100   4.855  11.587  0.0644 -0.0389 -0.1825
35720ION     NA49134   4.700  16.593   5.767 -0.0284 -0.0369  0.2734
35721ION     NA49135   5.939   6.729   5.845  0.0863  0.0100 -0.0690
35722ION     NA49136  10.851   9.180   3.331 -0.3113  0.2353  0.0994
35723ION     NA49137  11.910   5.936  15.954  0.0195  0.1909 -0.2520
35724ION     NA49138   4.500   7.993   5.717 -0.0725  0.1245 -0.1112
35725ION     NA49139   9.272   5.462   2.358 -0.0607 -0.0973  0.0312
35726ION     NA49140  11.881   6.343   0.259 -0.0423  0.0702 -0.0090
35727ION     NA49141   1.469   0.021   0.606  0.0072  0.0374  0.1124
35728ION     NA49142   4.150   8.855  10.250  0.0197 -0.0973  0.2791
35729ION     NA49143  15.120   7.939  11.242  0.0992  0.1953 -0.0836
35730ION     NA49144  13.227  14.687  16.336 -0.1509  0.2443  0.0388
35731ION     NA49145   7.240   5.315   4.878  0.3999  0.2862  0.0554
35732ION     NA49146   2.602  11.666   5.655  0.0803 -0.1693 -0.1727
35733ION     NA49147   7.643  15.647   1.712 -0.1587  0.0899 -0.1653
35734ION     NA49148   7.409   2.685   6.277 -0.0024 -0.0810  0.1195
35735ION     NA49149   4.903   7.996  11.956  0.1476  0.0689  0.0961
35736ION     NA49150   0.727   2.504  16.450  0.0487 -0.2076  0.0621
35737ION     NA49151   8.365   8.900   5.655  0.1817  0.0585  0.0359
35738ION     NA49152  13.861   7.917  15.889  0.4040 -0.0028  0.0925
35739ION     NA49153  11.846   3.260   4.527  0.0087  0.3028  0.0580
35740ION     NA49154  15.537   9.304   2.039  0.1063 -0.2027  0.0397
35741ION     NA49155  11.106   1.233   5.485  0.0704  0.3465  0.2705
35742ION     NA49156   3.363   2.164  12.392 -0.5290  0.3361 -0.2448
35743ION     NA49157   4.808   6.967   5.751 -0.0830 -0.1926 -0.0062
35744ION     NA49158   0.727  11.463  15.908  0.1297 -0.1449  0.0935
35745ION     NA49159   1.003   8.924   0.147 -0.1107 -0.0580 -0.1262
35746ION     NA49160   4.024  13.187   6.460 -0.0142 -0.0731  0.2027
35747ION     NA49161  12.539  18.141   3.135  0.1174  0.2708  0.0393
35748ION     NA49162  11.060  12.803   6.578 -0.0776  0.2185  0.1655
35749ION     NA49163   3.299  12.231  10.430 -0.1141  0.0782  0.2599
35750ION     NA49164   9.669   1.081   5.430  0.0511  0.0980  0.1001
35751ION     NA49165   2.832  13.559  10.484 -0.1262 -0.0011  0.0826
35752ION     NA49166   6.579   7.595  13.273 -0.0301 -0.0893 -0.1745
35753ION     NA49167   7.311   4.922   1.857 -0.1119  0.2884  0.0597
35754ION     NA49168  14.778  14.176  10.793 -0.3776  0.2250  0.1212
35755ION     NA49169   2.688  12.166   6.384 -0.2153 -0.2970  0.0658
35756ION     NA49170  18.045   4.821   9.547 -0.1593  0.2239  0.1524
35757ION     NA49171   9.195  17.513  13.066 -0.1421  0.1788  0.0902
35758ION     NA49172   3.753   2.159   2.639  0.2399 -0.2437  0.1621
35759ION     NA49173  15.523   4.137   0.648  0.2760 -0.0814 -0.2485
35760ION     NA49174   6.360  13.658   3.750  0.2407  0.0219  0.2086
35761ION     NA49175   2.445  10.516  14.919  0.2876 -0.1961  0.1183
35762ION     NA49176  10.081  10.996  10.391  0.0425  0.1424  0.1051
35763ION     NA49177   0.532  15.665  10.615  0.1863 -0.0845 -0.1250
35764ION     NA49178  10.881   3.074  15.799 -0.3179 -0.0707 -0.0391
35765ION     NA49179  14.212  11.423   5.872  0.2056 -0.0971 -0.1457
35766ION     NA49180   0.778   4.684  15.513 -0.0516  0.2159 -0.0292
35767ION     NA49181  10.297  16.746   5.612  0.0501 -0.2135  0.1960
35768ION     NA49182   4.553   9.539   5.776  0.3312  0.0110  0.1233
35769ION     NA49183   8.964   7.975  10.563 -0.0927  0.2705  0.5765
35770ION     NA49184  11.752  17.849  12.000  0.0468 -0.1665  0.0151
35771ION     NA49185   6.067   8.908  10.451 -0.0577 -0.1561  0.2531
35772ION     NA49186  12.558   5.124   0.665  0.1857 -0.0470  0.1453
35773ION     NA49187  11.015  12.831   1.793  0.2980  0.2637 -0.1682
35774ION     NA49188  16.645  17.976   6.017 -0.2424 -0.0822 -0.1360
35775ION     NA49189  15.058   2.353  12.886 -0.1319  0.0513  0.1741
35776ION     NA49190  11.439   8.290   5.748 -0.2732  0.1939  0.0686
35777ION     NA49191   8.570   2.452  12.736  0.2291  0.0882 -0.0395
35778ION     NA49192   1.661   1.452   4.085 -0.1874 -0.3127  0.4935
35779ION     NA49193   2.806  17.932   1.914 -0.0616 -0.0168  0.3707
35780ION     NA49194  11.415   0.701  11.188  0.0517 -0.0099  0.0628
35781ION     NA49195  18.275   6.444   9.497 -0.0657  0.0804  0.0709
35782ION     NA49196  15.767   2.147   3.792  0.1188  0.2843  0.0094
35783ION     NA49197   1.397  16.985  13.737 -0.2665 -0.2578  0.0632
35784ION     NA49198  11.303   2.421  10.316  0.0436  0.0701  0.1215
35785ION     NA49199   5.269   2.289   6.445  0.0195 -0.0761 -0.0824
35786ION     NA49200  17.193   9.910  10.162  0.0938 -0.1866 -0.2575
35787ION     NA49201   8.377  11.565  10.178 -0.0446  0.1833 -0.0937
35788ION     NA49202  15.641  12.495  12.067 -0.5313  0.1709 -0.2119
35789ION     NA49203  17.509  13.798   6.597 -0.3223  0.0114  0.1518
35790ION     NA49204  13.349   2.352  12.643  0.0625  0.2726 -0.0463
35791ION     NA49205   5.271   6.924  10.691 -0.0351 -0.1321  0.0513
35792ION     NA49206  12.418   4.981   5.511 -0.0583  0.0409 -0.0486
35793ION     NA49207  11.057  16.046  16.314  0.2537 -0.1218 -0.2150
35794ION     NA49208  11.082  13.461   5.381 -0.0608 -0.1819 -0.0637
35795ION     NA49209   4.946   4.899  10.501  0.0213  0.1792 -0.1088
35796ION     NA49210   2.766  14.986  11.061 -0.0591 -0.1412  0.1727
35797ION     NA49211   5.063  18.145   3.200 -0.1048 -0.1356 -0.0974
35798ION     NA49212   3.351   3.967   4.188  0.0711 -0.0877 -0.0745
35799ION     NA49213  15.843   7.612   4.431 -0.0148  0.1328 -0.0424
35800ION     NA49214   9.608  15.553   3.199  0.0338 -0.0477  0.1843
35801ION     NA49215   4.948  10.527  12.726 -0.1146  0.1632 -0.1527
35802ION     NA49216   1.746   2.636  10.063 -0.2956  0.0882 -0.2809
35803ION     NA49217   5.905  15.105   6.162  0.0292  0.3062  0.0463
35804ION     NA49218   8.646   2.375  14.816 -0.0383  0.0277  0.0601
35805ION     NA49219   3.813  13.499  10.633  0.0700 -0.1733  0.1052
35806ION     NA49220   3.562   8.333  11.649 -0.2586 -0.0214 -0.3908
35807ION     NA49221   6.926  14.458  16.227 -0.3554  0.0075  0.0290
35808ION     NA49222   7.492  17.296   1.144 -0.1714 -0.6550 -0.1603
35809ION     NA49223   4.448   5.803   4.121  0.1497  0.2173 -0.0089
35810ION     NA49224  13.287   0.992   6.456 -0.0110  0.0958  0.1819
35811ION     NA49225   7.540  15.618   6.531 -0.0580 -0.1698 -0.2165
35812ION     NA49226  13.410   2.343   3.648  0.0202 -0.1506 -0.1622
35813ION     NA49227  13.629  17.119  11.267 -0.1688 -0.2373 -0.1491
35814ION     NA49228   9.590  13.878  14.793 -0.0059  0.0436 -0.2064
35815ION     NA49229  13.356   8.653  11.043 -0.0833 -0.2342  0.2176
35816ION     NA49230   4.488   2.356  11.035 -0.1742  0.0234 -0.2405
35817ION     NA49231   7.791   0.909  14.686 -0.2813 -0.1391  0.2872
35818ION     NA49232   8.825   1.188   4.538  0.0502  0.3635  0.1819
35819ION     NA49233  15.295  17.152  10.308  0.2092 -0.0929  0.1858
35820ION     NA49234   5.945   8.590   5.751  0.0244  0.1646  0.2442
35821ION     NA49235   4.138  10.160  15.145 -0.0656 -0.1752  0.0996
35822ION     NA49236  10.293  14.189   0.688 -0.0117  0.0447  0.0088
35823ION     NA49237  12.236   2.028  13.164  0.1136  0.0051  0.1175
35824ION     NA49238  10.583  15.027   1.614  0.1748  0.0378  0.0802
35825ION     NA49239   3.903  17.059   6.395  0.1700 -0.3928  0.1603
35826ION     NA49240   6.349   7.030  11.377  0.0350  0.1958  0.0415
35827ION     NA49241   8.125   8.267  16.401 -0.0286  0.0010 -0.0024
35828ION     NA49242  15.320   6.194   1.824  0.0796 -0.0535  0.2827
35829ION     NA49243  16.488   0.474   6.114 -0.1245 -0.0004  0.0429
35830ION     NA49244   3.207   0.770   6.358  0.0694  0.0069 -0.1227
35831ION     NA49245  12.943  17.265   3.295 -0.3166  0.0455  0.0563
35832ION     NA49246   0.075   8.418   6.187 -0.0007 -0.2234  0.0211
35833ION     NA49247   7.674   1.264  10.417  0.1735  0.3275 -0.0336
35834ION     NA49248   3.043  12.873   3.788  0.2579  0.2815 -0.0082
35835ION     NA49249  13.198   6.843  14.913  0.1486 -0.0698  0.2247
35836ION     NA49250   4.879   1.910   4.160 -0.2569  0.1485  0.3448
35837ION     NA49251   0.507   0.169  10.717 -0.1038 -0.2309  0.1738
35838ION     NA49252  16.237  13.716   5.293 -0.0507  0.4154  0.0612
35839ION     NA49253   6.920   9.965   1.425 -0.3966  0.1464 -0.0669
35840ION     NA49254   9.263  17.285   3.595 -0.1578 -0.1853  0.0156
35841ION     NA49255   5.261  10.750   4.123  0.2818  0.2801 -0.1787
35842ION     NA49256   4.680  10.613   6.203 -0.1702  0.0044  0.0116
35843ION     NA49257  11.141   7.938   1.206 -0.1371 -0.1733 -0.1142
35844ION     NA49258  18.079   8.998   4.279  0.2571  0.2971 -0.0386
35845ION     NA49259   3.895  13.930  12.596  0.1299  0.1664 -0.2211
35846ION     NA49260  14.791   1.447  11.453 -0.1812 -0.0888 -0.0620
35847ION     NA49261   4.983   5.750   5.916  0.1204 -0.2212 -0.3285
35848ION     NA49262   5.176   6.626  12.471 -0.0810 -0.1828 -0.2210
35849ION     NA49263   9.910   0.697  12.722  0.2005  0.2561 -0.4037
35850ION     NA49264  14.095   4.171  11.061 -0.0200  0.0206 -0.2320
35851ION     NA49265   6.215   9.683  16.342  0.1597 -0.1175  0.4130
35852ION     NA49266   9.370   1.614  11.094 -0.0235  0.3030 -0.0586
35853ION     NA49267   2.413  15.793   4.256  0.0832  0.1484  0.0880
35854ION     NA49268   8.336  13.411  15.582  0.0176 -0.1588 -0.3430
35855ION     NA49269  17.574   3.284   5.542 -0.1784 -0.2537 -0.1351
35856ION     NA49270   7.887   2.292   6.403 -0.0300 -0.0065  0.3234
35857ION     NA49271   6.288   4.466   3.611 -0.0733 -0.2092  0.4691
35858ION     NA49272  17.459   6.736   2.419  0.0742  0.0083 -0.1806
35859ION     NA49273  16.581  12.523  11.027 -0.2541 -0.1033 -0.1231
35860ION     NA49274   6.103   7.391   6.063 -0.1265 -0.0146 -0.0861
35861ION     NA49275   1.813  10.308   1.182 -0.0558  0.1392  0.0375
35862ION     NA49276  14.165  14.962   1.965 -0.0759 -0.0394  0.1287
35863ION     NA49277  12.097   9.392  15.252  0.1272  0.0690 -0.1369
35864ION     NA49278  16.027   1.895  11.514  0.1472  0.1226  0.2975
35865ION     NA49279   9.989  17.675  10.486  0.2489  0.4395 -0.0036
35866ION     NA49280  15.472  16.727   2.008  0.0894 -0.2687  0.0305
35867ION     NA49281  11.481   0.114   5.207 -0.1624 -0.0894 -0.1110
35868ION     NA49282   0.118  15.906   6.801  0.0458  0.2718  0.2213
35869ION     NA49283   4.286   9.756  10.502 -0.0227  0.0158  0.2731
35870ION     NA49284  15.359   9.815   4.141  0.1979  0.0072  0.0561
35871ION     NA49285  17.005   3.935   3.387  0.1200 -0.0755 -0.0409
35872ION     NA49286  16.823   1.279  14.767 -0.1432  0.1653  0.1493
35873ION     NA49287  10.357   9.165   1.827 -0.0122 -0.0078  0.2456
35874ION     NA49288   4.912  12.172  14.694  0.0419  0.1516  0.4345
35875ION     NA49289  12.817   8.336   5.852  0.2257 -0.1569 -0.2031
35876ION     NA49290  17.548  13.163  16.260  0.0580 -0.0571 -0.0956
35877ION     NA49291   6.280   6.476   2.784  0.0100 -0.1254  0.0071
35878ION     NA49292   4.446  11.882  11.431  0.2262  0.0228 -0.0620
35879ION     NA49293  10.123  10.503  15.686 -0.0356 -0.1802 -0.2257
35880ION     NA49294  15.835   5.922   5.666  0.2727 -0.0140  0.4187
35881ION     NA49295   1.097   6.139   3.456 -0.0302 -0.2300  0.0101
35882ION     NA49296  16.490  10.921   6.189  0.1937  0.2998  0.2391
35883ION     NA49297   1.698   3.484   2.608 -0.1045  0.1755 -0.2345
35884ION     NA49298   6.425   6.002   6.408  0.0009  0.1928  0.2695
35885ION     NA49299   9.867   3.678  10.467 -0.4325 -0.1562 -0.1849
35886ION     NA49300   8.878  12.911  10.436  0.1253 -0.3144 -0.4162
35887ION     NA49301  10.477   8.847  10.124  0.1161  0.2230  0.0746
35888ION     NA49302   4.186   6.535  10.084  0.0442 -0.1047  0.1175
35889ION     NA49303  14.240  11.638  13.842  0.1675 -0.4753  0.0901
35890ION     NA49304  10.373   0.060  12.956  0.1723  0.0870  0.2004
35891ION     NA49305   4.669  14.889   6.411  0.0492  0.1746  0.0979
35892ION     NA49306  11.278   1.421  16.504  0.2860  0.4379  0.0992
35893ION     NA49307   8.925   0.674  13.841  0.1404  0.1616  0.0119
35894ION     NA49308   6.291   5.240   4.725 -0.3085  0.0912 -0.1390
35895ION     NA49309  12.303  14.824   6.851  0.1715  0.0621  0.0880
35896ION     NA49310  11.404   3.966   3.367 -0.1639 -0.3319 -0.2682
35897ION     NA49311  14.413   9.452  11.219  0.5218 -0.2597 -0.1403
35898ION     NA49312   5.373  17.341  10.401  0.1418  0.0989  0.0126
35899ION     NA49313   1.624  10.310  10.504  0.2670  0.1327 -0.0844
35900ION     NA49314  17.174  10.252   6.039 -0.1365  0.1927 -0.0423
35901ION     NA49315  13.303  15.016  11.038  0.2175 -0.1755  0.0510
35902ION     NA49316  16.329  15.381  15.382  0.2086  0.0820  0.1185
35903ION     NA49317  17.670   1.537  14.322  0.0001 -0.0581 -0.1422
35904ION     NA49318  13.367   3.446  10.049 -0.2183  0.0912  0.0292
35905ION     NA49319   7.050   9.420   6.240 -0.0556 -0.0177 -0.1704
35906ION     NA49320  15.724   0.369   4.429  0.0531  0.1924  0.0975
35907ION     NA49321  15.839  11.388   6.333  0.2041 -0.1566  0.0329
35908ION     NA49322  13.768   6.467  10.171 -0.0644  0.0701 -0.4596
35909ION     NA49323   3.797  13.842  13.544  0.1062  0.4767 -0.0422
35910ION     NA49324  10.821   3.652   5.951 -0.2238 -0.1621 -0.0898
35911ION     NA49325  16.352   5.464   9.487 -0.1657 -0.0008 -0.0094
35912ION     NA49326  13.633   8.176   9.777 -0.1494 -0.0276 -0.1461
35913ION     NA49327  10.132   6.824  14.036  0.0853 -0.0698  0.1402
35914ION     NA49328   5.835   4.509   4.405 -0.4454  0.0686  0.2371
35915ION     NA49329  13.972   1.269  10.465  0.2139  0.0908 -0.0244
35916ION     NA49330  15.241   0.186  11.598  0.1298  0.0382  0.4588
35917ION     NA49331   0.921  15.077   2.734  0.0997 -0.0448 -0.1549
35918ION     NA49332   0.191   8.566   9.936 -0.3061 -0.1314 -0.0810
35919ION     NA49333   2.952   8.259  12.654  0.2268 -0.3405 -0.2630
35920ION     NA49334  11.121  11.847   6.497 -0.1571 -0.0573 -0.2013
35921ION     NA49335  18.109   0.946   5.760  0.1868 -0.3544 -0.0473
35922ION     NA49336   0.161  16.243   2.115  0.0140 -0.0820  0.2644
35923ION     NA49337   6.218   6.912   5.419  0.2874 -0.3019 -0.1345
35924ION     NA49338  11.115   0.151   4.204 -0.0737  0.2254  0.3265
35925ION     NA49339  12.519  17.333  10.571  0.2489 -0.3439 -0.1824
35926ION     NA49340  16.586  13.052   1.711  0.0043  0.1121  0.1790
35927ION     NA49341  10.347   6.275  12.375 -0.0076  0.0066  0.1040
35928ION     NA49342   0.394  18.267   6.447  0.0411  0.1327  0.1563
35929ION     NA49343   0.052  14.515   6.515 -0.3180  0.3046 -0.0368
35930ION     NA49344  12.302   5.336  10.426 -0.0213  0.0057 -0.0271
35931ION     NA49345   6.542   1.206   6.725 -0.1526  0.0043 -0.2208
35932ION     NA49346  11.677  10.814  16.120 -0.1224 -0.0469 -0.2375
35933ION     NA49347   1.283   6.474   5.991  0.1395  0.2567 -0.1525
35934ION     NA49348   4.328   0.515   3.181  0.0289  0.0874  0.2429
35935ION     NA49349   1.560   9.484  10.123  0.0033  0.0652  0.0787
35936ION     NA49350   1.259  11.730   0.629  0.1517  0.0549 -0.0664
35937ION     NA49351   4.958   0.212   4.674 -0.0346 -0.1926 -0.3391
35938ION     NA49352  18.088   3.988   4.296 -0.2103 -0.2241 -0.2280
35939ION     NA49353   0.015  17.900  10.637 -0.4400 -0.0646  0.0443
35940ION     NA49354   6.228  11.299   6.102 -0.2335  0.3712 -0.0018
35941ION     NA49355  18.103  12.520   6.628  0.2580 -0.1063  0.2488
35942ION     NA49356   6.364  17.697   6.755  0.1531 -0.0927 -0.0758
35943ION     NA49357   6.200  11.902   3.493 -0.1713  0.0509 -0.3463
35944ION     NA49358  16.905  11.457   5.360  0.2260 -0.0620  0.2390
35945ION     NA49359   4.661  16.810   6.604  0.0650 -0.2185  0.1173
35946ION     NA49360  11.865  17.918  15.201  0.0134 -0.3428 -0.1157
35947ION     NA49361   3.975   7.752   2.765 -0.1709  0.1992 -0.2167
35948ION     NA49362   1.063   1.773   5.627 -0.1097 -0.2301  0.0367
35949ION     NA49363   4.677  13.143   0.210 -0.2164  0.2995  0.1013
35950ION     NA49364  15.559  14.581  11.023  0.0840 -0.0455  0.0107
35951ION     NA49365   6.343  10.770  15.554  0.2861  0.0583  0.1617
35952ION     NA49366  14.404   7.093   9.986  0.0811 -0.2927  0.4254
35953ION     NA49367  17.807  17.278  10.707  0.0586  0.3178  0.3044
35954ION     NA49368   2.535   9.983  10.344  0.1881  0.0635 -0.1573
35955ION     NA49369   2.539  14.361   5.437  0.0202 -0.0253  0.0385
35956ION     NA49370   2.948  17.556  10.217 -0.1835 -0.0443  0.1496
35957ION     NA49371   7.683   0.348   0.744  0.0787  0.0458  0.4226
35958ION     NA49372  10.637   5.065  15.829 -0.2966 -0.1425  0.4048
35959ION     NA49373   1.316  17.755   4.866 -0.3487 -0.1375  0.0426
35960ION     NA49374   5.287  17.290   4.632  0.0201  0.4297  0.3557
35961ION     NA49375   1.957   4.260   5.888 -0.2749 -0.2042 -0.3227
35962ION     NA49376  11.782   3.780   5.652 -0.0789 -0.1089  0.2236
35963ION     NA49377   8.261   4.837  13.802  0.0877  0.0714  0.3178
35964ION     NA49378   6.558  18.114  12.535 -0.0185  0.1581  0.0183
35965ION     NA49379  11.379   9.778  12.015  0.2116  0.0703  0.0960
35966ION     NA49380  16.571   6.635  13.580 -0.1746  0.1448  0.0122
35967ION     NA49381   4.371   2.597   3.545 -0.2124 -0.4370 -0.1537
35968ION     NA49382   6.569  13.267   6.359  0.1113 -0.1585  0.0219
35969ION     NA49383  17.087   5.577  16.450  0.1804 -0.1295 -0.1455
35970ION     NA49384   2.102  17.437   6.558  0.2085 -0.0296  0.3396
35971ION     CL49385  13.053   2.681  15.093 -0.0231 -0.2448 -0.0341
35972ION     CL49386  14.610  11.580  15.657 -0.0269  0.1567  0.0064
35973ION     CL49387   0.744  15.553  14.773  0.1506 -0.1730  0.0673
35974ION     CL49388  13.096  11.017  11.211  0.0568  0.2018 -0.2798
35975ION     CL49389  10.416   9.350   3.612  0.0856  0.0410  0.0346
35976ION     CL49390   3.937  12.170   5.256  0.0423  0.2054 -0.1362
35977ION     CL49391   7.649   4.206  15.137  0.1323  0.2686  0.3021
35978ION     CL49392  11.143   4.258   3.048 -0.1788  0.1469 -0.0115
35979ION     CL49393   9.596  14.965  12.288  0.0387  0.2227 -0.1602
35980ION     CL49394  16.319   8.162   5.408 -0.1127 -0.0514  0.0696
35981ION     CL49395   3.410   4.492   4.140  0.2901  0.0598  0.3853
35982ION     CL49396   5.455   0.322  15.348 -0.0819 -0.0642 -0.0940
35983ION     CL49397  12.196   2.027  11.822  0.1443  0.3180  0.0502
35984ION     CL49398  17.593  17.952   2.177  0.0291 -0.1056  0.1762
35985ION     CL49399   0.269  13.226   6.205 -0.1542  0.0775 -0.0458
35986ION     CL49400  17.978  14.274  16.026 -0.0446 -0.1066  0.0438
35987ION     CL49401  15.102   1.700  11.105  0.2172 -0.1226  0.1690
35988ION     CL49402  14.955   0.603  10.362 -0.3868  0.0555  0.3251
35989ION     CL49403  16.163  12.044  12.053 -0.0771  0.3341 -0.2120
35990ION     CL49404   6.634  13.473   5.850  0.3436  0.0566 -0.1422
35991ION     CL49405   1.772   1.014  11.238 -0.3980  0.2126 -0.0250
35992ION     CL49406   3.101   4.114  13.985  0.2371 -0.1247 -0.1539
35993ION     CL49407  16.633  17.158  15.360  0.1250 -0.0501  0.0133
35994ION     CL49408   4.344   5.303   4.069  0.0627  0.2071  0.0244
35995ION     CL49409   7.393   7.580  15.746 -0.0055  0.0597  0.3299
35996ION     CL49410   1.029   4.474  15.878  0.0901 -0.1386  0.2184
35997ION     CL49411  12.236   0.237   3.054  0.1213 -0.1329 -0.0100
35998ION     CL49412   4.289   1.210   3.647 -0.0482  0.1503  0.1689
35999ION     CL49413   9.744   4.307  16.380  0.3181 -0.0563 -0.0520
36000ION     CL49414   1.246   3.254  14.361  0.2283  0.0672  0.0308
36001ION     CL49415   4.108   3.504   5.238 -0.1249  0.0555  0.2834
36002ION     CL49416   7.802  15.555  11.058 -0.0964 -0.4020 -0.0324
36003ION     CL49417  17.008   9.149   3.612 -0.0080 -0.0418 -0.0131
36004ION     CL49418   7.666   5.009   4.690  0.0729  0.0313  0.2222
36005ION     CL49419  15.283  16.026  16.537  0.0139 -0.3090 -0.0930
36006ION     CL49420   9.181   2.655   5.674  0.3746 -0.0121 -0.2489
36007ION     CL49421  12.705  12.694   2.307 -0.3214 -0.1345 -0.0826
36008ION     CL49422  12.980  13.777   6.123  0.0017  0.0662  0.0714
36009ION     CL49423  13.946   1.024  10.981 -0.1520 -0.0665 -0.0512
36010ION     CL49424  16.619  10.767   4.522  0.0429 -0.2557  0.1366
36011ION     CL49425   0.915  10.115  11.722 -0.1819  0.1171  0.1284
36012ION     CL49426  14.832   4.301  11.394 -0.3479 -0.0559 -0.0882
36013ION     CL49427   3.153   7.352   0.262  0.2545  0.2967 -0.1394
36014ION     CL49428  15.412  11.283  11.171 -0.1712  0.0824 -0.2711
36015ION     CL49429   6.770   5.337   5.002 -0.0214  0.0715 -0.2250
36016ION     CL49430   0.191  16.740  11.579  0.0037  0.1532  0.4392
36017ION     CL49431  12.022  10.818   0.444  0.1349 -0.3065 -0.6134
36018ION     CL49432   4.029   9.964  15.604  0.0211  0.1373  0.0406
36019ION     CL49433  12.219   7.697  11.273  0.1129  0.2013 -0.0310
36020ION     CL49434  13.884   1.503  14.467  0.0903 -0.2426 -0.0586
36021ION     CL49435  13.462  18.156  13.839  0.0622  0.2909  0.0487
36022ION     CL49436  12.360   3.035   0.010  0.1306  0.3214 -0.2477
36023ION     CL49437   1.936  18.260   3.548 -0.5662 -0.0486  0.0948
36024ION     CL49438   8.605   8.018  11.443 -0.0898  0.2599  0.1801
36025ION     CL49439  15.835   2.443  12.149 -0.1225 -0.0604  0.1401
36026ION     CL49440   4.830  12.697   0.065  0.1109  0.1375  0.2505
36027ION     CL49441  13.976  11.267   0.180 -0.0528  0.0350  0.1937
36028ION     CL49442   9.657  15.921  14.057 -0.0662  0.0699 -0.1703
36029ION     CL49443   6.616  14.941  16.390 -0.2644  0.2094  0.0322
36030ION     CL49444   5.735  13.111  14.204 -0.2535  0.1524 -0.1373
36031ION     CL49445  17.627  11.563   3.792  0.0343 -0.2451  0.1225
36032ION     CL49446  15.749   4.669  15.464 -0.0057  0.1188 -0.3299
36033ION     CL49447  14.333  12.542   5.008  0.4687  0.1287 -0.0763
36034ION     CL49448  17.252  13.047   0.068  0.0836  0.1890 -0.0374
36035ION     CL49449   5.608  15.573  13.284 -0.0287  0.1526  0.0090
36036ION     CL49450  15.381   3.840  13.810  0.2350 -0.0853  0.2314
36037ION     CL49451   3.952  11.896  11.374  0.1153  0.2204 -0.0769
36038ION     CL49452   9.982  10.934  15.458  0.0281 -0.1768 -0.2109
36039ION     CL49453  17.322   2.347   3.825  0.1187 -0.0116 -0.0753
36040ION     CL49454   9.888   6.189  12.525  0.1134  0.0936  0.0267
36041ION     CL49455   0.351   7.855   0.832 -0.1105  0.0568 -0.3471
36042ION     CL49456  12.250   4.519   5.443  0.3934 -0.1256 -0.1161
36043ION     CL49457  17.661   8.257  11.019 -0.1095 -0.0163  0.0276
36044ION     CL49458   0.756   2.079  11.984 -0.3179  0.2412 -0.2709
36045ION     CL49459  10.538   4.697  16.135  0.1687  0.4399 -0.1890
36046ION     CL49460  16.683   1.000  15.245  0.2927 -0.2422  0.2453
36047ION     CL49461  12.451  14.252   1.652  0.2472 -0.3377  0.0049
36048ION     CL49462  17.921  14.610  14.469 -0.2222  0.2156 -0.1921
36049ION     CL49463   2.689  13.633   5.380 -0.1230  0.0947 -0.0956
36050ION     CL49464   5.658   6.126   1.244  0.2815 -0.1086 -0.0282
36051ION     CL49465   2.992  10.052   3.423 -0.5686 -0.1514 -0.1114
36052ION     CL49466  13.562   2.376   2.211  0.0648  0.0847  0.0873
36053ION     CL49467  18.068  16.617   0.059  0.0456  0.1358 -0.1109
36054ION     CL49468   8.536   5.664   1.408  0.1644 -0.1459 -0.1044
36055ION     CL49469   5.799   0.750  16.294 -0.2515  0.0032  0.3096
36056ION     CL49470   6.976   0.081  11.998  0.3244 -0.0172  0.0769
36057ION     CL49471   9.132   7.730  14.269  0.1132 -0.1039  0.3313
36058ION     CL49472   7.600   8.660   0.342  0.1346  0.1359 -0.0431
36059ION     CL49473   8.083   6.157   4.739 -0.1817 -0.1306 -0.2166
36060ION     CL49474  11.270  10.007  13.948  0.0871  0.0481  0.0076
36061ION     CL49475   4.699   0.647   4.377 -0.1302  0.0654 -0.0773
36062ION     CL49476  15.944   7.182   1.134  0.1793 -0.0086 -0.0217
36063ION     CL49477   1.680   2.688   4.475 -0.4397 -0.2471 -0.2503
36064ION     CL49478   2.007   1.355  11.898 -0.2042  0.1555  0.1715
36065ION     CL49479   2.338  10.475   3.761  0.1063  0.3038 -0.3999
36066ION     CL49480   7.983  11.577  15.944  0.2217 -0.1491 -0.2786
36067ION     CL49481  16.981  11.641   4.874 -0.3487  0.0591 -0.0758
36068ION     CL49482  14.330   3.641  15.161  0.0518  0.1038  0.1072
36069ION     CL49483  16.630   5.540   4.294 -0.2325 -0.0715  0.0245
36070ION     CL49484  14.111   7.964   1.120 -0.0475  0.0192  0.1877
36071ION     CL49485   2.326   4.114  14.572 -0.1044  0.0805 -0.2090
36072ION     CL49486   4.542  13.135   0.706 -0.2467  0.3825 -0.1028
36073ION     CL49487  17.150  11.182  15.184  0.0124  0.1476  0.0781
36074ION     CL49488   0.273  18.024  15.820 -0.2756  0.1277 -0.1233
36075ION     CL49489   4.053  10.793   5.796  0.2325 -0.2552 -0.2207
36076ION     CL49490  13.295   8.523  10.531  0.0033  0.0939 -0.3031
36077ION     CL49491   0.113  12.274  14.027 -0.0574 -0.0717 -0.0679
36078ION     CL49492   0.162   3.023   3.395 -0.3246  0.1213  0.1460
36079ION     CL49493   6.132   1.675   4.374  0.1030 -0.2012 -0.2453
36080ION     CL49494  10.050  17.669  11.009  0.1340 -0.0059 -0.1510
36081ION     CL49495   5.611  16.004  15.616 -0.0628 -0.1963  0.1651
36082ION     CL49496   0.190   5.440  11.238  0.3341  0.1187  0.1062
36083ION     CL49497  15.000  15.632  12.217 -0.0409 -0.1297  0.3010
36084ION     CL49498   1.241   4.272  13.278  0.0992  0.1616  0.2135
36085ION     CL49499  11.477   8.152  12.457  0.1873 -0.0584 -0.0197
36086ION     CL49500  11.371   9.298  13.344 -0.1062 -0.1146  0.0880
36087ION     CL49501  11.119   3.382  16.196  0.0967  0.0608  0.0688
36088ION     CL49502   6.756   2.880  14.615 -0.1238  0.1052 -0.0382
36089ION     CL49503  10.412  14.872   0.334  0.4957  0.0584 -0.0148
36090ION     CL49504   7.133   1.504  13.620 -0.1200 -0.0964  0.1074
36091ION     CL49505   3.918  12.067  12.768  0.1358 -0.0985 -0.1397
36092ION     CL49506   4.587  18.229   3.114  0.0424  0.1526  0.3589
36093ION     CL49507  16.223   2.334   4.032  0.0034 -0.0743 -0.2315
36094ION     CL49508   3.264  11.382   4.235  0.1565 -0.0103  0.2055
36095ION     CL49509  12.106   3.531   5.348  0.0531 -0.2033 -0.0832
36096ION     CL49510   8.915   9.618  12.549  0.1212 -0.2960 -0.0511
36097ION     CL49511  15.469  17.455  14.165  0.0439  0.0565 -0.2978
36098ION     CL49512   1.971  11.774   3.742 -0.0022 -0.0139  0.0641
36099ION     CL49513  13.940  17.587  11.102 -0.3271 -0.0737 -0.0495
36100ION     CL49514  14.152  16.286   3.353 -0.0358  0.1442 -0.0580
36101ION     CL49515  11.255   5.796  12.867  0.1382 -0.0793 -0.2054
36102ION     CL49516  13.743   3.411   6.038 -0.1070 -0.1709  0.3352
36103ION     CL49517  15.205   4.031  14.798  0.0294 -0.1376 -0.1714
36104ION     CL49518  15.095  15.903   3.208 -0.0448 -0.1433  0.3616
36105ION     CL49519  13.151  14.144  16.159 -0.0164  0.0265 -0.0408
36106ION     CL49520   0.593  17.014   5.736  0.0704 -0.0155  0.2438
36107ION     CL49521  15.758   5.968  12.418  0.3605 -0.5076  0.3497
36108ION     CL49522   1.745   8.728   4.410  0.0889 -0.0553  0.1156
36109ION     CL49523  17.871   7.625  13.181 -0.0924 -0.0421 -0.1037
36110ION     CL49524  14.101  11.467  14.333 -0.1116 -0.1577 -0.0997
36111ION     CL49525  13.986  10.207  13.343  0.3795 -0.0913 -0.0010
36112ION     CL49526   5.733   6.828   5.334 -0.1783  0.1779  0.0790
36113ION     CL49527   9.028  10.225   3.180 -0.2244  0.0764 -0.1790
36114ION     CL49528   8.249   2.135  14.854 -0.1271  0.1013 -0.0020
36115ION     CL49529   5.163  15.304   5.691  0.0957  0.4168  0.0694
36116ION     CL49530   2.657   4.899   3.231 -0.0971 -0.2097  0.1551
36117ION     CL49531   6.344   1.411   0.271  0.1208  0.0324 -0.0705
36118ION     CL49532  10.553  10.910  12.548  0.0760 -0.0047 -0.1580
36119ION     CL49533  10.413   6.695   3.124  0.4311  0.0789 -0.1421
36120ION     CL49534   2.187  12.368   4.533  0.0672 -0.2887  0.0381
36121ION     CL49535   6.187  17.550   2.795  0.0509 -0.0470 -0.0185
36122ION     CL49536   8.819  13.516   4.089  0.1316  0.2240  0.0052
36123ION     CL49537  11.886   1.846   0.379  0.2097  0.1462 -0.0997
36124ION     CL49538  13.376  17.136   1.773 -0.2693  0.2674 -0.2677
36125ION     CL49539  13.663  13.000  16.360 -0.1295  0.5953 -0.0105
36126ION     CL49540  17.596   1.726  14.854  0.0600  0.2069 -0.2431
36127ION     CL49541  10.299  17.557  14.444 -0.3055 -0.0344  0.1509
36128ION     CL49542   8.108  10.532  15.843 -0.2305  0.0527 -0.0126
36129ION     CL49543  15.837  16.403  14.244  0.1864  0.1547 -0.2130
36130ION     CL49544  15.159  12.951   2.384  0.0735  0.2562 -0.1399
36131ION     CL49545   6.204   6.758   0.722  0.0115 -0.1509 -0.0724
36132ION     CL49546  15.515   8.869   4.288 -0.0562 -0.0166  0.0378
36133ION     CL49547  10.905   7.250  11.057  0.1135 -0.5058  0.0333
36134ION     CL49548   0.824   7.629   2.611  0.0015 -0.1575 -0.0830
36135ION     CL49549  16.445   6.577  12.762 -0.1421 -0.0015 -0.0484
36136ION     CL49550   9.450   1.139  11.156  0.0455  0.1077 -0.0911
36137ION     CL49551   1.309   7.212   9.697 -0.1350 -0.1047 -0.0848
36138ION     CL49552  17.028   1.221   4.602  0.0877  0.1435  0.2346
36139ION     CL49553  10.432   2.351  12.597 -0.0482 -0.2347 -0.1525
36140ION     CL49554   1.992  11.479   4.898  0.1368  0.1554  0.0606
36141ION     CL49555   3.643   1.336   0.123  0.0634  0.0905  0.2567
36142ION     CL49556  10.486  16.067  16.286  0.0391 -0.1363  0.0319
36143ION     CL49557   2.788   5.895  14.074  0.1744 -0.2460  0.0053
36144ION     CL49558   4.139  11.105   4.973 -0.0547  0.0635  0.0782
36145ION     CL49559   7.337   0.982  14.749  0.0600 -0.2119  0.3138
36146ION     CL49560   1.253   7.822   1.158  0.0505  0.0090 -0.4320
36147ION     CL49561  17.207   2.494   0.516 -0.3712  0.0724 -0.0722
36148ION     CL49562  13.061   8.844  15.147  0.0031  0.1831 -0.0030
36149ION     CL49563  18.219   9.796   4.479  0.0295  0.1363  0.3850
36150ION     CL49564   5.896   4.179   4.040 -0.0329  0.0824 -0.3487
36151ION     CL49565  16.590  15.062  15.602 -0.1559  0.0867  0.0928
36152ION     CL49566  13.655  13.064   4.722  0.0604 -0.2082 -0.0694
36153ION     CL49567   1.555   7.035  14.828 -0.3363 -0.2723 -0.1333
36154ION     CL49568   1.537   8.784   0.158  0.0236  0.2698 -0.0699
36155ION     CL49569   3.032   8.992  11.089 -0.3177  0.0236  0.1821
36156ION     CL49570   8.816   2.697  12.360 -0.2773  0.1419 -0.0027
36157ION     CL49571  14.745   7.956  11.603 -0.1618  0.1028 -0.0214
36158ION     CL49572   1.373   1.484   5.877 -0.1431  0.0030  0.0658
36159ION     CL49573  11.266  14.797  15.842 -0.2194 -0.2853  0.1604
36160ION     CL49574  13.657   9.517  13.854 -0.2305 -0.1268  0.0430
36161ION     CL49575  11.662  12.776  11.826 -0.0960 -0.0381  0.1814
36162ION     CL49576   2.595  14.168  14.890 -0.2147 -0.2559  0.0703
36163ION     CL49577  11.426   6.494   1.706 -0.2257  0.0121  0.1153
36164ION     CL49578   4.945   3.108   1.738  0.1138 -0.0106  0.1975
36165ION     CL49579   2.112   8.823  13.523 -0.1033 -0.0266  0.0955
36166ION     CL49580  12.102   0.717  13.101 -0.0671 -0.2577 -0.0217
36167ION     CL49581   4.466  17.018   2.912 -0.2732  0.1081  0.1748
36168ION     CL49582   8.355  13.022  15.899 -0.1332 -0.0182  0.2557
36169ION     CL49583  13.357   0.628   4.517  0.4255  0.1151 -0.0121
36170ION     CL49584  15.924   0.287   3.984  0.2178  0.0310  0.2717
36171ION     CL49585   7.175  17.409   0.734 -0.1737 -0.0867  0.1529
36172ION     CL49586   3.547  14.973   5.963 -0.2725  0.0921  0.1580
36173ION     CL49587  11.001  18.181   5.175 -0.1640  0.2098  0.0650
36174ION     CL49588   9.010   1.567   4.828 -0.0107 -0.2147 -0.0053
36175ION     CL49589   3.905   5.871  13.328 -0.2724  0.1545 -0.0489
36176ION     CL49590   9.594   6.346   5.580 -0.0289 -0.0826 -0.1086
36177ION     CL49591   0.639  11.335  14.386  0.0872  0.3235  0.0621
36178ION     CL49592   2.546   9.930   2.683 -0.1071 -0.0826 -0.2898
  18.28447  18.28447  16.56149
