INSANE! Membrane UpperLeaflet>PSPI:POPI:POPS:YOPS:POPE:YOPE:POPC:YOPC:ERGO=6.0:14.0:21.0:9.0:9.0:21.0:12.0:48.0:60.0 LowerLeaflet>PSPI:POPI:POPS:YOPS:POPE:YOPE:POPC:YOPC:ERGO=6.0:14.0:21.0:9.0:9.0:21.0:12.0:48.0:60.0
49592
    1PSPI    C1    1  15.536  10.232  10.768 -0.1852  0.0152  0.0365
    1PSPI    C2    2  15.660  10.381  11.118 -0.0268  0.0259 -0.0231
    1PSPI    C3    3  15.316  10.177  11.097  0.0262 -0.0844  0.1631
    1PSPI   PO4    4  15.524  10.485  10.632 -0.1275  0.3765  0.0215
    1PSPI   GL1    5  15.646  10.443  10.285 -0.1236 -0.1643  0.3342
    1PSPI   GL2    6  15.951  10.551  10.258  0.2728 -0.0817 -0.3126
    1PSPI   C1A    7  15.589  10.470   9.821  0.1211 -0.0329 -0.1441
    1PSPI   C2A    8  15.526  10.463   9.412 -0.1567 -0.2775  0.0944
    1PSPI   C3A    9  15.521  10.295   8.934 -0.0943  0.0307  0.1434
    1PSPI   C4A   10  15.666  10.308   8.589 -0.3859 -0.0370  0.1871
    1PSPI   C1B   11  16.132  10.492   9.859 -0.1443 -0.1592  0.0518
    1PSPI   C2B   12  16.075  10.489   9.455  0.0794  0.1142  0.1125
    1PSPI   C3B   13  16.043  10.185   9.136  0.1382  0.0557  0.2010
    1PSPI   C4B   14  15.925   9.930   8.883  0.2643 -0.0336  0.1454
    2PSPI    C1   15  15.315  11.533  11.282 -0.1162  0.0095  0.1683
    2PSPI    C2   16  15.446  11.899  11.376 -0.0842  0.0380  0.0171
    2PSPI    C3   17  15.602  11.578  11.557 -0.1050  0.0980  0.1426
    2PSPI   PO4   18  15.407  11.513  11.018  0.1482  0.0103  0.1648
    2PSPI   GL1   19  15.209  11.609  10.735  0.1646 -0.0904  0.1225
    2PSPI   GL2   20  14.965  11.343  10.564  0.1811  0.1080 -0.2722
    2PSPI   C1A   21  14.941  11.827  10.417  0.1780 -0.0421  0.0063
    2PSPI   C2A   22  14.675  11.913  10.071  0.0339  0.0585  0.0285
    2PSPI   C3A   23  14.513  12.260   9.876 -0.1171  0.1572  0.0276
    2PSPI   C4A   24  14.685  12.516   9.788  0.0340 -0.1702  0.0480
    2PSPI   C1B   25  14.893  11.353  10.190 -0.1816 -0.1156 -0.0332
    2PSPI   C2B   26  14.784  11.427   9.769  0.2384  0.2143 -0.1162
    2PSPI   C3B   27  14.636  11.431   9.284  0.0190  0.2965 -0.1053
    2PSPI   C4B   28  14.575  11.404   8.745  0.2432 -0.0037 -0.2069
    3PSPI    C1   29  10.960   6.467  10.718 -0.0059 -0.0991 -0.1541
    3PSPI    C2   30  10.722   6.771  10.613 -0.0921 -0.2014 -0.2581
    3PSPI    C3   31  10.565   6.410  10.686  0.0285 -0.2637 -0.3038
    3PSPI   PO4   32  11.244   6.521  10.535  0.4665  0.0470  0.1232
    3PSPI   GL1   33  11.372   6.513  10.158  0.0009 -0.0463 -0.1352
    3PSPI   GL2   34  11.756   6.562  10.026  0.0109 -0.1614 -0.0729
    3PSPI   C1A   35  11.376   6.698   9.723 -0.1070 -0.0685 -0.2924
    3PSPI   C2A   36  11.346   6.682   9.298  0.0689 -0.4693 -0.2552
    3PSPI   C3A   37  11.175   6.776   8.933 -0.0475 -0.0785  0.1551
    3PSPI   C4A   38  10.821   6.898   8.861 -0.0942 -0.1340 -0.2030
    3PSPI   C1B   39  11.795   6.507   9.608  0.0505  0.0310 -0.1952
    3PSPI   C2B   40  11.803   6.567   9.186 -0.1270 -0.1170  0.1514
    3PSPI   C3B   41  11.608   6.568   8.737  0.3637  0.1925  0.0951
    3PSPI   C4B   42  11.239   6.464   8.530 -0.0904 -0.1087 -0.1857
    4PSPI    C1   43   1.467  15.556  10.251  0.1152  0.1531  0.1272
    4PSPI    C2   44   1.401  15.940  10.342 -0.2180  0.1819 -0.2100
    4PSPI    C3   45   1.158  15.657  10.483 -0.1314  0.1217 -0.1808
    4PSPI   PO4   46   1.399  15.468   9.900 -0.0620  0.0151 -0.0113
    4PSPI   GL1   47   1.029  15.275   9.729 -0.0146 -0.2857  0.0545
    4PSPI   GL2   48   0.819  15.172   9.907  0.0455 -0.0891  0.0522
    4PSPI   C1A   49   1.094  15.404   9.257 -0.0719  0.0784 -0.0259
    4PSPI   C2A   50   0.991  15.365   8.789  0.3272 -0.1348 -0.3677
    4PSPI   C3A   51   0.954  15.386   8.322 -0.0954  0.2275  0.0837
    4PSPI   C4A   52   0.620  15.345   7.876  0.1534 -0.0625  0.1871
    4PSPI   C1B   53   0.651  15.219   9.464  0.0292  0.2187 -0.2351
    4PSPI   C2B   54   0.712  15.102   9.079 -0.0510 -0.3212  0.0035
    4PSPI   C3B   55   0.626  15.073   8.603 -0.4563 -0.0844  0.2922
    4PSPI   C4B   56   0.649  14.945   8.225 -0.2828 -0.0657  0.0124
    5PSPI    C1   57   7.806   5.708  10.511  0.1567  0.0865 -0.3252
    5PSPI    C2   58   8.054   6.005  10.611  0.1535 -0.0925  0.2453
    5PSPI    C3   59   8.140   5.629  10.716 -0.1824 -0.2042  0.1326
    5PSPI   PO4   60   7.813   5.651  10.273  0.2009  0.0323  0.1315
    5PSPI   GL1   61   7.759   5.833   9.901  0.0898 -0.1773  0.3193
    5PSPI   GL2   62   7.742   5.511   9.797  0.1037 -0.1809  0.0543
    5PSPI   C1A   63   7.763   6.117   9.504 -0.1456 -0.0146  0.2757
    5PSPI   C2A   64   7.819   6.058   9.087 -0.0535 -0.0035  0.0026
    5PSPI   C3A   65   7.881   6.270   8.784  0.2733 -0.0475  0.1842
    5PSPI   C4A   66   7.962   6.667   8.830  0.2418 -0.0197 -0.2224
    5PSPI   C1B   67   7.815   5.578   9.374  0.1618 -0.2326  0.0092
    5PSPI   C2B   68   7.500   5.655   9.050 -0.0748 -0.0006 -0.2964
    5PSPI   C3B   69   7.343   5.507   8.720 -0.1156  0.0439  0.0165
    5PSPI   C4B   70   7.356   5.455   8.295 -0.1281 -0.0584  0.1980
    6PSPI    C1   71  13.503   3.119  10.444 -0.0855 -0.0499  0.2912
    6PSPI    C2   72  13.144   2.963  10.364 -0.1659  0.1732  0.2095
    6PSPI    C3   73  13.209   3.147  10.714 -0.1004  0.0439  0.2658
    6PSPI   PO4   74  13.629   3.071  10.222  0.1836  0.0556  0.1453
    6PSPI   GL1   75  13.658   2.935   9.796  0.0278  0.1179  0.2090
    6PSPI   GL2   76  13.487   3.175   9.754 -0.2095  0.0605 -0.0070
    6PSPI   C1A   77  13.666   3.057   9.316  0.0323 -0.0290  0.0832
    6PSPI   C2A   78  13.843   2.946   8.969 -0.0096  0.2689  0.0116
    6PSPI   C3A   79  13.659   3.097   8.589  0.0861  0.3902  0.0881
    6PSPI   C4A   80  13.593   3.451   8.448  0.0521  0.2547  0.0068
    6PSPI   C1B   81  13.748   3.468   9.601 -0.1122  0.4969 -0.1419
    6PSPI   C2B   82  14.015   3.586   9.251  0.4046  0.1443 -0.1383
    6PSPI   C3B   83  14.283   3.774   8.965 -0.0149 -0.3289  0.0057
    6PSPI   C4B   84  14.309   3.757   8.555  0.0570 -0.0577 -0.0906
    7PSPI    C1   85   7.378   1.161  10.152  0.1387  0.0915 -0.1057
    7PSPI    C2   86   7.199   1.505  10.250  0.2299  0.1492 -0.1402
    7PSPI    C3   87   7.546   1.405  10.421  0.0964 -0.0287  0.0311
    7PSPI   PO4   88   7.365   1.144   9.893  0.1571  0.0293 -0.3042
    7PSPI   GL1   89   7.668   1.094   9.731  0.0303 -0.3574  0.1928
    7PSPI   GL2   90   7.574   1.251   9.427 -0.0067 -0.0009 -0.1942
    7PSPI   C1A   91   8.020   1.182   9.468 -0.0117 -0.0686 -0.1689
    7PSPI   C2A   92   8.138   1.440   9.136 -0.0725  0.1717  0.2158
    7PSPI   C3A   93   8.039   1.662   8.739 -0.1696 -0.0895  0.0730
    7PSPI   C4A   94   8.230   1.736   8.279 -0.1109 -0.0847  0.2424
    7PSPI   C1B   95   7.768   1.124   8.971 -0.1503  0.1043 -0.0337
    7PSPI   C2B   96   7.735   1.348   8.599 -0.1247  0.0847  0.3381
    7PSPI   C3B   97   7.579   1.542   8.232  0.0504  0.1865 -0.1825
    7PSPI   C4B   98   7.440   1.830   7.997 -0.0947 -0.0218 -0.3128
    8PSPI    C1   99   6.047   8.356  10.979  0.1221 -0.1136  0.0328
    8PSPI    C2  100   6.182   8.026  10.797  0.0591 -0.0426 -0.1454
    8PSPI    C3  101   6.310   8.119  11.165  0.0614 -0.2758 -0.0859
    8PSPI   PO4  102   6.004   8.473  10.735  0.0569 -0.0378 -0.1509
    8PSPI   GL1  103   5.923   8.691  10.304 -0.1495 -0.1630  0.2297
    8PSPI   GL2  104   6.216   8.704  10.349 -0.1706  0.0558 -0.0421
    8PSPI   C1A  105   6.070   8.757   9.899 -0.2299 -0.1154  0.1581
    8PSPI   C2A  106   6.177   8.844   9.437 -0.3361 -0.3117 -0.1152
    8PSPI   C3A  107   6.267   8.977   8.905  0.2841  0.1170  0.0213
    8PSPI   C4A  108   6.667   9.158   8.699 -0.2278  0.0216  0.0204
    8PSPI   C1B  109   6.496   8.957  10.141  0.1245  0.1428  0.2432
    8PSPI   C2B  110   6.568   9.013   9.782 -0.1102 -0.0081  0.0738
    8PSPI   C3B  111   6.488   9.236   9.427 -0.0979 -0.0168 -0.0094
    8PSPI   C4B  112   6.504   9.418   9.111  0.1074  0.3827 -0.1366
    9PSPI    C1  113  13.812   8.923  11.212 -0.0414  0.0265 -0.3384
    9PSPI    C2  114  13.648   9.093  10.889 -0.0996  0.3134 -0.1608
    9PSPI    C3  115  13.530   9.203  11.256 -0.0141  0.0108 -0.0390
    9PSPI   PO4  116  14.057   8.819  11.001  0.1283  0.0326 -0.1561
    9PSPI   GL1  117  14.265   8.928  10.651 -0.0460 -0.1195  0.1233
    9PSPI   GL2  118  14.305   9.212  10.477 -0.1654 -0.1570  0.0173
    9PSPI   C1A  119  14.361   8.782  10.276  0.1296 -0.1647  0.0669
    9PSPI   C2A  120  14.350   8.874   9.918  0.1585  0.1020 -0.1394
    9PSPI   C3A  121  14.339   8.855   9.490  0.0957 -0.5677 -0.1564
    9PSPI   C4A  122  14.059   8.726   9.194 -0.3906  0.0625 -0.1190
    9PSPI   C1B  123  14.448   9.313  10.129 -0.0919  0.2402  0.0225
    9PSPI   C2B  124  14.519   9.309   9.758 -0.4026  0.2586 -0.2776
    9PSPI   C3B  125  14.340   9.377   9.406  0.1025 -0.0682 -0.2320
    9PSPI   C4B  126  14.326   9.130   9.016  0.0551  0.0307 -0.0191
   10PSPI    C1  127   3.885   4.028  10.644  0.1273  0.2479  0.0193
   10PSPI    C2  128   3.750   4.259  10.941 -0.0247  0.1129  0.0562
   10PSPI    C3  129   3.869   3.884  11.017 -0.1255  0.0562 -0.0628
   10PSPI   PO4  130   3.760   4.126  10.416  0.1112 -0.2341  0.0691
   10PSPI   GL1  131   3.684   4.062  10.016  0.0234  0.0037  0.1997
   10PSPI   GL2  132   4.034   3.833  10.130 -0.0603  0.0962  0.1608
   10PSPI   C1A  133   3.576   3.882   9.647 -0.2667  0.1991 -0.2242
   10PSPI   C2A  134   3.434   3.955   9.194 -0.0824 -0.1963 -0.2155
   10PSPI   C3A  135   3.268   4.082   8.829 -0.2536  0.0234  0.0869
   10PSPI   C4A  136   3.175   4.026   8.434 -0.2397 -0.1247 -0.0295
   10PSPI   C1B  137   4.020   4.144   9.663 -0.2830 -0.1038  0.0536
   10PSPI   C2B  138   3.812   4.309   9.257 -0.1543  0.0655  0.3938
   10PSPI   C3B  139   3.632   4.462   8.884 -0.0247 -0.0062 -0.0651
   10PSPI   C4B  140   3.353   4.654   8.656 -0.0734 -0.1125  0.1260
   11PSPI    C1  141   3.770   1.786  10.229 -0.1724  0.1617 -0.0175
   11PSPI    C2  142   3.924   2.098  10.426 -0.1300  0.0879  0.0671
   11PSPI    C3  143   3.604   1.908  10.572 -0.1096  0.0444  0.0550
   11PSPI   PO4  144   3.797   1.740   9.996  0.2194 -0.1356  0.1357
   11PSPI   GL1  145   4.044   1.551   9.667  0.0305 -0.2309  0.1158
   11PSPI   GL2  146   4.272   1.764   9.660 -0.0218  0.0240 -0.0979
   11PSPI   C1A  147   4.250   1.507   9.231 -0.2568  0.0833 -0.1814
   11PSPI   C2A  148   4.357   1.566   8.849  0.1448  0.0225 -0.0289
   11PSPI   C3A  149   4.589   1.355   8.561  0.0315  0.0215  0.0581
   11PSPI   C4A  150   4.659   1.304   8.098  0.1373 -0.0220 -0.0479
   11PSPI   C1B  151   4.522   1.906   9.346  0.2105  0.1052 -0.1296
   11PSPI   C2B  152   4.528   2.049   8.999 -0.2016 -0.0012 -0.0817
   11PSPI   C3B  153   4.399   2.332   8.707  0.0786 -0.0256 -0.0750
   11PSPI   C4B  154   4.163   2.453   8.410  0.2174 -0.0887  0.1257
   12PSPI    C1  155  16.958   1.014  10.221 -0.0783  0.1219  0.0160
   12PSPI    C2  156  16.796   0.665  10.114  0.1179 -0.0383  0.2305
   12PSPI    C3  157  17.173   0.677  10.246  0.0992  0.2502  0.2617
   12PSPI   PO4  158  16.886   1.154  10.073 -0.1283 -0.1463  0.3464
   12PSPI   GL1  159  16.871   1.182   9.592 -0.1049  0.1114  0.2537
   12PSPI   GL2  160  16.791   0.901   9.616  0.2050 -0.1989  0.2354
   12PSPI   C1A  161  16.792   1.416   9.304 -0.3058 -0.1367  0.0335
   12PSPI   C2A  162  16.617   1.526   8.949  0.1164  0.2314  0.4110
   12PSPI   C3A  163  16.340   1.431   8.710  0.1702  0.1397  0.3216
   12PSPI   C4A  164  16.024   1.305   8.368 -0.1544 -0.0856 -0.1669
   12PSPI   C1B  165  16.755   0.854   9.183 -0.2390 -0.0390  0.0774
   12PSPI   C2B  166  16.653   1.056   8.904  0.1211 -0.0578  0.3116
   12PSPI   C3B  167  16.734   1.149   8.425  0.1418  0.2429  0.2624
   12PSPI   C4B  168  17.191   1.210   8.310 -0.3170 -0.0238  0.2651
   13PSPI    C1  169   4.793  15.497  10.385 -0.0430 -0.2661  0.0328
   13PSPI    C2  170   5.067  15.384  10.654  0.0871  0.2590  0.1324
   13PSPI    C3  171   4.895  15.744  10.682 -0.3564  0.0777 -0.1374
   13PSPI   PO4  172   4.900  15.406  10.174 -0.0548  0.2221  0.2084
   13PSPI   GL1  173   5.021  15.485   9.786 -0.1171  0.1647 -0.2419
   13PSPI   GL2  174   4.709  15.293   9.682  0.1265 -0.2863  0.0958
   13PSPI   C1A  175   5.338  15.495   9.466  0.1322  0.0909  0.1140
   13PSPI   C2A  176   5.593  15.442   9.132  0.1128 -0.3400 -0.2561
   13PSPI   C3A  177   5.656  15.293   8.740  0.0811 -0.1064  0.3046
   13PSPI   C4A  178   5.424  15.286   8.293  0.0462 -0.0380  0.0785
   13PSPI   C1B  179   4.847  15.391   9.332 -0.1061  0.0200  0.0565
   13PSPI   C2B  180   5.090  15.533   9.039 -0.2695 -0.0121  0.1937
   13PSPI   C3B  181   5.284  15.580   8.681  0.0247  0.0948 -0.0781
   13PSPI   C4B  182   5.602  15.773   8.431  0.2807  0.1264 -0.0404
   14PSPI    C1  183   3.978  16.710  10.321  0.1005 -0.1618  0.0813
   14PSPI    C2  184   4.171  16.954  10.572 -0.0637 -0.0778  0.1274
   14PSPI    C3  185   4.190  16.558  10.624  0.0986 -0.0705  0.1286
   14PSPI   PO4  186   4.021  16.856  10.062 -0.0598 -0.1233 -0.2536
   14PSPI   GL1  187   3.940  16.818   9.589 -0.2232 -0.1274  0.1455
   14PSPI   GL2  188   3.696  16.885   9.645 -0.1886  0.1734 -0.1770
   14PSPI   C1A  189   3.992  16.998   9.165  0.1521  0.0248  0.0366
   14PSPI   C2A  190   3.990  16.946   8.744  0.1462  0.0759  0.0196
   14PSPI   C3A  191   4.061  16.921   8.398  0.3141  0.1965 -0.2357
   14PSPI   C4A  192   4.168  16.847   7.969  0.0572 -0.0976 -0.2245
   14PSPI   C1B  193   3.499  16.997   9.204  0.0137  0.1054  0.0764
   14PSPI   C2B  194   3.472  17.215   8.846  0.1040  0.0058 -0.0427
   14PSPI   C3B  195   3.666  17.192   8.488 -0.1999 -0.0535 -0.1353
   14PSPI   C4B  196   3.857  17.290   8.070  0.0505 -0.2836 -0.2804
   15PSPI    C1  197   7.300  14.584  10.865 -0.1657  0.0896 -0.1053
   15PSPI    C2  198   6.992  14.834  10.918 -0.0581  0.1859  0.0756
   15PSPI    C3  199   7.113  14.598  11.218 -0.0791  0.0062 -0.0554
   15PSPI   PO4  200   7.304  14.540  10.541 -0.1281  0.0124 -0.2100
   15PSPI   GL1  201   7.613  14.230  10.278 -0.0194  0.1197  0.0018
   15PSPI   GL2  202   7.841  13.925  10.287 -0.1734 -0.2824 -0.1471
   15PSPI   C1A  203   7.569  14.516   9.955 -0.4086  0.0193  0.3164
   15PSPI   C2A  204   7.744  14.609   9.557 -0.2047  0.1467 -0.0743
   15PSPI   C3A  205   7.925  14.654   9.121 -0.3375 -0.0674 -0.1109
   15PSPI   C4A  206   8.070  14.924   8.787 -0.2885 -0.0523 -0.1031
   15PSPI   C1B  207   7.886  14.004   9.806  0.0342 -0.0228 -0.0022
   15PSPI   C2B  208   8.055  13.818   9.459  0.1566 -0.3609 -0.2901
   15PSPI   C3B  209   8.126  13.781   8.972  0.0640 -0.0624  0.1755
   15PSPI   C4B  210   8.344  13.549   8.690  0.0728 -0.0233 -0.0187
   16PSPI    C1  211  12.036  11.216  11.340  0.0343  0.1181 -0.0754
   16PSPI    C2  212  12.260  10.889  11.398 -0.0645  0.0881  0.1468
   16PSPI    C3  213  12.048  11.042  11.700 -0.3769  0.0930 -0.0699
   16PSPI   PO4  214  12.001  11.188  11.023 -0.2644  0.1392 -0.2276
   16PSPI   GL1  215  12.146  11.216  10.550  0.0238  0.2784 -0.1055
   16PSPI   GL2  216  12.358  10.921  10.400 -0.2413 -0.1224 -0.2056
   16PSPI   C1A  217  11.744  11.194  10.171 -0.0371  0.3400 -0.0870
   16PSPI   C2A  218  11.794  11.222   9.781  0.1391 -0.1913 -0.2263
   16PSPI   C3A  219  11.902  11.157   9.354 -0.0736 -0.0375  0.3098
   16PSPI   C4A  220  11.483  10.942   9.145  0.0944 -0.0096  0.2152
   16PSPI   C1B  221  12.199  10.973   9.990  0.0567 -0.1055 -0.1907
   16PSPI   C2B  222  12.261  10.913   9.563  0.0332  0.1570  0.2666
   16PSPI   C3B  223  12.354  11.012   9.136  0.0153 -0.0122  0.2080
   16PSPI   C4B  224  12.770  11.163   8.936 -0.0236 -0.0868  0.2445
   17PSPI    C1  225   7.404   5.946  10.325 -0.0967  0.1596  0.0806
   17PSPI    C2  226   7.313   5.580  10.460  0.3260 -0.0179 -0.0987
   17PSPI    C3  227   7.318   5.891  10.712 -0.1571 -0.1084  0.0311
   17PSPI   PO4  228   7.322   6.044  10.116  0.2492  0.0303  0.1387
   17PSPI   GL1  229   7.302   5.969   9.685  0.3264  0.2887 -0.2440
   17PSPI   GL2  230   7.334   5.686   9.505  0.0865 -0.0548  0.3490
   17PSPI   C1A  231   7.344   6.087   9.264  0.3625 -0.0809  0.0059
   17PSPI   C2A  232   7.405   6.139   8.799  0.1061 -0.1456 -0.0711
   17PSPI   C3A  233   7.457   6.277   8.496 -0.3468  0.1920  0.1683
   17PSPI   C4A  234   7.467   6.369   8.070 -0.4422 -0.1511  0.2971
   17PSPI   C1B  235   7.088   5.332   9.365 -0.0106 -0.1380  0.0770
   17PSPI   C2B  236   6.939   5.232   8.974 -0.2184 -0.2403  0.0430
   17PSPI   C3B  237   6.906   5.419   8.528 -0.2159  0.2027 -0.1615
   17PSPI   C4B  238   6.889   5.590   8.068 -0.2955  0.1655  0.0699
   18PSPI    C1  239   3.201  17.481  10.211 -0.0042 -0.0205 -0.0409
   18PSPI    C2  240   3.127  17.867  10.135 -0.1550 -0.0174  0.1179
   18PSPI    C3  241   3.057  17.718  10.499 -0.1945 -0.2191  0.0290
   18PSPI   PO4  242   3.294  17.484   9.912 -0.4604 -0.0677  0.0550
   18PSPI   GL1  243   3.298  17.678   9.534  0.1606 -0.1655 -0.1711
   18PSPI   GL2  244   3.000  17.879   9.655 -0.3690  0.1856 -0.1137
   18PSPI   C1A  245   3.234  17.409   9.261  0.1758 -0.0864 -0.1306
   18PSPI   C2A  246   3.051  17.398   8.871  0.2947 -0.2764  0.0847
   18PSPI   C3A  247   3.147  17.282   8.425  0.0660  0.0262 -0.3476
   18PSPI   C4A  248   3.330  17.222   8.049 -0.1306  0.0031 -0.0950
   18PSPI   C1B  249   2.918  17.907   9.139 -0.3436 -0.0504  0.4184
   18PSPI   C2B  250   2.853  17.852   8.747 -0.1937 -0.0084  0.2750
   18PSPI   C3B  251   2.707  17.724   8.373  0.0408 -0.1955  0.1529
   18PSPI   C4B  252   2.556  17.623   7.877 -0.0390 -0.0395 -0.2325
   19PSPI    C1  253   1.677  12.970  10.325  0.0900  0.0307  0.0089
   19PSPI    C2  254   1.349  13.110  10.506  0.1009 -0.0888  0.1227
   19PSPI    C3  255   1.702  13.289  10.565  0.0517  0.0597 -0.0256
   19PSPI   PO4  256   1.646  12.998  10.055 -0.0475 -0.0064 -0.1103
   19PSPI   GL1  257   1.653  12.828   9.620  0.2466  0.3056  0.1883
   19PSPI   GL2  258   1.327  12.920   9.652  0.0927 -0.1768 -0.1604
   19PSPI   C1A  259   1.815  12.815   9.243 -0.2945  0.0699  0.2203
   19PSPI   C2A  260   1.729  12.584   8.853  0.1599  0.1770  0.0696
   19PSPI   C3A  261   1.661  12.591   8.515  0.2616  0.2442 -0.0432
   19PSPI   C4A  262   1.551  12.749   8.127  0.0226  0.1944  0.1035
   19PSPI   C1B  263   1.362  13.055   9.241 -0.1343 -0.0863  0.0885
   19PSPI   C2B  264   1.698  13.123   8.852  0.5337 -0.0870 -0.0579
   19PSPI   C3B  265   1.886  13.044   8.470 -0.1971 -0.0269 -0.2061
   19PSPI   C4B  266   1.820  13.187   8.030  0.1596  0.0268  0.1779
   20PSPI    C1  267  17.412   5.216  10.427 -0.0095  0.1747  0.1215
   20PSPI    C2  268  17.248   5.194  10.791 -0.1990  0.0103  0.0283
   20PSPI    C3  269  17.257   4.870  10.556  0.0615  0.0756 -0.0551
   20PSPI   PO4  270  17.600   5.357  10.401  0.0784 -0.1037 -0.1696
   20PSPI   GL1  271  17.810   5.367  10.000  0.3613  0.0612  0.0013
   20PSPI   GL2  272  18.002   5.415  10.039 -0.1247  0.1878 -0.1515
   20PSPI   C1A  273  17.773   5.272   9.581  0.2601 -0.0734 -0.0304
   20PSPI   C2A  274  17.610   5.446   9.137  0.1324 -0.0753  0.2910
   20PSPI   C3A  275  17.336   5.683   8.834 -0.2975 -0.0348  0.2484
   20PSPI   C4A  276  17.173   5.637   8.507 -0.3226 -0.0935  0.1332
   20PSPI   C1B  277  18.213   5.442   9.716 -0.1529 -0.1708  0.1724
   20PSPI   C2B  278  18.575   5.479   9.399  0.1738  0.3240  0.2893
   20PSPI   C3B  279  18.676   5.476   9.005  0.0050 -0.0383 -0.1241
   20PSPI   C4B  280  18.721   5.459   8.527  0.2137  0.0008  0.0602
   21POPI    C1  281  12.590  14.507  11.215 -0.0172  0.0743 -0.0560
   21POPI    C2  282  12.964  14.610  11.121  0.0135 -0.1154 -0.1455
   21POPI    C3  283  12.822  14.686  11.487  0.1657 -0.1133 -0.0860
   21POPI   PO4  284  12.509  14.521  10.925  0.1079  0.0522  0.0249
   21POPI   GL1  285  12.364  14.706  10.641 -0.1530  0.1478 -0.4274
   21POPI   GL2  286  12.518  14.963  10.676  0.2443  0.1709 -0.1439
   21POPI   C1A  287  12.173  14.648  10.293  0.4495 -0.0999 -0.3914
   21POPI   D2A  288  12.185  14.613   9.915 -0.1759  0.0867  0.2420
   21POPI   C3A  289  12.069  14.706   9.516  0.2771  0.4482 -0.0252
   21POPI   C4A  290  12.083  14.847   9.122 -0.0424 -0.1109 -0.1414
   21POPI   C1B  291  12.564  14.922  10.168 -0.0366  0.2392  0.1218
   21POPI   C2B  292  12.529  14.992   9.834 -0.1389  0.1279  0.2221
   21POPI   C3B  293  12.483  15.022   9.367  0.0154 -0.3905  0.0748
   21POPI   C4B  294  12.337  15.268   8.980 -0.3464  0.0488  0.0820
   22POPI    C1  295  12.161   6.416  10.776  0.2818 -0.3556 -0.2131
   22POPI    C2  296  11.810   6.259  10.884  0.1531  0.0383 -0.0388
   22POPI    C3  297  12.145   6.148  11.072  0.0820 -0.1163 -0.0014
   22POPI   PO4  298  12.249   6.402  10.489  0.3133  0.0097 -0.2253
   22POPI   GL1  299  12.264   6.612  10.226 -0.2297 -0.1640  0.2667
   22POPI   GL2  300  12.599   6.714  10.306  0.1933 -0.1181  0.0587
   22POPI   C1A  301  12.291   6.663   9.816 -0.0222 -0.1442  0.0348
   22POPI   D2A  302  12.226   6.604   9.425  0.1064  0.0884  0.0437
   22POPI   C3A  303  12.122   6.921   9.122  0.1268 -0.0286  0.0183
   22POPI   C4A  304  12.042   6.859   8.791  0.1654  0.1398  0.2652
   22POPI   C1B  305  12.622   7.068   9.930  0.1113  0.0564 -0.0227
   22POPI   C2B  306  12.347   7.211   9.585  0.1181 -0.0710 -0.0081
   22POPI   C3B  307  12.104   7.405   9.214  0.0302  0.1863 -0.0861
   22POPI   C4B  308  11.951   7.425   8.863 -0.1544  0.0642  0.0667
   23POPI    C1  309   1.358   0.445   9.837  0.2206  0.0494 -0.0627
   23POPI    C2  310   1.179   0.712  10.074 -0.1146 -0.0995 -0.1419
   23POPI    C3  311   1.576   0.719  10.029 -0.1066  0.3025 -0.0442
   23POPI   PO4  312   1.301   0.442   9.681 -0.3730  0.0157 -0.1748
   23POPI   GL1  313   1.417   0.563   9.305  0.2776 -0.1066  0.2587
   23POPI   GL2  314   1.523   0.781   9.269  0.2356  0.1184  0.1420
   23POPI   C1A  315   1.552   0.429   8.904  0.1683  0.4361 -0.1068
   23POPI   D2A  316   1.643   0.393   8.457  0.0195  0.2717 -0.0056
   23POPI   C3A  317   1.353   0.235   8.188  0.1799 -0.1141  0.0266
   23POPI   C4A  318   1.153   0.327   7.838 -0.2181  0.0855  0.0824
   23POPI   C1B  319   1.377   0.860   8.839  0.2881  0.1005 -0.0216
   23POPI   C2B  320   1.391   0.882   8.409  0.0947 -0.4469  0.0943
   23POPI   C3B  321   1.242   0.725   8.215  0.2599  0.0055 -0.0977
   23POPI   C4B  322   1.505   0.656   7.840 -0.0790 -0.2378 -0.4873
   24POPI    C1  323   2.524  17.069  10.040  0.0337 -0.1160  0.1004
   24POPI    C2  324   2.635  17.252  10.378  0.0122  0.0152  0.0371
   24POPI    C3  325   2.251  17.157  10.319 -0.0123  0.1512 -0.0253
   24POPI   PO4  326   2.643  16.950   9.969 -0.5124 -0.0230 -0.1108
   24POPI   GL1  327   2.589  16.731   9.663 -0.1322  0.0669  0.0684
   24POPI   GL2  328   2.819  16.812   9.449  0.1514 -0.1651  0.1414
   24POPI   C1A  329   2.609  16.482   9.199  0.0689 -0.0063 -0.0522
   24POPI   D2A  330   2.187  16.422   8.922  0.2529  0.3115 -0.0727
   24POPI   C3A  331   2.191  16.498   8.446  0.2913  0.1238 -0.3466
   24POPI   C4A  332   2.297  16.713   8.045 -0.0407  0.0954 -0.3128
   24POPI   C1B  333   2.976  17.009   9.124 -0.1318  0.3179 -0.1605
   24POPI   C2B  334   3.162  16.878   8.728 -0.1561 -0.0464 -0.1510
   24POPI   C3B  335   3.122  16.806   8.365 -0.1160  0.0290  0.0197
   24POPI   C4B  336   3.102  16.723   7.973  0.3787 -0.3150 -0.0995
   25POPI    C1  337   7.454   2.911   9.978 -0.0056 -0.0492 -0.0447
   25POPI    C2  338   7.083   3.030   9.887  0.0462  0.0929 -0.0732
   25POPI    C3  339   7.139   2.731  10.147 -0.0867  0.1081 -0.0263
   25POPI   PO4  340   7.611   3.000   9.820  0.0015 -0.0288  0.1366
   25POPI   GL1  341   7.525   3.321   9.441 -0.2297 -0.1924  0.1605
   25POPI   GL2  342   7.333   3.081   9.417 -0.2681 -0.2109 -0.2474
   25POPI   C1A  343   7.654   3.223   8.970 -0.1511 -0.1544  0.1411
   25POPI   D2A  344   7.802   3.173   8.501 -0.0335 -0.0371  0.0230
   25POPI   C3A  345   7.897   3.191   8.120  0.0321 -0.0274 -0.0681
   25POPI   C4A  346   8.102   3.049   7.801 -0.2672 -0.0634 -0.0897
   25POPI   C1B  347   7.260   2.889   8.986 -0.0322 -0.2609 -0.2006
   25POPI   C2B  348   7.447   2.814   8.603 -0.0035  0.0041 -0.3470
   25POPI   C3B  349   7.435   2.971   8.208  0.0918 -0.0607  0.1844
   25POPI   C4B  350   7.610   2.661   7.863 -0.0676  0.0247 -0.2395
   26POPI    C1  351   6.598  10.328  11.132  0.1055  0.1599 -0.2405
   26POPI    C2  352   6.911  10.509  11.304 -0.0720  0.2870 -0.0469
   26POPI    C3  353   6.543  10.660  11.347 -0.1942  0.0024 -0.0667
   26POPI   PO4  354   6.684  10.333  10.882  0.3464  0.0441 -0.1013
   26POPI   GL1  355   6.779  10.513  10.443 -0.2250 -0.0614  0.0316
   26POPI   GL2  356   6.569  10.707  10.493  0.1692 -0.1778  0.2649
   26POPI   C1A  357   6.655  10.560   9.939 -0.0352 -0.0607 -0.0604
   26POPI   D2A  358   6.679  10.202   9.646  0.0532 -0.1988  0.1826
   26POPI   C3A  359   6.425  10.150   9.295  0.0042  0.1248  0.2772
   26POPI   C4A  360   6.282  10.475   8.960  0.0516  0.1435 -0.2209
   26POPI   C1B  361   6.591  11.021  10.182  0.1580  0.1303  0.1901
   26POPI   C2B  362   6.435  11.043   9.760 -0.0172  0.0590 -0.0518
   26POPI   C3B  363   6.334  11.163   9.322  0.0633  0.0077 -0.1446
   26POPI   C4B  364   6.316  10.969   8.987  0.1694 -0.1855 -0.1324
   27POPI    C1  365   0.094   4.554  10.657 -0.3234 -0.0844  0.0771
   27POPI    C2  366   0.369   4.823  10.768 -0.2710 -0.0534 -0.1244
   27POPI    C3  367   0.055   4.749  11.004 -0.0680 -0.1220  0.1291
   27POPI   PO4  368   0.207   4.504  10.354 -0.1749 -0.1910 -0.0083
   27POPI   GL1  369   0.005   4.332   9.967 -0.0988 -0.0764  0.4293
   27POPI   GL2  370   0.031   4.113   9.822  0.0674 -0.2567  0.0875
   27POPI   C1A  371   0.260   4.574   9.639 -0.0479  0.0662 -0.2483
   27POPI   D2A  372   0.385   4.524   9.231 -0.2087  0.0046 -0.2623
   27POPI   C3A  373   0.216   4.350   8.833 -0.1943  0.2847  0.0064
   27POPI   C4A  374   0.111   4.664   8.583 -0.0516 -0.1166  0.0823
   27POPI   C1B  375   0.191   4.026   9.443  0.0065 -0.1446  0.3180
   27POPI   C2B  376   0.357   3.798   9.080  0.0536 -0.2476 -0.0282
   27POPI   C3B  377   0.484   3.868   8.614 -0.1635  0.1859 -0.2824
   27POPI   C4B  378   0.450   3.673   8.272 -0.0690  0.0839  0.0150
   28POPI    C1  379   6.866   5.301  10.293  0.0123  0.0656  0.0268
   28POPI    C2  380   7.187   5.109  10.436  0.0269 -0.0683 -0.1814
   28POPI    C3  381   6.821   5.012  10.565  0.0767  0.1802  0.1608
   28POPI   PO4  382   6.864   5.288  10.013 -0.0974  0.2218  0.0749
   28POPI   GL1  383   6.857   4.902   9.648  0.1414  0.0856  0.1763
   28POPI   GL2  384   6.805   4.673   9.540 -0.0422 -0.0656 -0.2293
   28POPI   C1A  385   6.542   5.269   9.366  0.1717  0.2018  0.2965
   28POPI   D2A  386   6.479   5.437   8.946  0.1516 -0.0148 -0.2381
   28POPI   C3A  387   6.195   5.441   8.552 -0.2213 -0.0912 -0.3290
   28POPI   C4A  388   5.892   5.509   8.203 -0.0181 -0.0757 -0.1478
   28POPI   C1B  389   6.652   4.789   9.187 -0.0283 -0.0565  0.2530
   28POPI   C2B  390   6.622   4.973   8.704 -0.0744  0.0550 -0.2889
   28POPI   C3B  391   6.590   5.106   8.241  0.0591  0.1489  0.0672
   28POPI   C4B  392   6.391   5.408   7.915  0.1521  0.0716 -0.1176
   29POPI    C1  393   9.766  17.457  11.089  0.0851 -0.1194  0.0381
   29POPI    C2  394   9.473  17.215  11.211  0.0729 -0.2373 -0.2182
   29POPI    C3  395   9.432  17.611  11.245  0.0216 -0.2635  0.0458
   29POPI   PO4  396   9.851  17.306  10.756 -0.0338  0.1461  0.1478
   29POPI   GL1  397   9.837  16.917  10.524  0.0429 -0.0481 -0.2852
   29POPI   GL2  398   9.731  17.187  10.254  0.2980 -0.0162  0.1484
   29POPI   C1A  399   9.901  16.652  10.188  0.0777 -0.1219 -0.1527
   29POPI   D2A  400  10.129  16.429   9.865  0.2136  0.1229 -0.0797
   29POPI   C3A  401  10.126  16.604   9.447 -0.1602 -0.0684 -0.3556
   29POPI   C4A  402  10.118  16.510   8.983  0.2007  0.0548 -0.1213
   29POPI   C1B  403   9.888  17.526   9.956  0.1167  0.0117  0.2272
   29POPI   C2B  404   9.934  17.416   9.565 -0.0970 -0.2033 -0.0559
   29POPI   C3B  405   9.833  17.481   9.182  0.3031 -0.1825 -0.2110
   29POPI   C4B  406  10.119  17.497   8.843  0.2346  0.1195 -0.1883
   30POPI    C1  407  13.748   1.636  10.615 -0.3236 -0.1039  0.1476
   30POPI    C2  408  13.637   1.335  10.854  0.2320 -0.3570  0.1034
   30POPI    C3  409  13.987   1.518  10.913 -0.0138  0.1616  0.0100
   30POPI   PO4  410  13.646   1.571  10.365 -0.2383  0.1334 -0.2768
   30POPI   GL1  411  13.539   1.327  10.028  0.1828  0.0927 -0.1324
   30POPI   GL2  412  13.883   1.245   9.900  0.0796 -0.1486 -0.1864
   30POPI   C1A  413  13.520   1.451   9.661 -0.1809  0.0014  0.1847
   30POPI   D2A  414  13.615   1.347   9.228 -0.1878  0.2858 -0.0013
   30POPI   C3A  415  13.497   1.164   8.925  0.3190  0.1385 -0.1530
   30POPI   C4A  416  13.557   0.805   8.552 -0.3224 -0.4402 -0.1490
   30POPI   C1B  417  14.042   0.970   9.586  0.0278  0.2129  0.0154
   30POPI   C2B  418  13.921   0.923   9.221 -0.1328  0.2936  0.5857
   30POPI   C3B  419  13.978   0.995   8.825 -0.3515  0.0236 -0.1173
   30POPI   C4B  420  14.249   0.767   8.628  0.2292 -0.2156  0.0716
   31POPI    C1  421   5.719  10.471  10.895  0.3516  0.0034 -0.0823
   31POPI    C2  422   5.521  10.610  11.212 -0.1716 -0.0849 -0.3590
   31POPI    C3  423   5.678  10.242  11.220 -0.2536 -0.1179 -0.2311
   31POPI   PO4  424   5.753  10.687  10.781 -0.0949 -0.1218  0.0439
   31POPI   GL1  425   5.541  10.905  10.510 -0.2675 -0.2305 -0.4179
   31POPI   GL2  426   5.169  10.905  10.423 -0.2035  0.1220  0.1045
   31POPI   C1A  427   5.652  10.767  10.048 -0.1824 -0.0446  0.0146
   31POPI   D2A  428   5.966  10.973   9.734 -0.1313  0.3015 -0.2491
   31POPI   C3A  429   5.966  10.717   9.339  0.0317  0.1023 -0.1739
   31POPI   C4A  430   5.843  10.581   8.881  0.4243 -0.3458 -0.2469
   31POPI   C1B  431   5.308  11.126  10.041 -0.1408  0.2765 -0.0984
   31POPI   C2B  432   5.501  11.078   9.630 -0.0573 -0.0527 -0.3175
   31POPI   C3B  433   5.385  11.260   9.279  0.1205  0.0399 -0.1291
   31POPI   C4B  434   5.371  11.156   8.775 -0.0032  0.1232 -0.0412
   32POPI    C1  435  15.257   4.661  10.242 -0.0517  0.0991  0.0326
   32POPI    C2  436  15.076   4.988  10.383 -0.0315  0.0390  0.2014
   32POPI    C3  437  15.098   4.659  10.609  0.0877 -0.0281  0.0938
   32POPI   PO4  438  15.214   4.631  10.030 -0.0905  0.0562 -0.0373
   32POPI   GL1  439  15.316   4.668   9.653 -0.1099 -0.2232  0.2701
   32POPI   GL2  440  15.578   4.490   9.701  0.2410 -0.3160 -0.0807
   32POPI   C1A  441  15.568   4.631   9.220  0.1150 -0.2047  0.2975
   32POPI   D2A  442  15.775   4.891   8.867 -0.0172  0.2433  0.1208
   32POPI   C3A  443  15.476   5.069   8.462 -0.3656 -0.1118  0.2938
   32POPI   C4A  444  15.072   5.275   8.591 -0.0074 -0.0606  0.0172
   32POPI   C1B  445  15.932   4.464   9.448  0.2904  0.2969  0.0720
   32POPI   C2B  446  16.023   4.497   9.017 -0.0658  0.2249 -0.2907
   32POPI   C3B  447  16.038   4.498   8.626  0.0646  0.2472 -0.0067
   32POPI   C4B  448  16.111   4.398   8.232  0.1790  0.0373 -0.1866
   33POPI    C1  449   8.336   5.618  10.272  0.2547 -0.0280 -0.1401
   33POPI    C2  450   8.217   5.489   9.912 -0.0260 -0.0692 -0.0350
   33POPI    C3  451   8.141   5.270  10.239  0.2060 -0.0204  0.0537
   33POPI   PO4  452   8.258   5.906  10.179  0.1769  0.1976 -0.0612
   33POPI   GL1  453   8.483   5.969   9.799  0.2475  0.0904  0.0400
   33POPI   GL2  454   8.175   5.808   9.590 -0.2224 -0.1134 -0.4367
   33POPI   C1A  455   8.634   5.998   9.395 -0.0479 -0.2012  0.1817
   33POPI   D2A  456   8.720   6.003   8.971 -0.0231 -0.0119 -0.0824
   33POPI   C3A  457   8.530   6.018   8.575  0.3773 -0.0566 -0.2223
   33POPI   C4A  458   8.121   6.057   8.374  0.3463 -0.1385  0.0836
   33POPI   C1B  459   8.236   5.786   9.176  0.2823 -0.0200 -0.1897
   33POPI   C2B  460   8.138   5.777   8.783 -0.0083  0.0911 -0.2947
   33POPI   C3B  461   7.746   5.750   8.648 -0.1177 -0.2409 -0.1028
   33POPI   C4B  462   7.581   5.879   8.220  0.0888 -0.0379 -0.2074
   34POPI    C1  463   3.611   2.569  10.519  0.0547 -0.0020 -0.0632
   34POPI    C2  464   3.797   2.883  10.684 -0.0652 -0.0078  0.0849
   34POPI    C3  465   3.928   2.512  10.757 -0.1033 -0.0090  0.1480
   34POPI   PO4  466   3.595   2.536  10.241 -0.0739  0.0440  0.1764
   34POPI   GL1  467   3.577   2.581   9.837  0.0340  0.2159  0.1510
   34POPI   GL2  468   3.590   2.311   9.628 -0.1528  0.0754 -0.0899
   34POPI   C1A  469   3.948   2.785   9.801 -0.1470  0.1059 -0.0434
   34POPI   D2A  470   4.292   2.678   9.735 -0.2987 -0.2761  0.3240
   34POPI   C3A  471   4.558   2.804   9.435  0.0296 -0.2927  0.0150
   34POPI   C4A  472   4.525   3.012   9.106  0.1413  0.0526 -0.0319
   34POPI   C1B  473   3.576   2.394   9.284  0.2711 -0.0424  0.2283
   34POPI   C2B  474   3.536   2.564   8.844  0.0150 -0.2313 -0.1940
   34POPI   C3B  475   3.421   2.881   8.532  0.2246 -0.2614 -0.0164
   34POPI   C4B  476   3.567   3.257   8.449 -0.0358  0.2329  0.0704
   35POPI    C1  477  13.792   2.330  10.122  0.2747  0.2271 -0.1387
   35POPI    C2  478  13.635   2.595  10.378  0.2612 -0.2804  0.3984
   35POPI    C3  479  13.984   2.418  10.462  0.1847 -0.5650  0.1372
   35POPI   PO4  480  13.646   2.370   9.918  0.0200  0.1559 -0.0851
   35POPI   GL1  481  13.394   2.330   9.634  0.0641 -0.0318  0.0014
   35POPI   GL2  482  13.446   2.576   9.423  0.1593 -0.0814 -0.2448
   35POPI   C1A  483  13.341   2.194   9.148 -0.2238 -0.2419  0.0340
   35POPI   D2A  484  13.189   2.158   8.731 -0.0306  0.0119 -0.1887
   35POPI   C3A  485  13.490   2.156   8.503 -0.2474 -0.1227 -0.0665
   35POPI   C4A  486  13.892   1.885   8.475 -0.0310 -0.0503  0.1040
   35POPI   C1B  487  13.308   2.704   9.013 -0.2249  0.1025 -0.3484
   35POPI   C2B  488  13.283   2.676   8.586 -0.0918 -0.0856  0.0961
   35POPI   C3B  489  13.126   2.420   8.272 -0.0911  0.0922 -0.1989
   35POPI   C4B  490  13.313   2.380   7.822 -0.0098 -0.0206 -0.0862
   36POPI    C1  491  13.240  12.953  11.237  0.4025 -0.1131 -0.2025
   36POPI    C2  492  13.571  13.053  11.438  0.2905  0.0064 -0.0762
   36POPI    C3  493  13.288  13.328  11.368  0.0515 -0.1812  0.1365
   36POPI   PO4  494  13.354  12.861  11.049 -0.1199  0.0472 -0.0420
   36POPI   GL1  495  13.322  12.862  10.748  0.0235 -0.0917 -0.0405
   36POPI   GL2  496  13.570  12.927  10.483 -0.1031 -0.0781  0.0717
   36POPI   C1A  497  13.130  12.479  10.587  0.3743 -0.0714  0.1623
   36POPI   D2A  498  12.949  12.489  10.250 -0.0180 -0.0515  0.1430
   36POPI   C3A  499  13.067  12.189   9.954  0.0916 -0.0694  0.1113
   36POPI   C4A  500  13.187  12.019   9.586  0.0228  0.1424  0.0933
   36POPI   C1B  501  13.476  12.607  10.203 -0.1576 -0.1641 -0.0373
   36POPI   C2B  502  13.523  12.337   9.909  0.1719  0.0672 -0.5768
   36POPI   C3B  503  13.667  12.254   9.551 -0.1099 -0.1304 -0.2403
   36POPI   C4B  504  13.649  12.284   9.174  0.0897  0.1161  0.0891
   37POPI    C1  505  13.110   3.582  10.480  0.0164 -0.1682  0.0593
   37POPI    C2  506  13.471   3.631  10.645 -0.0292  0.0102  0.1079
   37POPI    C3  507  13.142   3.711  10.858 -0.0946 -0.0280  0.0215
   37POPI   PO4  508  13.165   3.446  10.253  0.0476  0.0966 -0.1521
   37POPI   GL1  509  12.897   3.189  10.017  0.1741 -0.1652 -0.0001
   37POPI   GL2  510  13.001   3.112   9.769 -0.3443 -0.1421  0.3269
   37POPI   C1A  511  12.584   3.465   9.702  0.1641  0.2798 -0.0267
   37POPI   D2A  512  12.354   3.684   9.411 -0.1528  0.0290  0.1776
   37POPI   C3A  513  12.345   3.859   8.952 -0.0832  0.0183 -0.2883
   37POPI   C4A  514  12.318   4.011   8.590  0.0755 -0.4719  0.0385
   37POPI   C1B  515  13.149   3.034   9.423  0.2753  0.0496 -0.3240
   37POPI   C2B  516  13.124   3.187   9.138 -0.3876  0.1926 -0.6680
   37POPI   C3B  517  13.141   3.220   8.672 -0.1440 -0.3537  0.1912
   37POPI   C4B  518  13.065   3.591   8.358  0.0169 -0.0500  0.2141
   38POPI    C1  519   5.768  16.694  10.306  0.3757  0.1048  0.3438
   38POPI    C2  520   5.489  16.509  10.524  0.1354  0.1358  0.0686
   38POPI    C3  521   5.499  16.908  10.510  0.2314  0.1355  0.1244
   38POPI   PO4  522   5.763  16.614  10.054 -0.1861 -0.0025 -0.1882
   38POPI   GL1  523   5.632  16.638   9.723 -0.0582  0.2504 -0.1029
   38POPI   GL2  524   5.705  16.295   9.712 -0.0052 -0.0296 -0.0771
   38POPI   C1A  525   5.926  16.787   9.469 -0.1099 -0.0136 -0.2198
   38POPI   D2A  526   6.083  17.046   9.199  0.0424 -0.0839  0.1894
   38POPI   C3A  527   6.412  17.288   9.374 -0.0455 -0.1005 -0.0365
   38POPI   C4A  528   6.883  17.444   9.454 -0.0350  0.2727 -0.0782
   38POPI   C1B  529   5.567  16.416   9.284  0.1530  0.3525  0.0543
   38POPI   C2B  530   5.874  16.532   9.016 -0.1376 -0.0832 -0.2108
   38POPI   C3B  531   6.111  16.892   8.748 -0.1354 -0.1773  0.1272
   38POPI   C4B  532   6.119  17.146   8.470 -0.2379  0.0961  0.0429
   39POPI    C1  533   3.649  17.961   9.914 -0.0259 -0.1348 -0.0425
   39POPI    C2  534   3.572  18.074  10.290  0.0380 -0.2435  0.0038
   39POPI    C3  535   3.642  17.689  10.207  0.1133 -0.2070 -0.1050
   39POPI   PO4  536   3.459  18.108   9.793 -0.0330 -0.0014  0.1534
   39POPI   GL1  537   3.468  18.444   9.597  0.1363 -0.2299 -0.2768
   39POPI   GL2  538   3.192  18.270   9.342 -0.1732 -0.3086 -0.0798
   39POPI   C1A  539   3.599  18.472   9.136  0.1195 -0.0977 -0.0355
   39POPI   D2A  540   3.550  18.364   8.657  0.2514 -0.3713  0.1561
   39POPI   C3A  541   3.616  18.152   8.255  0.1146  0.2937  0.2097
   39POPI   C4A  542   3.598  17.798   8.008 -0.0868  0.2747  0.0163
   39POPI   C1B  543   3.074  18.299   8.887 -0.2298  0.1291  0.2667
   39POPI   C2B  544   3.109  18.303   8.392 -0.0776 -0.2249 -0.3107
   39POPI   C3B  545   2.822  18.086   8.076  0.0029 -0.0062  0.2356
   39POPI   C4B  546   2.658  18.136   7.536 -0.2747 -0.2015 -0.0139
   40POPI    C1  547  16.885  13.076  10.854  0.1254 -0.0952 -0.2743
   40POPI    C2  548  17.248  13.156  10.706  0.2049 -0.1175 -0.0941
   40POPI    C3  549  17.177  13.202  11.097 -0.0205  0.0012 -0.1473
   40POPI   PO4  550  16.745  13.106  10.676 -0.3557 -0.0524 -0.1854
   40POPI   GL1  551  16.611  13.079  10.255 -0.1010 -0.2282  0.0556
   40POPI   GL2  552  16.302  13.010  10.381 -0.0852  0.1078 -0.1965
   40POPI   C1A  553  16.561  12.961   9.896 -0.2100 -0.2493 -0.5596
   40POPI   D2A  554  16.527  13.096   9.538 -0.0131 -0.0960  0.0488
   40POPI   C3A  555  16.695  13.299   9.299 -0.0395  0.0700  0.3140
   40POPI   C4A  556  16.813  13.393   8.917  0.1503 -0.1196 -0.0607
   40POPI   C1B  557  15.913  12.945  10.053  0.1057  0.1580  0.1520
   40POPI   C2B  558  15.872  12.799   9.612  0.2464  0.0010  0.4350
   40POPI   C3B  559  16.225  12.723   9.405 -0.1063 -0.1234 -0.0575
   40POPI   C4B  560  16.493  12.679   9.059 -0.0040  0.2564 -0.0083
   41POPI    C1  561  11.061  10.612  10.871  0.1423  0.0891  0.2094
   41POPI    C2  562  11.207  10.701  11.233  0.1024  0.2293  0.1919
   41POPI    C3  563  10.838  10.818  11.132  0.0825  0.1193  0.1350
   41POPI   PO4  564  11.295  10.700  10.668  0.0037  0.2099  0.1828
   41POPI   GL1  565  11.259  10.969  10.304  0.4776  0.0479  0.1762
   41POPI   GL2  566  11.192  11.261  10.377 -0.0440  0.0820 -0.1634
   41POPI   C1A  567  11.303  11.110   9.914 -0.0792 -0.0203 -0.2301
   41POPI   D2A  568  11.368  11.075   9.605 -0.1320  0.0078  0.1970
   41POPI   C3A  569  11.236  11.346   9.200 -0.1188  0.2729  0.2244
   41POPI   C4A  570  10.927  11.417   8.939 -0.1980 -0.1530 -0.0786
   41POPI   C1B  571  10.922  11.400  10.113  0.0011 -0.1326 -0.0971
   41POPI   C2B  572  10.877  11.523   9.678 -0.1187 -0.0074 -0.1479
   41POPI   C3B  573  10.734  11.658   9.339  0.1494  0.2823  0.0434
   41POPI   C4B  574  10.811  12.142   9.198  0.1264  0.0456 -0.1141
   42POPI    C1  575   5.232  12.804  10.480  0.1807  0.0136  0.0141
   42POPI    C2  576   5.559  12.955  10.654  0.0289  0.1714  0.1686
   42POPI    C3  577   5.198  13.089  10.759 -0.0800  0.0903 -0.0925
   42POPI   PO4  578   5.271  12.528  10.540 -0.0281 -0.0884 -0.1532
   42POPI   GL1  579   5.354  12.359  10.082 -0.3180 -0.1222 -0.1282
   42POPI   GL2  580   5.050  12.511  10.019 -0.2224  0.1298  0.0968
   42POPI   C1A  581   5.686  12.493   9.768  0.0056  0.1980 -0.0894
   42POPI   D2A  582   5.703  12.346   9.325  0.1400  0.0899  0.2500
   42POPI   C3A  583   5.688  12.110   8.920  0.0560 -0.0557  0.1898
   42POPI   C4A  584   6.057  11.926   8.755 -0.0967  0.2568 -0.1322
   42POPI   C1B  585   5.174  12.582   9.598  0.2197  0.2544  0.0055
   42POPI   C2B  586   5.267  12.535   9.171 -0.1822 -0.2719  0.3546
   42POPI   C3B  587   5.204  12.195   8.780 -0.0994  0.1035 -0.1774
   42POPI   C4B  588   5.274  11.836   8.532 -0.0173 -0.1895 -0.0189
   43POPI    C1  589   1.149   4.356  10.421  0.0812 -0.1912 -0.1302
   43POPI    C2  590   0.777   4.236  10.336  0.0022 -0.0683  0.0378
   43POPI    C3  591   0.956   4.112  10.672  0.0301  0.0480  0.0664
   43POPI   PO4  592   1.118   4.611  10.338 -0.2489 -0.2870 -0.3450
   43POPI   GL1  593   1.355   4.557   9.917  0.4764 -0.2146  0.3076
   43POPI   GL2  594   1.676   4.710   9.868  0.2223  0.0465  0.1306
   43POPI   C1A  595   1.510   4.676   9.436 -0.1291 -0.1162  0.3888
   43POPI   D2A  596   1.440   4.571   9.056 -0.1224 -0.1529 -0.1934
   43POPI   C3A  597   1.571   4.888   8.710 -0.1036 -0.0178  0.3002
   43POPI   C4A  598   1.581   5.177   8.357 -0.4037  0.2456 -0.0575
   43POPI   C1B  599   1.876   5.039   9.581  0.2299  0.2968  0.0931
   43POPI   C2B  600   1.899   4.988   9.067 -0.0775  0.3452 -0.2472
   43POPI   C3B  601   2.177   5.002   8.671  0.3840  0.0362 -0.0957
   43POPI   C4B  602   2.127   4.962   8.272  0.0517  0.0922  0.2496
   44POPI    C1  603   9.445   0.632  10.264 -0.2135  0.0388  0.2448
   44POPI    C2  604   9.145   0.674  10.526 -0.1462 -0.1293  0.3508
   44POPI    C3  605   9.516   0.601  10.656 -0.0538  0.0979  0.2213
   44POPI   PO4  606   9.338   0.478  10.103  0.0129  0.3684  0.1029
   44POPI   GL1  607   9.099   0.216   9.700  0.1074 -0.1727  0.1420
   44POPI   GL2  608   9.133  -0.045   9.825  0.3257  0.2245  0.1224
   44POPI   C1A  609   9.070   0.172   9.210 -0.1218 -0.1146 -0.0402
   44POPI   D2A  610   9.064   0.192   8.803  0.1493 -0.0817 -0.1952
   44POPI   C3A  611   9.180  -0.143   8.594  0.1748  0.2288  0.1796
   44POPI   C4A  612   9.348  -0.297   8.265  0.1833  0.2770 -0.2019
   44POPI   C1B  613   8.942  -0.295   9.492  0.2457 -0.1617 -0.0200
   44POPI   C2B  614   8.685  -0.509   9.285  0.0758 -0.1519 -0.1725
   44POPI   C3B  615   8.575  -0.602   8.963 -0.2887  0.1866  0.3271
   44POPI   C4B  616   8.376  -1.015   8.719  0.0557 -0.2060  0.3049
   45POPI    C1  617   2.265  16.396  10.301  0.1940  0.0568 -0.0562
   45POPI    C2  618   2.226  16.626   9.976  0.1547  0.3538  0.1546
   45POPI    C3  619   1.993  16.689  10.295  0.0979 -0.0248  0.1927
   45POPI   PO4  620   2.264  16.178  10.158 -0.1644  0.2291 -0.1620
   45POPI   GL1  621   2.175  16.148   9.748 -0.1508  0.0054  0.0962
   45POPI   GL2  622   2.049  15.802   9.573  0.1131  0.2636 -0.2023
   45POPI   C1A  623   2.025  16.454   9.473  0.0825  0.3591  0.1236
   45POPI   D2A  624   1.642  16.677   9.382  0.0032 -0.1200  0.2479
   45POPI   C3A  625   1.794  16.899   8.936 -0.0827 -0.1135 -0.0873
   45POPI   C4A  626   2.059  16.957   8.563 -0.0987  0.0440 -0.1556
   45POPI   C1B  627   2.071  15.791   9.111  0.1461  0.1624  0.0590
   45POPI   C2B  628   2.058  16.001   8.686 -0.1782 -0.2811 -0.0179
   45POPI   C3B  629   2.345  15.949   8.264  0.2639  0.2918 -0.0363
   45POPI   C4B  630   2.550  16.162   7.915 -0.3630 -0.1676 -0.1813
   46POPI    C1  631   0.963  12.386  10.423  0.1774 -0.0233 -0.0427
   46POPI    C2  632   0.764  12.144  10.671  0.1353 -0.0123 -0.0654
   46POPI    C3  633   1.156  12.092  10.612  0.1033 -0.1503 -0.1624
   46POPI   PO4  634   0.718  12.452  10.240 -0.0138 -0.1580 -0.1892
   46POPI   GL1  635   0.401  12.253   9.994  0.0620 -0.3316 -0.1678
   46POPI   GL2  636   0.496  11.996   9.881 -0.1248 -0.1959  0.0915
   46POPI   C1A  637   0.391  12.474   9.536  0.3649  0.1433  0.0621
   46POPI   D2A  638   0.237  12.468   9.111  0.2643  0.0863  0.1900
   46POPI   C3A  639   0.122  12.165   8.897  0.3395 -0.0141 -0.1422
   46POPI   C4A  640   0.095  12.164   8.479 -0.2354 -0.0751 -0.0049
   46POPI   C1B  641   0.553  11.632   9.603  0.1517  0.1954  0.0525
   46POPI   C2B  642   0.766  11.611   9.100  0.2377  0.1482 -0.2032
   46POPI   C3B  643   0.881  11.533   8.734 -0.0488 -0.2612  0.0106
   46POPI   C4B  644   1.050  11.567   8.370  0.1468 -0.3840 -0.1450
   47POPI    C1  645  12.700  16.787  10.990 -0.3048  0.0590 -0.0691
   47POPI    C2  646  12.361  16.631  10.846 -0.0369 -0.3809 -0.2437
   47POPI    C3  647  12.553  16.449  11.146 -0.0617 -0.0164 -0.0000
   47POPI   PO4  648  12.807  16.854  10.687 -0.0230  0.2532  0.2459
   47POPI   GL1  649  13.051  17.096  10.357 -0.2162 -0.2158  0.2987
   47POPI   GL2  650  12.776  17.239  10.378 -0.1000  0.1736  0.0536
   47POPI   C1A  651  13.286  17.112   9.971 -0.0082 -0.0180  0.1817
   47POPI   D2A  652  13.368  17.274   9.617  0.0535 -0.2407 -0.0069
   47POPI   C3A  653  13.340  16.984   9.275 -0.2129 -0.0626  0.0971
   47POPI   C4A  654  13.251  16.773   8.909 -0.0696  0.0074 -0.0563
   47POPI   C1B  655  12.762  17.148   9.931 -0.0650 -0.1281 -0.1463
   47POPI   C2B  656  12.786  17.115   9.478  0.3949  0.0879 -0.0318
   47POPI   C3B  657  12.763  17.176   9.057 -0.0773 -0.2389 -0.3582
   47POPI   C4B  658  12.805  17.058   8.670 -0.0740 -0.1253 -0.1507
   48POPI    C1  659   1.748   3.421  10.093  0.0436 -0.0861  0.0466
   48POPI    C2  660   1.370   3.397  10.220  0.0294  0.2335  0.0732
   48POPI    C3  661   1.657   3.190  10.406 -0.1301 -0.0066  0.0560
   48POPI   PO4  662   1.787   3.265   9.893  0.0064 -0.1500  0.2246
   48POPI   GL1  663   1.895   3.415   9.544 -0.0443  0.0464 -0.0771
   48POPI   GL2  664   1.673   3.517   9.349 -0.2069 -0.0964  0.2508
   48POPI   C1A  665   2.198   3.592   9.286 -0.1612  0.0782 -0.0967
   48POPI   D2A  666   2.335   3.839   8.936  0.2283  0.1395 -0.0018
   48POPI   C3A  667   2.297   4.164   8.877 -0.1131  0.2511  0.0569
   48POPI   C4A  668   2.441   4.591   8.793 -0.2933  0.1138  0.1781
   48POPI   C1B  669   1.670   3.344   8.996  0.0113 -0.0350  0.0923
   48POPI   C2B  670   1.762   3.194   8.479 -0.2274 -0.0142 -0.1351
   48POPI   C3B  671   1.751   3.560   8.204 -0.1093 -0.1283 -0.3160
   48POPI   C4B  672   2.078   3.663   7.865 -0.1123  0.1701 -0.0845
   49POPI    C1  673  12.280   7.362  10.722 -0.1626 -0.0929  0.3163
   49POPI    C2  674  12.305   6.974  10.626  0.0227  0.0089 -0.0665
   49POPI    C3  675  12.584   7.140  10.860  0.0016 -0.0639  0.0106
   49POPI   PO4  676  12.233   7.512  10.480  0.0783 -0.0998 -0.3018
   49POPI   GL1  677  12.317   7.799  10.224  0.1499 -0.0110  0.1162
   49POPI   GL2  678  12.440   7.578   9.991 -0.1479  0.2822  0.2348
   49POPI   C1A  679  12.225   8.121   9.894 -0.3586 -0.1547  0.2700
   49POPI   D2A  680  12.081   8.455   9.593  0.1367  0.1692  0.0610
   49POPI   C3A  681  12.191   8.399   9.161  0.0014  0.0022  0.2235
   49POPI   C4A  682  12.605   8.353   8.857  0.0251  0.0168 -0.2269
   49POPI   C1B  683  12.630   7.630   9.600  0.0156  0.1281 -0.2611
   49POPI   C2B  684  12.706   7.649   9.235  0.0867 -0.0055  0.0625
   49POPI   C3B  685  12.754   7.666   8.810  0.1149 -0.4406 -0.2226
   49POPI   C4B  686  12.643   7.884   8.559 -0.2868 -0.1913  0.0539
   50POPI    C1  687  14.452   6.957  10.633  0.1194 -0.0497  0.1322
   50POPI    C2  688  14.685   6.818  10.338  0.1000  0.1102  0.0401
   50POPI    C3  689  14.725   6.675  10.710  0.0470 -0.1744 -0.0612
   50POPI   PO4  690  14.370   7.244  10.545 -0.1879 -0.2460 -0.0533
   50POPI   GL1  691  14.466   7.509  10.088 -0.1075  0.3422  0.0398
   50POPI   GL2  692  14.504   7.166  10.046 -0.0817  0.0991  0.0329
   50POPI   C1A  693  14.282   7.810   9.972 -0.1940  0.3023 -0.1765
   50POPI   D2A  694  14.271   8.108   9.840  0.1535  0.0417  0.0781
   50POPI   C3A  695  14.193   8.189   9.412  0.0573 -0.1206 -0.0617
   50POPI   C4A  696  14.005   8.262   9.027  0.1196  0.0268  0.1558
   50POPI   C1B  697  14.482   7.390   9.639 -0.0845  0.4462 -0.1363
   50POPI   C2B  698  14.520   7.302   9.151 -0.1488 -0.1699 -0.2103
   50POPI   C3B  699  14.462   7.369   8.715  0.0294  0.2720  0.0753
   50POPI   C4B  700  14.575   7.777   8.446  0.0994 -0.3196 -0.1006
   51POPI    C1  701  15.546   3.810  10.303  0.1075 -0.2081  0.0647
   51POPI    C2  702  15.622   3.565  10.610  0.2758 -0.1433  0.0763
   51POPI    C3  703  15.640   3.961  10.662  0.0034 -0.1268  0.0581
   51POPI   PO4  704  15.696   3.630  10.138 -0.0952  0.1794 -0.2425
   51POPI   GL1  705  15.731   3.424   9.698  0.0371 -0.0923  0.2648
   51POPI   GL2  706  15.414   3.512   9.739 -0.1226 -0.0233  0.1120
   51POPI   C1A  707  15.803   3.069   9.508  0.3320  0.3338 -0.1508
   51POPI   D2A  708  15.804   2.752   9.221  0.0481 -0.1424 -0.0312
   51POPI   C3A  709  16.136   2.662   8.958  0.0570  0.0566 -0.1234
   51POPI   C4A  710  16.528   2.525   8.683  0.2430 -0.0605  0.1109
   51POPI   C1B  711  15.385   3.334   9.278  0.1717 -0.1943  0.0434
   51POPI   C2B  712  15.153   3.368   8.960 -0.0766  0.0415 -0.0327
   51POPI   C3B  713  15.060   3.164   8.639  0.0572  0.1744  0.0373
   51POPI   C4B  714  14.753   2.916   8.299  0.3097 -0.2435  0.0730
   52POPI    C1  715  15.431  12.879  10.929  0.0675  0.1451 -0.0870
   52POPI    C2  716  15.365  12.800  11.315  0.0727  0.0683 -0.1018
   52POPI    C3  717  15.463  13.170  11.201 -0.0427  0.1170 -0.0438
   52POPI   PO4  718  15.316  12.799  10.833  0.2678  0.0287 -0.0627
   52POPI   GL1  719  15.133  12.936  10.559  0.0505 -0.1280  0.4595
   52POPI   GL2  720  14.848  13.108  10.652 -0.0717 -0.1765  0.1180
   52POPI   C1A  721  15.224  13.210  10.177  0.2030  0.1154 -0.0636
   52POPI   D2A  722  15.272  13.706  10.002  0.0689 -0.1921  0.4872
   52POPI   C3A  723  15.082  13.791   9.583 -0.3177  0.0511 -0.0142
   52POPI   C4A  724  14.956  13.711   9.237  0.3868 -0.0667 -0.1121
   52POPI   C1B  725  14.501  13.140  10.314  0.1212 -0.1301  0.1127
   52POPI   C2B  726  14.330  12.937   9.980  0.2310  0.4673  0.1689
   52POPI   C3B  727  14.198  12.939   9.565  0.1192 -0.1858 -0.0821
   52POPI   C4B  728  14.109  13.115   9.278  0.0535  0.0755  0.1155
   53POPI    C1  729   0.485  16.940  10.232 -0.0916  0.1429  0.0981
   53POPI    C2  730   0.215  17.222  10.318 -0.1416  0.0832  0.1379
   53POPI    C3  731   0.163  16.848  10.450 -0.0887  0.0491  0.0632
   53POPI   PO4  732   0.613  17.021  10.028 -0.1040 -0.1566 -0.1119
   53POPI   GL1  733   0.807  16.983   9.587  0.0903 -0.1991 -0.1107
   53POPI   GL2  734   0.523  17.020   9.598  0.0042 -0.0160 -0.0745
   53POPI   C1A  735   0.903  17.061   9.214 -0.0385 -0.0951  0.0771
   53POPI   D2A  736   0.847  16.916   8.861  0.0036  0.3094 -0.1451
   53POPI   C3A  737   0.916  16.762   8.438 -0.1340 -0.0729 -0.0512
   53POPI   C4A  738   0.899  16.939   8.103  0.0508  0.0694  0.2732
   53POPI   C1B  739   0.450  17.043   9.091  0.1279 -0.0731 -0.2017
   53POPI   C2B  740   0.402  16.849   8.691  0.0141 -0.0939 -0.1973
   53POPI   C3B  741   0.194  16.737   8.257 -0.1822  0.0750  0.1023
   53POPI   C4B  742  -0.089  16.647   7.977 -0.1636 -0.2227 -0.0685
   54POPI    C1  743   9.875   3.227  10.504  0.2615 -0.0596 -0.1000
   54POPI    C2  744  10.069   3.575  10.542  0.1159 -0.0143  0.2641
   54POPI    C3  745   9.687   3.571  10.422  0.1887 -0.0681  0.0296
   54POPI   PO4  746  10.001   3.012  10.315 -0.1194 -0.1635  0.1688
   54POPI   GL1  747  10.005   2.942   9.932 -0.0011  0.1739 -0.3225
   54POPI   GL2  748  10.296   2.974   9.792  0.0018 -0.2077 -0.0401
   54POPI   C1A  749   9.774   2.859   9.606 -0.1015  0.0460  0.0115
   54POPI   D2A  750   9.684   2.536   9.253  0.0130  0.0575 -0.1284
   54POPI   C3A  751   9.785   2.564   8.848 -0.0224 -0.0717 -0.2901
   54POPI   C4A  752   9.871   2.562   8.409  0.0619  0.0092  0.1232
   54POPI   C1B  753  10.212   3.039   9.330  0.2250  0.1535  0.2174
   54POPI   C2B  754  10.076   3.182   8.970 -0.0143  0.2453  0.1074
   54POPI   C3B  755  10.223   3.091   8.596  0.1830  0.0081 -0.0244
   54POPI   C4B  756  10.077   2.950   8.214  0.2070 -0.1475 -0.0684
   55POPI    C1  757  16.311  10.489  10.798  0.0878  0.0097  0.0561
   55POPI    C2  758  16.041  10.260  10.612  0.4079 -0.2627 -0.0842
   55POPI    C3  759  16.138  10.185  10.993  0.1495 -0.0434  0.0283
   55POPI   PO4  760  16.500  10.533  10.468  0.2168 -0.0579  0.1455
   55POPI   GL1  761  16.495  10.609  10.114  0.0803  0.1283 -0.0573
   55POPI   GL2  762  16.377  10.904  10.008  0.1445 -0.0339 -0.1967
   55POPI   C1A  763  16.637  10.357   9.727 -0.0671  0.4119 -0.2642
   55POPI   D2A  764  16.682  10.275   9.306  0.1302  0.0773 -0.0437
   55POPI   C3A  765  16.482  10.286   8.852  0.0475 -0.3205 -0.4972
   55POPI   C4A  766  16.200  10.252   8.636 -0.1420  0.1795 -0.0699
   55POPI   C1B  767  16.293  10.887   9.584 -0.0203 -0.1119 -0.0128
   55POPI   C2B  768  16.330  10.750   9.137 -0.2183  0.1889  0.0206
   55POPI   C3B  769  16.457  10.839   8.756 -0.0279  0.1335 -0.1378
   55POPI   C4B  770  16.510  11.146   8.367 -0.1376 -0.2130  0.0486
   56POPI    C1  771   2.344  17.533  10.029 -0.0357 -0.0603 -0.1125
   56POPI    C2  772   2.246  17.886  10.190 -0.1551 -0.1207 -0.0521
   56POPI    C3  773   2.599  17.718  10.276 -0.0757  0.0083 -0.1223
   56POPI   PO4  774   2.284  17.538   9.781  0.0356  0.1552  0.0145
   56POPI   GL1  775   2.107  17.581   9.358 -0.0143 -0.1424  0.2014
   56POPI   GL2  776   2.171  17.918   9.478  0.0192 -0.0905  0.1689
   56POPI   C1A  777   1.934  17.410   8.881  0.0066  0.0497 -0.1237
   56POPI   D2A  778   1.912  17.416   8.557 -0.0206  0.1707  0.0570
   56POPI   C3A  779   1.652  17.152   8.312  0.0079  0.2836  0.0740
   56POPI   C4A  780   1.374  17.155   7.969  0.2220 -0.2080 -0.0375
   56POPI   C1B  781   2.396  17.953   9.043  0.0021  0.3697  0.5408
   56POPI   C2B  782   2.342  17.932   8.630 -0.2242 -0.0883 -0.1613
   56POPI   C3B  783   2.327  18.030   8.229 -0.0258  0.0351  0.0960
   56POPI   C4B  784   2.325  18.031   7.904 -0.1637  0.2598 -0.0294
   57POPI    C1  785  15.555  17.291  10.678  0.1822  0.1635  0.0455
   57POPI    C2  786  15.661  17.196  11.052  0.0259  0.1148  0.0781
   57POPI    C3  787  15.315  17.385  10.984  0.0645  0.1440 -0.0399
   57POPI   PO4  788  15.532  17.079  10.475 -0.0643 -0.0511 -0.1329
   57POPI   GL1  789  15.250  17.002  10.237 -0.3944  0.0481 -0.1968
   57POPI   GL2  790  14.880  16.956  10.289 -0.0820 -0.0125  0.0616
   57POPI   C1A  791  15.287  17.006   9.841  0.1319 -0.2487  0.0753
   57POPI   D2A  792  15.315  17.026   9.450  0.3363 -0.1914 -0.0770
   57POPI   C3A  793  15.099  16.663   9.227  0.0169  0.0131 -0.1921
   57POPI   C4A  794  14.993  16.338   8.925  0.3684  0.1302  0.1093
   57POPI   C1B  795  14.793  16.834   9.927  0.3320 -0.0199 -0.1375
   57POPI   C2B  796  14.706  16.643   9.486  0.0901  0.4404 -0.1100
   57POPI   C3B  797  14.588  16.593   9.063  0.0949 -0.1718  0.1041
   57POPI   C4B  798  14.547  16.782   8.712 -0.1979 -0.1194 -0.0168
   58POPI    C1  799   7.992  15.959  10.805 -0.0729 -0.3867 -0.0486
   58POPI    C2  800   7.622  15.915  10.949 -0.0251 -0.0633  0.1843
   58POPI    C3  801   7.917  15.681  11.082 -0.0418  0.0329  0.3946
   58POPI   PO4  802   7.970  16.212  10.690  0.1846  0.2899 -0.0585
   58POPI   GL1  803   8.091  16.338  10.413 -0.0010  0.1921 -0.1349
   58POPI   GL2  804   8.001  16.091  10.200 -0.0356  0.2313  0.2280
   58POPI   C1A  805   7.864  16.655  10.232  0.4472  0.0030  0.0737
   58POPI   D2A  806   7.671  17.063  10.047 -0.1055  0.1024  0.2280
   58POPI   C3A  807   7.805  17.000   9.594 -0.0115 -0.1740  0.0175
   58POPI   C4A  808   7.584  16.935   9.196  0.3413 -0.0124  0.0043
   58POPI   C1B  809   7.775  15.986   9.925  0.0594 -0.0994 -0.1592
   58POPI   C2B  810   7.845  16.036   9.465 -0.1269  0.0235 -0.1782
   58POPI   C3B  811   7.880  15.852   9.046 -0.3044 -0.2545  0.1505
   58POPI   C4B  812   8.188  15.838   8.693 -0.1317 -0.0419  0.3404
   59POPI    C1  813   7.774   3.948  10.262  0.2285 -0.2853  0.2944
   59POPI    C2  814   8.092   4.179  10.190 -0.1679  0.1852 -0.0087
   59POPI    C3  815   7.805   4.305  10.439 -0.2573 -0.1072  0.0394
   59POPI   PO4  816   7.745   3.854  10.042 -0.1775  0.0851 -0.0327
   59POPI   GL1  817   7.753   3.737   9.599 -0.2252  0.0385  0.0601
   59POPI   GL2  818   7.799   4.032   9.558  0.1643 -0.1576  0.0414
   59POPI   C1A  819   7.999   3.617   9.220 -0.0584 -0.1136  0.1638
   59POPI   D2A  820   8.028   3.481   8.807 -0.0084  0.2309 -0.0190
   59POPI   C3A  821   8.149   3.612   8.299  0.4012  0.2078 -0.2152
   59POPI   C4A  822   8.302   3.630   7.907 -0.0169 -0.1928 -0.2482
   59POPI   C1B  823   8.095   4.128   9.096 -0.0124  0.3884  0.1807
   59POPI   C2B  824   8.337   3.897   8.827 -0.1316 -0.2132 -0.1926
   59POPI   C3B  825   8.528   3.544   8.640 -0.1872  0.0771 -0.1429
   59POPI   C4B  826   8.482   3.279   8.187  0.1925 -0.2197 -0.1993
   60POPI    C1  827   1.598   7.681  10.849 -0.0348  0.1249 -0.1185
   60POPI    C2  828   1.202   7.739  10.830 -0.1025 -0.2916 -0.0853
   60POPI    C3  829   1.393   7.778  11.179 -0.0706  0.1397 -0.1449
   60POPI   PO4  830   1.589   7.710  10.518 -0.0474 -0.3534 -0.0605
   60POPI   GL1  831   1.658   7.831  10.076  0.2776  0.2867 -0.0355
   60POPI   GL2  832   1.435   7.650   9.905  0.2985  0.1830 -0.0434
   60POPI   C1A  833   1.759   7.984   9.627  0.1157 -0.2744 -0.0385
   60POPI   D2A  834   1.528   8.018   9.326 -0.2315  0.0645  0.2110
   60POPI   C3A  835   1.273   8.426   9.311  0.0526  0.2104 -0.0413
   60POPI   C4A  836   1.139   8.791   9.344 -0.0562  0.2944 -0.2730
   60POPI   C1B  837   1.495   7.537   9.466 -0.0549 -0.0526 -0.4510
   60POPI   C2B  838   1.587   7.570   9.070  0.0397  0.1164 -0.1896
   60POPI   C3B  839   1.431   7.425   8.710  0.2656  0.1277 -0.1225
   60POPI   C4B  840   1.117   7.399   8.527 -0.0885 -0.0173  0.1663
   61POPI    C1  841   5.050   0.576  10.258  0.3788  0.0795  0.1678
   61POPI    C2  842   4.818   0.892  10.336  0.0320 -0.1075 -0.0786
   61POPI    C3  843   5.067   0.753  10.616 -0.1076  0.1336  0.1711
   61POPI   PO4  844   5.170   0.647  10.067 -0.0001 -0.4364 -0.1398
   61POPI   GL1  845   4.927   0.725   9.567  0.1105 -0.2300  0.0535
   61POPI   GL2  846   5.233   0.528   9.513 -0.0618  0.0473  0.1611
   61POPI   C1A  847   4.851   0.923   9.166  0.1113 -0.0800  0.1525
   61POPI   D2A  848   4.978   1.103   8.800  0.2455  0.1877 -0.0930
   61POPI   C3A  849   4.781   0.932   8.413 -0.1164  0.1005  0.1333
   61POPI   C4A  850   5.052   0.959   8.080 -0.3785 -0.0084  0.2965
   61POPI   C1B  851   5.087   0.480   9.154  0.1846 -0.0192  0.1091
   61POPI   C2B  852   5.031   0.430   8.635 -0.1395  0.0387 -0.0951
   61POPI   C3B  853   5.202   0.424   8.238 -0.0517  0.4138  0.3252
   61POPI   C4B  854   5.153   0.481   7.765  0.2271 -0.1488 -0.2563
   62POPI    C1  855   4.122  17.989  10.144 -0.0935 -0.3952 -0.2372
   62POPI    C2  856   4.506  17.969  10.252 -0.0773 -0.1901 -0.2519
   62POPI    C3  857   4.371  18.288  10.052 -0.3094 -0.1464 -0.0306
   62POPI   PO4  858   4.103  17.695  10.042 -0.0226  0.0610 -0.0946
   62POPI   GL1  859   3.977  17.631   9.671 -0.1060  0.1519  0.0203
   62POPI   GL2  860   3.723  17.511   9.623 -0.2191  0.0810  0.0662
   62POPI   C1A  861   4.061  17.838   9.261 -0.1846  0.0703 -0.0176
   62POPI   D2A  862   4.396  17.986   9.144 -0.0073  0.2987  0.0772
   62POPI   C3A  863   4.374  17.902   8.732 -0.0461  0.3060 -0.1111
   62POPI   C4A  864   4.373  17.762   8.266 -0.2163  0.2469 -0.0985
   62POPI   C1B  865   3.714  17.445   9.300 -0.1131 -0.3327  0.1602
   62POPI   C2B  866   3.961  17.465   8.865 -0.3771  0.1553 -0.1260
   62POPI   C3B  867   4.233  17.344   8.545  0.1653  0.1127 -0.0866
   62POPI   C4B  868   4.431  17.198   8.255  0.0587 -0.0944 -0.1227
   63POPI    C1  869   9.209  13.989  11.007 -0.1838 -0.1098 -0.1288
   63POPI    C2  870   9.371  13.727  11.262 -0.1435 -0.0939 -0.1383
   63POPI    C3  871   9.315  14.107  11.374  0.0664 -0.0363 -0.2225
   63POPI   PO4  872   9.416  14.030  10.819 -0.0695  0.3903 -0.0992
   63POPI   GL1  873   9.625  14.186  10.550 -0.1822  0.0910 -0.0328
   63POPI   GL2  874   9.971  14.308  10.655  0.3547  0.0760 -0.0062
   63POPI   C1A  875   9.754  14.039  10.124 -0.1408 -0.1488  0.0900
   63POPI   D2A  876   9.824  14.006   9.655  0.1497 -0.1942 -0.0439
   63POPI   C3A  877  10.110  13.668   9.373 -0.0697  0.1445 -0.3197
   63POPI   C4A  878  10.035  13.275   9.094 -0.3230  0.0970  0.1527
   63POPI   C1B  879  10.086  14.419  10.293  0.0931 -0.1151 -0.2743
   63POPI   C2B  880   9.873  14.535   9.922 -0.0383 -0.2007 -0.3752
   63POPI   C3B  881   9.782  14.459   9.483 -0.0347 -0.1761  0.0930
   63POPI   C4B  882   9.825  14.566   9.036 -0.0144 -0.0591 -0.1178
   64POPI    C1  883   2.240   9.491  10.654 -0.0734  0.1684  0.0431
   64POPI    C2  884   2.404   9.856  10.644  0.0233  0.1219 -0.0935
   64POPI    C3  885   2.549   9.579  10.893 -0.0124  0.1587 -0.0316
   64POPI   PO4  886   2.095   9.485  10.387 -0.1006 -0.0143  0.3440
   64POPI   GL1  887   2.282   9.304  10.059  0.0752  0.0813  0.0740
   64POPI   GL2  888   2.326   9.567   9.936  0.0073  0.2916  0.1914
   64POPI   C1A  889   2.337   9.122   9.642 -0.2544  0.0485  0.1656
   64POPI   D2A  890   2.220   9.238   9.205  0.1512 -0.0106 -0.5187
   64POPI   C3A  891   2.116   9.091   8.875  0.0836 -0.1359 -0.2186
   64POPI   C4A  892   2.061   8.952   8.561  0.0801  0.2233 -0.2502
   64POPI   C1B  893   2.351   9.586   9.520  0.0141 -0.3901  0.2304
   64POPI   C2B  894   2.337   9.721   9.126  0.0482  0.4376  0.0086
   64POPI   C3B  895   2.395   9.537   8.746  0.0392  0.1022  0.1713
   64POPI   C4B  896   2.459   9.255   8.331  0.0374 -0.2843 -0.0776
   65POPI    C1  897  15.791  13.250  10.786 -0.2519 -0.0058  0.1756
   65POPI    C2  898  15.846  12.905  10.591  0.1930  0.0877  0.1246
   65POPI    C3  899  15.556  13.156  10.477  0.1062 -0.0998 -0.0741
   65POPI   PO4  900  16.055  13.412  10.747  0.1036 -0.0954  0.1309
   65POPI   GL1  901  16.100  13.596  10.328  0.0360 -0.1089  0.2608
   65POPI   GL2  902  16.280  13.430  10.101 -0.1433 -0.1285  0.0618
   65POPI   C1A  903  15.742  13.443  10.071 -0.0422 -0.0434 -0.0649
   65POPI   D2A  904  15.510  13.160   9.756 -0.0166 -0.0165 -0.2155
   65POPI   C3A  905  15.125  13.226   9.670 -0.1354 -0.0884  0.2570
   65POPI   C4A  906  14.994  13.187   9.200  0.0268 -0.1632 -0.0202
   65POPI   C1B  907  16.083  13.218   9.689 -0.0829 -0.1087  0.3539
   65POPI   C2B  908  15.810  13.251   9.380  0.5215 -0.0493 -0.2484
   65POPI   C3B  909  15.433  13.027   9.285  0.2619  0.2618  0.1729
   65POPI   C4B  910  15.387  12.698   9.059 -0.2055 -0.0335 -0.0858
   66POPI    C1  911   5.649  13.667  10.474  0.0435 -0.1041 -0.2526
   66POPI    C2  912   5.974  13.747  10.254  0.1656  0.2508  0.0470
   66POPI    C3  913   5.963  13.852  10.640 -0.3241  0.2854  0.0300
   66POPI   PO4  914   5.501  13.795  10.270  0.1002  0.0466 -0.1039
   66POPI   GL1  915   5.542  13.718   9.906  0.1344  0.0912 -0.0069
   66POPI   GL2  916   5.636  13.443   9.852 -0.1774 -0.0718 -0.0527
   66POPI   C1A  917   5.578  14.027   9.579  0.0689 -0.0645 -0.0959
   66POPI   D2A  918   5.838  14.115   9.236 -0.0399 -0.2850  0.1016
   66POPI   C3A  919   5.982  14.405   8.932  0.2449  0.1354 -0.2160
   66POPI   C4A  920   5.925  14.468   8.534  0.2749 -0.1621  0.0472
   66POPI   C1B  921   5.938  13.353   9.473  0.0384 -0.1709  0.1002
   66POPI   C2B  922   5.869  13.638   9.151  0.1794 -0.2020  0.0199
   66POPI   C3B  923   6.176  13.862   8.940  0.1264  0.0588  0.1056
   66POPI   C4B  924   6.227  14.058   8.591 -0.3831  0.1031  0.4312
   67POPI    C1  925  13.206   2.340  10.278  0.2444 -0.1616  0.1527
   67POPI    C2  926  13.045   2.151  10.592  0.0867  0.0066  0.1746
   67POPI    C3  927  13.208   2.514  10.639  0.0663  0.0305  0.0631
   67POPI   PO4  928  12.957   2.204  10.081 -0.2656 -0.2746 -0.1065
   67POPI   GL1  929  12.713   2.103   9.717  0.1805 -0.1533 -0.0841
   67POPI   GL2  930  12.478   2.213   9.528  0.0976 -0.1440 -0.0110
   67POPI   C1A  931  12.901   2.045   9.302  0.1317 -0.0758  0.2976
   67POPI   D2A  932  12.756   1.886   8.978 -0.0176 -0.1738  0.0935
   67POPI   C3A  933  12.623   1.508   8.938 -0.1530 -0.0079  0.2048
   67POPI   C4A  934  12.296   1.290   8.727  0.0790 -0.0840 -0.1428
   67POPI   C1B  935  12.353   2.166   9.109 -0.0725  0.1150 -0.2164
   67POPI   C2B  936  12.289   2.253   8.739  0.3278  0.1327 -0.0170
   67POPI   C3B  937  12.727   2.167   8.497 -0.0788  0.0436 -0.4336
   67POPI   C4B  938  13.003   1.782   8.386  0.1528  0.1819 -0.5463
   68POPS   CNO  939  13.719   6.644  10.325 -0.0729  0.1661 -0.1244
   68POPS   PO4  940  13.518   6.991  10.526 -0.1437 -0.0958 -0.1342
   68POPS   GL1  941  13.334   7.284  10.328 -0.0866  0.2646 -0.0276
   68POPS   GL2  942  13.103   7.438  10.424  0.0967  0.0337 -0.3387
   68POPS   C1A  943  13.503   7.457   9.974  0.2256  0.0785  0.0254
   68POPS   D2A  944  13.600   7.519   9.522 -0.1433 -0.1188  0.1085
   68POPS   C3A  945  13.315   7.646   9.155 -0.0221 -0.0642  0.0674
   68POPS   C4A  946  13.008   8.030   9.069  0.2058 -0.1567  0.0544
   68POPS   C1B  947  12.951   7.538  10.033  0.1698  0.1194  0.3248
   68POPS   C2B  948  13.101   7.673   9.697  0.2484  0.0572  0.3999
   68POPS   C3B  949  13.205   8.140   9.496  0.0734 -0.3176  0.0961
   68POPS   C4B  950  13.182   8.479   9.140 -0.0604 -0.0035 -0.0256
   69POPS   CNO  951   9.582   6.293  10.675  0.0956  0.2895  0.1685
   69POPS   PO4  952   9.504   6.098  10.232  0.2108 -0.2021 -0.1092
   69POPS   GL1  953   9.588   6.043   9.807  0.0884  0.2292 -0.3456
   69POPS   GL2  954   9.538   5.677   9.811  0.1874  0.0292 -0.0257
   69POPS   C1A  955   9.819   5.947   9.495  0.0484 -0.2885  0.1401
   69POPS   D2A  956   9.979   5.693   9.138  0.2924 -0.3410  0.0919
   69POPS   C3A  957  10.112   5.688   8.767 -0.1539 -0.2498  0.0411
   69POPS   C4A  958  10.115   5.691   8.321 -0.1148 -0.1184 -0.0006
   69POPS   C1B  959   9.484   5.602   9.430 -0.0509 -0.2478 -0.2029
   69POPS   C2B  960   9.552   5.560   8.995  0.2724 -0.2007  0.2073
   69POPS   C3B  961   9.681   5.425   8.584  0.1967 -0.3072 -0.1687
   69POPS   C4B  962   9.761   5.013   8.270 -0.1505 -0.1362 -0.1005
   70POPS   CNO  963   0.697   1.566  10.055 -0.0163 -0.1661  0.3770
   70POPS   PO4  964   0.210   1.520  10.045 -0.3963 -0.0692 -0.1001
   70POPS   GL1  965  -0.057   1.445   9.711  0.2240 -0.0901 -0.0805
   70POPS   GL2  966  -0.004   1.177   9.640 -0.0538 -0.2848  0.2707
   70POPS   C1A  967  -0.327   1.591   9.411  0.0103 -0.2994 -0.1617
   70POPS   D2A  968  -0.750   1.653   9.257  0.3021 -0.1069  0.1504
   70POPS   C3A  969  -0.768   1.941   8.874  0.0467 -0.2039 -0.0773
   70POPS   C4A  970  -0.683   2.028   8.471 -0.3343 -0.2370 -0.2410
   70POPS   C1B  971   0.041   1.278   9.226  0.0150 -0.1902 -0.0821
   70POPS   C2B  972  -0.012   1.275   8.756  0.0914  0.1271  0.2893
   70POPS   C3B  973  -0.035   1.156   8.419 -0.2809 -0.1222 -0.1438
   70POPS   C4B  974  -0.106   0.801   8.096 -0.1233  0.1449 -0.2284
   71POPS   CNO  975  17.417   7.059  10.784  0.2108  0.0505  0.1871
   71POPS   PO4  976  17.217   7.107  10.411  0.0458  0.5363  0.1602
   71POPS   GL1  977  17.256   7.123  10.028  0.0799  0.3176  0.1533
   71POPS   GL2  978  17.396   6.851   9.897 -0.1748  0.0943  0.0655
   71POPS   C1A  979  17.131   7.163   9.614  0.0912 -0.3318  0.1599
   71POPS   D2A  980  17.161   7.316   9.191  0.1843  0.1115  0.1308
   71POPS   C3A  981  16.845   7.501   8.982  0.2718  0.0686  0.0052
   71POPS   C4A  982  16.797   7.995   9.064  0.1129  0.1884 -0.3226
   71POPS   C1B  983  17.504   6.885   9.460 -0.1982  0.1325  0.3301
   71POPS   C2B  984  17.440   6.785   9.078 -0.2603 -0.0728 -0.5140
   71POPS   C3B  985  17.427   6.858   8.670  0.2681  0.2983  0.0035
   71POPS   C4B  986  17.714   6.588   8.413 -0.1457 -0.0513  0.1212
   72POPS   CNO  987  12.648   6.625  10.801 -0.1445 -0.0265  0.0755
   72POPS   PO4  988  12.964   6.316  10.595  0.0933  0.0859  0.3202
   72POPS   GL1  989  13.067   6.522  10.293 -0.1689  0.2114 -0.1744
   72POPS   GL2  990  13.162   6.824  10.200 -0.5765 -0.1010 -0.1981
   72POPS   C1A  991  12.881   6.599   9.901  0.1311 -0.0450 -0.3080
   72POPS   D2A  992  12.772   6.759   9.462  0.0263 -0.1533 -0.1852
   72POPS   C3A  993  12.684   6.747   9.003 -0.0335 -0.5278 -0.1879
   72POPS   C4A  994  12.490   6.675   8.602 -0.0878 -0.0718  0.2075
   72POPS   C1B  995  13.103   7.095   9.903  0.0616 -0.1954 -0.2767
   72POPS   C2B  996  12.878   7.228   9.550 -0.2295  0.0028 -0.1414
   72POPS   C3B  997  12.588   7.208   9.187  0.1186 -0.1730  0.0651
   72POPS   C4B  998  12.509   7.168   8.727  0.1220 -0.2686 -0.1931
   73POPS   CNO  999   6.454  14.536  10.914 -0.2232  0.4045  0.0801
   73POPS   PO4 1000   6.639  14.564  10.583 -0.0341 -0.0212  0.0740
   73POPS   GL1 1001   6.867  14.642  10.260  0.0800  0.0284 -0.1289
   73POPS   GL2 1002   6.637  14.463  10.103  0.1375 -0.0544  0.1463
   73POPS   C1A 1003   6.993  14.517   9.813 -0.2215  0.2169 -0.1290
   73POPS   D2A 1004   6.860  14.366   9.408 -0.2071 -0.1550  0.0003
   73POPS   C3A 1005   6.917  14.537   8.952 -0.1418 -0.1082 -0.0038
   73POPS   C4A 1006   7.209  14.447   8.625 -0.0924 -0.3213 -0.1168
   73POPS   C1B 1007   6.652  14.080   9.799  0.1112  0.0660 -0.3288
   73POPS   C2B 1008   6.989  13.869   9.532 -0.0124  0.3954 -0.1750
   73POPS   C3B 1009   6.929  13.610   9.245  0.1936  0.3059  0.0299
   73POPS   C4B 1010   6.757  13.634   8.822 -0.0538  0.3455 -0.1564
   74POPS   CNO 1011   7.320   0.460  10.505 -0.1185  0.2207  0.2805
   74POPS   PO4 1012   7.489   0.040  10.400  0.2883 -0.0495 -0.1302
   74POPS   GL1 1013   7.583  -0.164  10.031  0.1634 -0.1168 -0.0979
   74POPS   GL2 1014   7.733   0.107   9.825 -0.0703  0.2637  0.0623
   74POPS   C1A 1015   7.664  -0.440   9.678  0.3185 -0.0383  0.2508
   74POPS   D2A 1016   7.791  -0.565   9.205 -0.1964  0.0492  0.1912
   74POPS   C3A 1017   7.480  -0.526   8.866  0.2142 -0.4059  0.1198
   74POPS   C4A 1018   7.346  -0.497   8.421 -0.2261 -0.0178 -0.2125
   74POPS   C1B 1019   7.793   0.006   9.492 -0.0349 -0.2776  0.0747
   74POPS   C2B 1020   7.704  -0.094   9.028  0.0325 -0.3430 -0.1767
   74POPS   C3B 1021   7.698  -0.175   8.618 -0.0227  0.2879  0.1896
   74POPS   C4B 1022   8.120  -0.207   8.425  0.0099  0.3529  0.0995
   75POPS   CNO 1023  13.974  12.181  11.701 -0.0151  0.0041  0.2065
   75POPS   PO4 1024  13.772  12.067  11.326  0.2011  0.3360  0.2158
   75POPS   GL1 1025  13.707  12.263  10.912  0.1699  0.3358 -0.0466
   75POPS   GL2 1026  13.570  12.454  10.870 -0.1481 -0.1430 -0.0108
   75POPS   C1A 1027  13.460  12.184  10.502 -0.2051 -0.0573 -0.1304
   75POPS   D2A 1028  13.469  11.922  10.160  0.1686 -0.2000 -0.3694
   75POPS   C3A 1029  13.613  11.829   9.778  0.1909 -0.1790  0.0142
   75POPS   C4A 1030  13.550  11.813   9.345 -0.0170 -0.1386  0.3670
   75POPS   C1B 1031  13.914  12.504  10.562  0.1319  0.0303  0.0923
   75POPS   C2B 1032  14.037  12.513  10.130  0.0389  0.0436 -0.2137
   75POPS   C3B 1033  14.062  12.457   9.699  0.2046  0.0364  0.1756
   75POPS   C4B 1034  14.324  12.433   9.297  0.0916 -0.0870 -0.1264
   76POPS   CNO 1035  13.099   5.327  10.576 -0.1653  0.2689 -0.0894
   76POPS   PO4 1036  12.665   5.465  10.576 -0.0202 -0.1141  0.1344
   76POPS   GL1 1037  12.776   5.666  10.219 -0.0607 -0.1418 -0.0248
   76POPS   GL2 1038  13.031   5.973  10.054 -0.0531  0.0658  0.1944
   76POPS   C1A 1039  13.056   5.501   9.783  0.0165  0.0694 -0.2581
   76POPS   D2A 1040  13.111   5.626   9.357  0.1821 -0.0205 -0.0350
   76POPS   C3A 1041  13.013   5.676   8.891 -0.3468  0.3097 -0.0875
   76POPS   C4A 1042  12.917   5.541   8.577 -0.0172  0.0989  0.0004
   76POPS   C1B 1043  13.184   5.988   9.604  0.0197 -0.1959  0.1223
   76POPS   C2B 1044  13.295   6.074   9.130 -0.2592  0.1331 -0.2384
   76POPS   C3B 1045  13.469   5.937   8.726 -0.2081 -0.0758 -0.0506
   76POPS   C4B 1046  13.657   5.851   8.279 -0.0025 -0.2258 -0.0578
   77POPS   CNO 1047  10.836  11.451  11.209 -0.0523 -0.0150 -0.1498
   77POPS   PO4 1048  10.426  11.539  11.219 -0.0000  0.0255  0.1970
   77POPS   GL1 1049  10.337  11.577  10.734  0.2108  0.0156  0.1635
   77POPS   GL2 1050  10.029  11.413  10.628 -0.0998 -0.0257 -0.0575
   77POPS   C1A 1051  10.444  11.636  10.351 -0.2106 -0.0440 -0.1181
   77POPS   D2A 1052  10.423  11.459   9.923  0.1543 -0.2046  0.0965
   77POPS   C3A 1053  10.314  11.449   9.502  0.2113  0.1262 -0.0160
   77POPS   C4A 1054  10.442  11.301   9.189 -0.2902 -0.0122  0.0923
   77POPS   C1B 1055   9.927  11.216  10.277 -0.0823 -0.2601 -0.1802
   77POPS   C2B 1056   9.949  11.208   9.813  0.1683 -0.0974 -0.0650
   77POPS   C3B 1057  10.055  11.021   9.387  0.1134  0.0978 -0.0290
   77POPS   C4B 1058  10.419  10.753   9.254 -0.2888  0.1720 -0.0653
   78POPS   CNO 1059   5.180   8.103  10.952  0.0571 -0.1426  0.1072
   78POPS   PO4 1060   5.231   8.097  10.508  0.1140 -0.0271 -0.2219
   78POPS   GL1 1061   5.499   8.264  10.174  0.0996 -0.2055 -0.1140
   78POPS   GL2 1062   5.649   7.882  10.212  0.0385 -0.3190 -0.0119
   78POPS   C1A 1063   5.413   8.362   9.716 -0.0093  0.0907 -0.0117
   78POPS   D2A 1064   5.242   8.708   9.539  0.1750  0.0188  0.0854
   78POPS   C3A 1065   5.404   8.741   9.027 -0.1034  0.1529  0.3351
   78POPS   C4A 1066   5.355   8.772   8.618  0.0698 -0.2709  0.0572
   78POPS   C1B 1067   5.664   7.854   9.756 -0.0994  0.0382 -0.1108
   78POPS   C2B 1068   5.457   7.886   9.424  0.0949 -0.0248 -0.0608
   78POPS   C3B 1069   5.143   7.826   9.139 -0.0829  0.2862  0.1350
   78POPS   C4B 1070   4.686   8.019   9.202 -0.0473  0.2655  0.1933
   79POPS   CNO 1071   8.256   1.269   9.906  0.2072 -0.0659 -0.1190
   79POPS   PO4 1072   7.919   1.525  10.044 -0.0572 -0.0732 -0.3636
   79POPS   GL1 1073   7.983   1.670   9.523  0.1061  0.0910  0.1388
   79POPS   GL2 1074   7.685   1.703   9.435 -0.3288  0.0695  0.1481
   79POPS   C1A 1075   7.991   1.938   9.107 -0.1493 -0.1261  0.0151
   79POPS   D2A 1076   7.914   2.217   8.814  0.0273  0.2139  0.3139
   79POPS   C3A 1077   8.046   2.150   8.485  0.1834 -0.0259 -0.1654
   79POPS   C4A 1078   7.857   2.167   8.088 -0.2163  0.0373  0.0420
   79POPS   C1B 1079   7.593   1.667   8.952  0.2749  0.0631  0.1017
   79POPS   C2B 1080   7.524   1.863   8.630  0.3368 -0.2400  0.0705
   79POPS   C3B 1081   7.200   1.960   8.413  0.0161 -0.1102 -0.0381
   79POPS   C4B 1082   6.880   1.836   8.067 -0.1471  0.0066  0.0091
   80POPS   CNO 1083  13.655   0.093  10.984  0.0323  0.1201 -0.1494
   80POPS   PO4 1084  13.958   0.020  10.628 -0.1991  0.0661 -0.3302
   80POPS   GL1 1085  13.820  -0.318  10.181 -0.0441  0.0148 -0.1982
   80POPS   GL2 1086  13.647  -0.123   9.955  0.1827 -0.0522  0.3564
   80POPS   C1A 1087  13.778  -0.700  10.010  0.2132  0.0878  0.0621
   80POPS   D2A 1088  13.855  -0.918   9.644 -0.2262 -0.4410 -0.2334
   80POPS   C3A 1089  13.872  -1.079   9.241 -0.0027  0.1747  0.3258
   80POPS   C4A 1090  13.731  -1.110   8.940  0.0673  0.1549 -0.0669
   80POPS   C1B 1091  13.757  -0.373   9.681  0.1551  0.0452 -0.1067
   80POPS   C2B 1092  13.616  -0.550   9.221 -0.1410 -0.0156  0.2955
   80POPS   C3B 1093  13.673  -0.548   8.758 -0.2900 -0.2125 -0.0499
   80POPS   C4B 1094  13.978  -0.392   8.391 -0.0812  0.1077  0.0741
   81POPS   CNO 1095   4.361  15.424  10.077  0.0909  0.3305  0.0530
   81POPS   PO4 1096   4.158  15.209   9.715  0.2635 -0.0458 -0.0371
   81POPS   GL1 1097   3.954  15.236   9.280 -0.0604  0.3009 -0.2755
   81POPS   GL2 1098   3.619  15.283   9.330  0.0941 -0.0021 -0.0708
   81POPS   C1A 1099   4.041  15.136   8.894 -0.2905  0.1389  0.0735
   81POPS   D2A 1100   4.054  15.071   8.372  0.1712  0.3227  0.1782
   81POPS   C3A 1101   4.257  14.845   8.219  0.1718  0.0875  0.3313
   81POPS   C4A 1102   4.507  14.681   7.916 -0.0455  0.1291 -0.3545
   81POPS   C1B 1103   3.697  15.518   8.953  0.0241 -0.2668 -0.2299
   81POPS   C2B 1104   3.695  15.393   8.596  0.1460 -0.0051 -0.2189
   81POPS   C3B 1105   3.591  15.347   8.343  0.0773 -0.0645 -0.0181
   81POPS   C4B 1106   3.448  15.292   7.944  0.0207 -0.1057 -0.1083
   82POPS   CNO 1107   3.473   7.751  11.199  0.2162 -0.0489 -0.1650
   82POPS   PO4 1108   3.303   7.779  10.729 -0.3487 -0.1908 -0.3896
   82POPS   GL1 1109   3.085   7.830  10.361  0.1530 -0.3645  0.0301
   82POPS   GL2 1110   2.801   7.661  10.402  0.0362  0.1491 -0.0809
   82POPS   C1A 1111   3.107   8.029  10.007  0.1418  0.0515 -0.4776
   82POPS   D2A 1112   3.274   8.054   9.530 -0.0924  0.1455  0.2098
   82POPS   C3A 1113   3.217   8.055   9.061 -0.2042 -0.4429 -0.1743
   82POPS   C4A 1114   3.191   8.040   8.598 -0.0161  0.1805 -0.0615
   82POPS   C1B 1115   3.062   7.565   9.976  0.0709 -0.0170 -0.2941
   82POPS   C2B 1116   3.348   7.609   9.738  0.1515  0.2552 -0.0834
   82POPS   C3B 1117   3.332   7.626   9.290 -0.0879 -0.0175  0.2090
   82POPS   C4B 1118   3.397   7.651   8.817  0.0284 -0.1310  0.1820
   83POPS   CNO 1119   1.548  10.263  10.212  0.0846  0.1297  0.2185
   83POPS   PO4 1120   1.197   9.955  10.080 -0.1200 -0.2894 -0.3553
   83POPS   GL1 1121   0.831  10.204   9.938 -0.3221 -0.0893 -0.0613
   83POPS   GL2 1122   1.030  10.174   9.641  0.1860  0.1868  0.0929
   83POPS   C1A 1123   0.554  10.050   9.608  0.2806 -0.3502 -0.1015
   83POPS   D2A 1124   0.164  10.145   9.414  0.0779 -0.1590  0.1360
   83POPS   C3A 1125   0.300  10.012   8.926 -0.2618  0.3179 -0.1632
   83POPS   C4A 1126   0.258  10.146   8.518 -0.1322  0.0839  0.1068
   83POPS   C1B 1127   1.182  10.428   9.414  0.1414  0.2163 -0.0256
   83POPS   C2B 1128   1.149  10.457   9.017  0.1831 -0.0873 -0.0192
   83POPS   C3B 1129   1.228  10.453   8.631  0.1476 -0.0714 -0.1094
   83POPS   C4B 1130   1.414  10.399   8.327  0.2633  0.0889 -0.1966
   84POPS   CNO 1131   6.223   3.341  10.139  0.0146  0.0165  0.3451
   84POPS   PO4 1132   6.247   3.775   9.964  0.0624  0.0699 -0.1092
   84POPS   GL1 1133   6.323   3.997   9.590 -0.2496 -0.1537 -0.1668
   84POPS   GL2 1134   6.262   4.359   9.712  0.0324 -0.0014 -0.0355
   84POPS   C1A 1135   6.315   4.000   9.126 -0.0666 -0.0657 -0.2438
   84POPS   D2A 1136   6.520   4.068   8.780  0.0582 -0.3051 -0.3528
   84POPS   C3A 1137   6.263   4.059   8.478  0.1156 -0.1366 -0.0640
   84POPS   C4A 1138   5.820   4.049   8.368  0.2252  0.0684 -0.0602
   84POPS   C1B 1139   6.222   4.457   9.319  0.1949 -0.0015 -0.1201
   84POPS   C2B 1140   6.278   4.546   8.923 -0.2629 -0.1724  0.0105
   84POPS   C3B 1141   6.429   4.539   8.496 -0.4912 -0.1019  0.0992
   84POPS   C4B 1142   6.640   4.524   8.114 -0.0915 -0.2318 -0.5212
   85POPS   CNO 1143   4.862   4.394  10.420 -0.0120  0.1164  0.1413
   85POPS   PO4 1144   4.640   4.027  10.275  0.0099  0.0672 -0.0133
   85POPS   GL1 1145   4.567   4.317   9.856 -0.3631 -0.1644  0.3633
   85POPS   GL2 1146   4.718   4.590   9.875 -0.3684 -0.1147  0.1130
   85POPS   C1A 1147   4.407   4.345   9.435 -0.0727 -0.0524 -0.1764
   85POPS   D2A 1148   4.227   4.298   9.005 -0.2739 -0.1515 -0.3041
   85POPS   C3A 1149   4.342   4.291   8.599  0.1508 -0.0939 -0.3420
   85POPS   C4A 1150   4.495   4.609   8.282  0.1449 -0.0579  0.1342
   85POPS   C1B 1151   4.600   4.832   9.514 -0.1518 -0.1425  0.2648
   85POPS   C2B 1152   4.393   5.127   9.204  0.4283 -0.2862  0.2413
   85POPS   C3B 1153   4.231   5.308   8.759 -0.1533  0.1139  0.2996
   85POPS   C4B 1154   3.931   5.219   8.459 -0.0966 -0.0822 -0.0205
   86POPS   CNO 1155  14.349  13.562  11.607 -0.0826  0.1565 -0.2801
   86POPS   PO4 1156  14.570  13.366  11.283  0.1766  0.0276 -0.0761
   86POPS   GL1 1157  14.437  13.177  10.916  0.1681  0.3064 -0.1502
   86POPS   GL2 1158  14.092  13.242  10.718 -0.0719 -0.0254 -0.1604
   86POPS   C1A 1159  14.362  12.800  10.639  0.0613 -0.0472 -0.0275
   86POPS   D2A 1160  14.427  12.372  10.443  0.2070 -0.0497  0.1334
   86POPS   C3A 1161  14.586  12.082  10.747 -0.0509 -0.1935  0.4119
   86POPS   C4A 1162  14.565  11.612  10.689 -0.3212 -0.0705  0.1711
   86POPS   C1B 1163  14.017  12.997  10.348  0.0518  0.1881  0.0605
   86POPS   C2B 1164  13.838  12.967  10.014  0.2124  0.0794  0.0048
   86POPS   C3B 1165  13.594  12.779   9.713  0.1145  0.3427  0.2688
   86POPS   C4B 1166  13.686  12.895   9.380  0.1559 -0.1447 -0.1034
   87POPS   CNO 1167   8.317   7.164  10.846 -0.0700  0.2398 -0.0202
   87POPS   PO4 1168   8.337   6.890  10.528 -0.1666 -0.0202 -0.0592
   87POPS   GL1 1169   8.194   7.020  10.188  0.1157 -0.0825 -0.3173
   87POPS   GL2 1170   8.134   7.311  10.070  0.1093  0.3121  0.0008
   87POPS   C1A 1171   8.102   6.979   9.751 -0.0368  0.1184  0.0422
   87POPS   D2A 1172   8.147   6.980   9.254  0.0911 -0.1362  0.0144
   87POPS   C3A 1173   8.387   7.040   8.949  0.4429  0.0348 -0.0535
   87POPS   C4A 1174   8.159   7.110   8.469  0.0516 -0.0077 -0.2450
   87POPS   C1B 1175   8.251   7.533   9.718  0.1000  0.0939 -0.1995
   87POPS   C2B 1176   8.518   7.490   9.293  0.3454  0.1124 -0.0448
   87POPS   C3B 1177   8.509   7.910   9.049  0.1216  0.1876 -0.2556
   87POPS   C4B 1178   8.238   7.988   8.751 -0.0801 -0.2894 -0.0200
   88POPS   CNO 1179  11.685   5.759  10.845 -0.0031 -0.3071  0.0416
   88POPS   PO4 1180  12.097   5.883  10.638  0.2798  0.0751  0.0084
   88POPS   GL1 1181  12.206   5.958  10.160 -0.0763 -0.0942  0.3319
   88POPS   GL2 1182  12.087   6.194   9.975  0.0511 -0.2683  0.3456
   88POPS   C1A 1183  12.358   5.744   9.776 -0.0388  0.2056  0.4313
   88POPS   D2A 1184  12.314   5.789   9.382  0.1046 -0.2061 -0.0972
   88POPS   C3A 1185  12.432   5.709   9.038 -0.2503  0.0623  0.1177
   88POPS   C4A 1186  12.552   5.888   8.609  0.2220 -0.2853 -0.1163
   88POPS   C1B 1187  12.037   6.147   9.459 -0.0437  0.0761 -0.0898
   88POPS   C2B 1188  12.069   6.176   9.073 -0.0433  0.0094 -0.0034
   88POPS   C3B 1189  12.238   6.273   8.688 -0.1210 -0.1262  0.3282
   88POPS   C4B 1190  12.185   6.507   8.270  0.3530  0.0989 -0.1337
   89POPS   CNO 1191   5.768   6.539  10.533 -0.0067  0.0634 -0.0775
   89POPS   PO4 1192   5.616   6.853  10.817 -0.2158 -0.0009 -0.1678
   89POPS   GL1 1193   5.591   6.953  10.346  0.1506 -0.1911 -0.1388
   89POPS   GL2 1194   5.343   6.785  10.195 -0.3231 -0.0671 -0.0411
   89POPS   C1A 1195   5.583   7.007   9.842  0.1272 -0.2765 -0.0576
   89POPS   D2A 1196   5.411   6.811   9.446 -0.0511  0.2632  0.1762
   89POPS   C3A 1197   5.089   6.781   9.220 -0.0126 -0.0326 -0.0709
   89POPS   C4A 1198   4.844   6.886   8.833  0.1806  0.4942 -0.2002
   89POPS   C1B 1199   5.683   6.569   9.983  0.0200  0.0659  0.1799
   89POPS   C2B 1200   5.741   6.442   9.595 -0.1444  0.1103 -0.1793
   89POPS   C3B 1201   5.530   6.392   9.200  0.0459 -0.0525 -0.5119
   89POPS   C4B 1202   5.632   6.426   8.733 -0.1800  0.0632  0.2228
   90POPS   CNO 1203   2.002  14.407   9.929 -0.0051 -0.2065 -0.0072
   90POPS   PO4 1204   2.408  14.196   9.979  0.1117  0.0096  0.2480
   90POPS   GL1 1205   2.434  14.255   9.515 -0.0352  0.1567 -0.2242
   90POPS   GL2 1206   2.220  14.538   9.455  0.0299  0.2732  0.2343
   90POPS   C1A 1207   2.359  14.119   9.102  0.1162 -0.1842  0.1638
   90POPS   D2A 1208   2.233  14.055   8.649  0.1492  0.0336  0.0907
   90POPS   C3A 1209   2.351  13.963   8.300  0.2179 -0.0734  0.0244
   90POPS   C4A 1210   2.435  13.822   8.058 -0.1343  0.0740 -0.1085
   90POPS   C1B 1211   2.117  14.783   9.137  0.0194  0.1165  0.2554
   90POPS   C2B 1212   1.985  14.983   8.701  0.0446  0.2970 -0.0522
   90POPS   C3B 1213   1.857  14.973   8.319  0.1546  0.0621  0.1174
   90POPS   C4B 1214   1.602  14.960   7.919 -0.0208 -0.2196 -0.4217
   91POPS   CNO 1215   2.680   1.107  10.037  0.0697 -0.0259 -0.0808
   91POPS   PO4 1216   2.971   0.778   9.894  0.0882 -0.0848  0.1566
   91POPS   GL1 1217   2.873   0.614   9.524 -0.0716  0.0710 -0.1459
   91POPS   GL2 1218   2.573   0.374   9.406 -0.0199  0.1247 -0.0661
   91POPS   C1A 1219   2.934   0.672   9.135 -0.0045 -0.1492 -0.2285
   91POPS   D2A 1220   3.165   0.705   8.657  0.1877 -0.0005 -0.0719
   91POPS   C3A 1221   3.483   0.774   8.327  0.2180  0.2546 -0.2382
   91POPS   C4A 1222   3.806   1.004   8.268 -0.1438 -0.0484  0.3787
   91POPS   C1B 1223   2.595   0.362   8.921  0.3108 -0.2924  0.2174
   91POPS   C2B 1224   2.603   0.325   8.497 -0.0016 -0.1115 -0.1521
   91POPS   C3B 1225   2.684   0.573   8.031 -0.0385 -0.0451 -0.0387
   91POPS   C4B 1226   2.316   0.891   7.901 -0.1455  0.0594  0.1634
   92POPS   CNO 1227   4.807   6.163  11.007 -0.1206  0.0025 -0.0276
   92POPS   PO4 1228   5.074   5.997  10.698  0.2553  0.1274  0.0764
   92POPS   GL1 1229   4.936   5.927  10.222 -0.1954  0.0869  0.0654
   92POPS   GL2 1230   5.111   5.724   9.945 -0.1522 -0.1718  0.0814
   92POPS   C1A 1231   4.862   6.180   9.892  0.0870 -0.0126  0.1036
   92POPS   D2A 1232   4.838   6.588   9.998  0.0743 -0.0583 -0.1387
   92POPS   C3A 1233   5.073   6.845   9.774  0.1982  0.1143 -0.0512
   92POPS   C4A 1234   4.999   7.141   9.557 -0.2328 -0.3993  0.0296
   92POPS   C1B 1235   5.067   5.870   9.592 -0.0320  0.2469 -0.0259
   92POPS   C2B 1236   5.078   6.097   9.237  0.1429 -0.1862  0.1504
   92POPS   C3B 1237   5.137   6.383   8.840  0.1206 -0.1777  0.0729
   92POPS   C4B 1238   4.875   6.552   8.514  0.2412  0.0773  0.1004
   93POPS   CNO 1239   7.718   6.366  10.709  0.2333 -0.2697  0.0313
   93POPS   PO4 1240   7.835   6.689  10.372 -0.0400 -0.1404 -0.1435
   93POPS   GL1 1241   7.704   6.694   9.970 -0.3737  0.0054 -0.2224
   93POPS   GL2 1242   7.530   6.448   9.795  0.0484 -0.1727  0.0784
   93POPS   C1A 1243   7.722   6.715   9.446 -0.0432  0.1346  0.1257
   93POPS   D2A 1244   7.624   6.494   9.167  0.0005 -0.2284 -0.0289
   93POPS   C3A 1245   7.432   6.720   8.846  0.0658 -0.0814  0.0141
   93POPS   C4A 1246   7.059   6.915   8.655 -0.2091 -0.2192 -0.2772
   93POPS   C1B 1247   7.197   6.468   9.508 -0.1285  0.1863 -0.1852
   93POPS   C2B 1248   7.065   6.468   9.130  0.1187  0.2176 -0.1069
   93POPS   C3B 1249   7.022   6.437   8.698 -0.3540 -0.0208 -0.1022
   93POPS   C4B 1250   6.977   6.485   8.341 -0.0603  0.0072  0.1599
   94POPS   CNO 1251   2.575   5.962  10.551 -0.0930 -0.1944  0.1925
   94POPS   PO4 1252   2.269   5.952  10.276  0.1121  0.1605  0.2855
   94POPS   GL1 1253   2.264   5.764   9.966  0.0816 -0.0264  0.0775
   94POPS   GL2 1254   1.973   5.593   9.785  0.0078  0.1090  0.0809
   94POPS   C1A 1255   2.216   5.865   9.437  0.2554 -0.1698  0.0040
   94POPS   D2A 1256   2.348   5.889   9.048  0.0437  0.0963  0.0773
   94POPS   C3A 1257   2.060   5.854   8.828  0.0054 -0.0909  0.1888
   94POPS   C4A 1258   1.755   5.794   8.592  0.2796 -0.2519 -0.0041
   94POPS   C1B 1259   2.238   5.400   9.380 -0.0597  0.1752  0.1063
   94POPS   C2B 1260   2.401   5.395   8.957 -0.0285 -0.2098  0.1368
   94POPS   C3B 1261   2.647   5.168   8.489  0.1289  0.0370 -0.1364
   94POPS   C4B 1262   2.566   4.741   8.323  0.0552  0.1715  0.2842
   95POPS   CNO 1263  17.409   9.355  10.538  0.1755  0.1324  0.0163
   95POPS   PO4 1264  17.647   9.531  10.264 -0.1081 -0.0086  0.0343
   95POPS   GL1 1265  17.409   9.406   9.926 -0.3978  0.0046  0.1556
   95POPS   GL2 1266  17.624   9.203   9.784  0.1434  0.1492 -0.1332
   95POPS   C1A 1267  17.038   9.380   9.687  0.1477  0.1133 -0.1680
   95POPS   D2A 1268  16.799   9.580   9.270 -0.0113 -0.2016  0.0826
   95POPS   C3A 1269  16.840   9.922   8.988 -0.1294 -0.1052  0.0571
   95POPS   C4A 1270  16.900   9.972   8.560  0.1461  0.2884  0.0855
   95POPS   C1B 1271  17.740   8.688   9.673 -0.0636 -0.2838 -0.3530
   95POPS   C2B 1272  17.434   8.342   9.520  0.1163  0.0881  0.1278
   95POPS   C3B 1273  17.016   8.162   9.558  0.1372  0.0270 -0.1851
   95POPS   C4B 1274  16.645   8.061   9.605 -0.0543  0.0119  0.0058
   96POPS   CNO 1275  17.214   0.669   9.762 -0.0042 -0.3006 -0.1477
   96POPS   PO4 1276  17.325   1.012   9.833 -0.1919  0.1051 -0.0356
   96POPS   GL1 1277  17.531   1.073   9.549 -0.0057 -0.0466  0.3368
   96POPS   GL2 1278  17.703   0.810   9.375 -0.0571 -0.0475 -0.0241
   96POPS   C1A 1279  17.262   1.152   9.229  0.1561  0.0713  0.0454
   96POPS   D2A 1280  17.247   1.400   8.798  0.0015  0.0285 -0.1527
   96POPS   C3A 1281  16.903   1.597   8.560 -0.0118  0.0972 -0.0414
   96POPS   C4A 1282  16.525   1.619   8.309  0.1194  0.0056  0.0604
   96POPS   C1B 1283  17.578   0.991   8.889  0.0598 -0.0332 -0.0466
   96POPS   C2B 1284  17.565   0.896   8.421  0.0766 -0.0873  0.0536
   96POPS   C3B 1285  17.428   0.813   7.976 -0.2291  0.1592  0.3172
   96POPS   C4B 1286  17.522   0.977   7.542 -0.2414  0.1231  0.1721
   97POPS   CNO 1287  15.045   9.366  11.431  0.0418  0.1459 -0.0783
   97POPS   PO4 1288  14.984   9.375  11.048 -0.0126  0.0384  0.1290
   97POPS   GL1 1289  15.162   9.289  10.639 -0.0466 -0.1904  0.2946
   97POPS   GL2 1290  14.873   9.460  10.455  0.2681 -0.3110 -0.0477
   97POPS   C1A 1291  15.283   9.350  10.218  0.1032 -0.0704 -0.4057
   97POPS   D2A 1292  15.344   9.376   9.738  0.0480  0.0977  0.0201
   97POPS   C3A 1293  15.696   9.156   9.528 -0.1647 -0.1290 -0.4885
   97POPS   C4A 1294  15.740   8.998   9.155  0.0532  0.1153  0.0204
   97POPS   C1B 1295  14.879   9.598  10.043  0.0103 -0.0913  0.2989
   97POPS   C2B 1296  14.834   9.660   9.581 -0.0065 -0.0702 -0.2491
   97POPS   C3B 1297  15.021   9.591   9.248  0.1949  0.1297 -0.1846
   97POPS   C4B 1298  15.289   9.312   9.228 -0.0290 -0.1904 -0.0526
   98POPS   CNO 1299  10.133   0.862  10.738 -0.0035 -0.0895  0.0888
   98POPS   PO4 1300   9.938   0.775  10.413 -0.0161 -0.0998 -0.0915
   98POPS   GL1 1301   9.904   0.662   9.925 -0.0065  0.1682 -0.3639
   98POPS   GL2 1302  10.233   0.446   9.906  0.0605  0.3107  0.1168
   98POPS   C1A 1303   9.928   0.608   9.503 -0.1721  0.2796  0.3803
   98POPS   D2A 1304  10.151   0.613   9.266 -0.2718  0.2082 -0.1396
   98POPS   C3A 1305  10.500   0.898   9.287 -0.0251 -0.1972  0.1204
   98POPS   C4A 1306  10.863   0.821   9.492  0.1404 -0.1301  0.2110
   98POPS   C1B 1307  10.518   0.549   9.665  0.1361 -0.1122 -0.1062
   98POPS   C2B 1308  10.578   0.334   9.416 -0.2969  0.1949  0.1917
   98POPS   C3B 1309  10.683   0.181   9.022 -0.0913 -0.0824  0.0189
   98POPS   C4B 1310  10.919  -0.171   8.793  0.1715 -0.2801 -0.0498
   99POPS   CNO 1311   6.019  13.275  10.802  0.0235 -0.3210 -0.0366
   99POPS   PO4 1312   6.399  13.398  10.863 -0.0768 -0.1417 -0.0589
   99POPS   GL1 1313   6.533  13.138  10.578 -0.2099 -0.1551  0.0840
   99POPS   GL2 1314   6.341  13.201  10.272  0.2466 -0.0789  0.1652
   99POPS   C1A 1315   6.846  13.279  10.310  0.0547 -0.2597 -0.2934
   99POPS   D2A 1316   6.887  13.667  10.074  0.1026 -0.2750  0.0206
   99POPS   C3A 1317   6.692  13.520   9.714 -0.1203 -0.0880  0.2678
   99POPS   C4A 1318   6.354  13.701   9.449 -0.2223  0.2159  0.2696
   99POPS   C1B 1319   6.182  13.413   9.942 -0.1171  0.3613  0.1447
   99POPS   C2B 1320   6.026  13.913   9.763  0.1616  0.0836  0.1070
   99POPS   C3B 1321   5.955  14.357   9.685 -0.1530 -0.1818 -0.1294
   99POPS   C4B 1322   5.974  14.634   9.376 -0.2452 -0.1380  0.0323
  100POPS   CNO 1323  14.502   2.047  10.195 -0.1030 -0.0207  0.3146
  100POPS   PO4 1324  14.267   2.269   9.973 -0.1807  0.0807  0.1051
  100POPS   GL1 1325  14.071   1.963   9.709  0.1790  0.0809  0.2061
  100POPS   GL2 1326  13.804   1.857   9.826  0.3235 -0.1727 -0.0908
  100POPS   C1A 1327  14.161   1.922   9.268  0.1847 -0.0422  0.2195
  100POPS   D2A 1328  14.393   1.968   8.786  0.0395 -0.1693 -0.2347
  100POPS   C3A 1329  14.532   2.341   8.615 -0.0262  0.3906  0.0299
  100POPS   C4A 1330  14.767   2.406   8.272  0.1028 -0.0878  0.0904
  100POPS   C1B 1331  13.642   1.903   9.422 -0.0222  0.2085 -0.1546
  100POPS   C2B 1332  13.701   1.882   8.944 -0.1578  0.0243 -0.2253
  100POPS   C3B 1333  13.544   1.559   8.611 -0.2869  0.0789  0.2169
  100POPS   C4B 1334  13.377   1.420   8.258 -0.0270  0.0872 -0.1257
  101POPS   CNO 1335   9.686  11.269  10.965 -0.1061 -0.1329 -0.0606
  101POPS   PO4 1336   9.236  11.324  10.987  0.1461 -0.0712 -0.1369
  101POPS   GL1 1337   9.058  11.512  10.577 -0.2139  0.1586 -0.1494
  101POPS   GL2 1338   8.727  11.441  10.525 -0.0718  0.1107  0.1235
  101POPS   C1A 1339   8.911  11.591  10.123  0.0861 -0.1261  0.1374
  101POPS   D2A 1340   8.831  11.558   9.743  0.1084  0.0378 -0.0504
  101POPS   C3A 1341   9.036  11.326   9.392  0.1137 -0.0720  0.1776
  101POPS   C4A 1342   9.285  11.007   9.289  0.0975 -0.0906  0.3863
  101POPS   C1B 1343   8.520  11.313  10.104 -0.2430  0.0853  0.0563
  101POPS   C2B 1344   8.300  11.204   9.834  0.0042 -0.2409  0.3826
  101POPS   C3B 1345   7.908  10.991   9.652 -0.3389  0.0524 -0.2443
  101POPS   C4B 1346   7.811  10.889   9.318 -0.0407 -0.0193  0.0530
  102POPS   CNO 1347   8.675  14.180  10.796 -0.3941  0.0540  0.4474
  102POPS   PO4 1348   8.503  14.592  10.992  0.2971 -0.1089  0.1506
  102POPS   GL1 1349   8.668  14.684  10.544  0.1257  0.0712 -0.0991
  102POPS   GL2 1350   8.759  14.953  10.347  0.0627  0.0171 -0.1055
  102POPS   C1A 1351   8.719  14.615  10.024 -0.0086  0.0430 -0.0172
  102POPS   D2A 1352   8.776  14.491   9.622  0.0462  0.1925 -0.0809
  102POPS   C3A 1353   8.606  14.409   9.214  0.0488  0.0942 -0.0250
  102POPS   C4A 1354   8.333  14.385   8.992 -0.2003 -0.3372  0.3374
  102POPS   C1B 1355   8.909  15.037   9.925  0.1535  0.1345  0.2384
  102POPS   C2B 1356   9.034  14.897   9.546  0.1304 -0.1232 -0.2630
  102POPS   C3B 1357   9.070  15.017   9.110 -0.4432 -0.0389 -0.1393
  102POPS   C4B 1358   9.061  15.226   8.706  0.0200 -0.1138  0.2553
  103POPS   CNO 1359   9.112   0.201  10.745 -0.1897  0.3356 -0.1880
  103POPS   PO4 1360   9.494   0.164  10.448  0.0694  0.0077 -0.1030
  103POPS   GL1 1361   9.598   0.077   9.973  0.1600  0.1335 -0.1811
  103POPS   GL2 1362   9.630   0.270   9.697  0.0067  0.3353 -0.0171
  103POPS   C1A 1363   9.642  -0.193   9.546 -0.3143  0.0867  0.3909
  103POPS   D2A 1364   9.387  -0.299   9.240 -0.2070 -0.3526 -0.1425
  103POPS   C3A 1365   9.090  -0.403   8.983 -0.0333  0.2146 -0.2544
  103POPS   C4A 1366   8.885  -0.524   8.581  0.0189 -0.0573 -0.0328
  103POPS   C1B 1367   9.666   0.230   9.266 -0.0592  0.1541  0.4325
  103POPS   C2B 1368   9.493   0.049   8.952 -0.0696 -0.1633  0.0702
  103POPS   C3B 1369   9.693  -0.277   8.746 -0.0432 -0.0927  0.0365
  103POPS   C4B 1370  10.019  -0.197   8.408 -0.1145  0.1276 -0.0597
  104POPS   CNO 1371   5.587   0.517   9.867 -0.0514  0.0330  0.0416
  104POPS   PO4 1372   5.818   0.335  10.246 -0.3975 -0.1064 -0.0994
  104POPS   GL1 1373   5.920   0.033   9.882  0.0899  0.0360 -0.0568
  104POPS   GL2 1374   6.222  -0.076   9.954  0.1927  0.1165  0.4535
  104POPS   C1A 1375   5.994  -0.028   9.433  0.0702  0.1959  0.2899
  104POPS   D2A 1376   6.038  -0.109   8.938 -0.1210  0.2350 -0.2173
  104POPS   C3A 1377   5.973   0.003   8.514  0.1212  0.1185 -0.2219
  104POPS   C4A 1378   5.676   0.010   8.233 -0.1208  0.2162  0.3262
  104POPS   C1B 1379   6.346   0.225   9.744 -0.1443  0.0670 -0.0724
  104POPS   C2B 1380   6.335   0.242   9.242  0.5069  0.1013  0.0973
  104POPS   C3B 1381   6.213   0.506   8.787  0.2027 -0.1920 -0.2780
  104POPS   C4B 1382   6.229   0.430   8.356 -0.1914  0.1778  0.0213
  105POPS   CNO 1383  12.200  15.281  11.373 -0.0449 -0.0128 -0.1042
  105POPS   PO4 1384  12.238  15.292  10.994 -0.0248  0.1969 -0.0534
  105POPS   GL1 1385  12.030  15.126  10.637  0.2618 -0.1282 -0.1613
  105POPS   GL2 1386  11.670  14.980  10.648 -0.0021 -0.1221 -0.1298
  105POPS   C1A 1387  12.167  15.184  10.199 -0.0363 -0.3599  0.1539
  105POPS   D2A 1388  12.037  15.118   9.831  0.0865 -0.1021 -0.0014
  105POPS   C3A 1389  11.930  15.192   9.402 -0.2609  0.0869  0.3016
  105POPS   C4A 1390  11.659  15.152   8.960  0.1416  0.1965 -0.1586
  105POPS   C1B 1391  11.752  14.958  10.228  0.0748  0.0900  0.2968
  105POPS   C2B 1392  11.624  14.840   9.770  0.2265 -0.0315 -0.1250
  105POPS   C3B 1393  11.530  14.806   9.320 -0.0297  0.0857 -0.0712
  105POPS   C4B 1394  11.672  14.638   8.936 -0.1404  0.0858  0.0497
  106POPS   CNO 1395   8.944   6.964  10.375  0.1486 -0.3484  0.1625
  106POPS   PO4 1396   9.368   7.210  10.473  0.0944  0.1012  0.1590
  106POPS   GL1 1397   9.328   7.419  10.131 -0.1922 -0.0534  0.5185
  106POPS   GL2 1398   8.999   7.374  10.018  0.1124 -0.1167  0.0659
  106POPS   C1A 1399   9.506   7.509   9.869 -0.0453  0.2893  0.0704
  106POPS   D2A 1400   9.551   7.590   9.534  0.1910  0.0303  0.2369
  106POPS   C3A 1401   9.535   7.646   9.088 -0.1275  0.1729  0.1565
  106POPS   C4A 1402   9.206   7.604   8.795  0.0077  0.0409 -0.0529
  106POPS   C1B 1403   9.087   7.374   9.622  0.0917  0.0287 -0.1694
  106POPS   C2B 1404   9.009   7.369   9.177 -0.1374  0.0873 -0.1052
  106POPS   C3B 1405   8.735   7.489   8.869 -0.2056  0.1098  0.0835
  106POPS   C4B 1406   8.316   7.498   8.766  0.0067  0.1234  0.2570
  107POPS   CNO 1407   8.986  11.240  11.502 -0.3130 -0.0283 -0.0819
  107POPS   PO4 1408   8.959  10.938  11.184  0.0230  0.0717 -0.0543
  107POPS   GL1 1409   8.990  11.012  10.675 -0.1191  0.1657 -0.0432
  107POPS   GL2 1410   9.422  11.008  10.520 -0.0390 -0.0190 -0.0241
  107POPS   C1A 1411   8.946  11.079  10.275  0.0652  0.0178 -0.0664
  107POPS   D2A 1412   8.951  11.101   9.797  0.0680 -0.0797 -0.0504
  107POPS   C3A 1413   8.861  10.757   9.475  0.0764  0.0154 -0.2530
  107POPS   C4A 1414   8.750  10.409   9.612  0.0548 -0.0610  0.0749
  107POPS   C1B 1415   9.420  11.069  10.087  0.3286 -0.4307 -0.0734
  107POPS   C2B 1416   9.465  11.140   9.743  0.1226  0.0424  0.1496
  107POPS   C3B 1417   9.662  11.348   9.415  0.0330  0.0204  0.0830
  107POPS   C4B 1418   9.957  11.473   9.170  0.1320  0.0334 -0.0262
  108POPS   CNO 1419   8.540   4.983  10.291  0.0591 -0.3196  0.2987
  108POPS   PO4 1420   8.622   5.184  10.016 -0.0847 -0.2324 -0.1882
  108POPS   GL1 1421   8.742   5.461   9.600 -0.1017 -0.1013  0.2204
  108POPS   GL2 1422   8.518   5.473   9.378  0.0195  0.2914 -0.2324
  108POPS   C1A 1423   9.029   5.557   9.254 -0.0535  0.1518 -0.0369
  108POPS   D2A 1424   9.120   5.492   8.814  0.1199  0.3512  0.0801
  108POPS   C3A 1425   9.068   5.876   8.639  0.0125 -0.4539  0.1551
  108POPS   C4A 1426   9.148   6.131   8.369  0.0327  0.1089  0.2147
  108POPS   C1B 1427   8.650   5.482   8.935 -0.2225 -0.0200  0.0300
  108POPS   C2B 1428   8.569   5.505   8.526 -0.2055  0.3657  0.1594
  108POPS   C3B 1429   8.939   5.462   8.285  0.1369  0.1882 -0.1597
  108POPS   C4B 1430   9.399   5.259   8.050  0.1454  0.1840  0.1309
  109POPS   CNO 1431   3.736  10.023  10.439  0.0824 -0.4207 -0.1470
  109POPS   PO4 1432   4.068  10.141  10.669 -0.0719  0.1060  0.0254
  109POPS   GL1 1433   4.410  10.128  10.439 -0.2210 -0.0789  0.0180
  109POPS   GL2 1434   4.605   9.801  10.499  0.3574 -0.4099  0.0636
  109POPS   C1A 1435   4.745  10.121  10.115  0.3831  0.2062  0.1465
  109POPS   D2A 1436   4.768  10.301   9.743  0.1577  0.2758 -0.3530
  109POPS   C3A 1437   4.357  10.260   9.586 -0.1960 -0.1385  0.0257
  109POPS   C4A 1438   4.038  10.164   9.367  0.0843  0.0500  0.2798
  109POPS   C1B 1439   4.373   9.692  10.123 -0.2878  0.4693 -0.1203
  109POPS   C2B 1440   4.159   9.754   9.685  0.0367 -0.2532  0.1425
  109POPS   C3B 1441   4.174   9.717   9.232 -0.1810  0.1115  0.0150
  109POPS   C4B 1442   4.280   9.507   8.887 -0.2821  0.0105 -0.0054
  110POPS   CNO 1443   4.759   9.173  10.891 -0.2869  0.0824  0.0177
  110POPS   PO4 1444   4.612   8.835  10.826 -0.0464  0.2202 -0.0350
  110POPS   GL1 1445   4.552   8.747  10.436 -0.0041  0.1934 -0.1010
  110POPS   GL2 1446   4.587   8.562  10.384  0.1029  0.3873 -0.1695
  110POPS   C1A 1447   4.643   8.931  10.050 -0.1261 -0.0114 -0.1402
  110POPS   D2A 1448   4.456   9.279   9.839  0.0210  0.2495 -0.1715
  110POPS   C3A 1449   4.447   9.273   9.350 -0.0698  0.1403  0.1324
  110POPS   C4A 1450   4.747   9.462   9.133  0.1533 -0.1657  0.0692
  110POPS   C1B 1451   4.286   8.453  10.045 -0.2405  0.0241  0.1304
  110POPS   C2B 1452   4.241   8.251   9.662 -0.0665  0.2509  0.4349
  110POPS   C3B 1453   4.179   8.163   9.299 -0.3742  0.2135 -0.2251
  110POPS   C4B 1454   4.162   8.237   8.944  0.0650 -0.0148  0.2355
  111POPS   CNO 1455   6.335  16.589  10.298 -0.1031  0.0672 -0.0769
  111POPS   PO4 1456   6.568  16.310  10.308 -0.0029 -0.1318 -0.0204
  111POPS   GL1 1457   6.728  16.402   9.939  0.1545  0.1087 -0.1106
  111POPS   GL2 1458   6.938  16.232   9.898  0.2156 -0.0118 -0.0651
  111POPS   C1A 1459   6.886  16.644   9.566  0.3272  0.0564  0.0865
  111POPS   D2A 1460   7.064  16.913   9.304 -0.0481  0.0031 -0.3561
  111POPS   C3A 1461   7.135  17.130   8.919 -0.3834 -0.1015 -0.0550
  111POPS   C4A 1462   7.423  17.026   8.556 -0.4287 -0.0424  0.0221
  111POPS   C1B 1463   7.268  15.958   9.779 -0.2706 -0.0417  0.1064
  111POPS   C2B 1464   7.400  16.011   9.331  0.1732  0.3233 -0.2437
  111POPS   C3B 1465   7.410  16.043   8.890  0.0734 -0.1286 -0.1467
  111POPS   C4B 1466   7.426  16.158   8.479  0.1470 -0.0144 -0.0138
  112POPS   CNO 1467  11.165   2.575  10.578 -0.2895 -0.1991  0.1461
  112POPS   PO4 1468  11.052   2.926  10.434  0.1530 -0.2321 -0.1457
  112POPS   GL1 1469  11.282   2.855  10.086 -0.1224  0.4081  0.0823
  112POPS   GL2 1470  11.547   2.872  10.008 -0.2732  0.0514  0.1345
  112POPS   C1A 1471  11.441   2.798   9.586  0.0012  0.0347  0.0020
  112POPS   D2A 1472  11.733   2.783   9.241  0.0367  0.1907 -0.0254
  112POPS   C3A 1473  11.894   2.449   9.006  0.2966  0.1781  0.0277
  112POPS   C4A 1474  11.794   2.148   8.892  0.0785 -0.0899  0.1501
  112POPS   C1B 1475  11.962   2.892   9.664 -0.0450  0.1898 -0.1361
  112POPS   C2B 1476  12.148   3.198   9.477 -0.1024 -0.2273 -0.4239
  112POPS   C3B 1477  12.093   3.443   9.088  0.0067  0.1418  0.1435
  112POPS   C4B 1478  11.863   3.657   8.764  0.0444 -0.0378 -0.0492
  113POPS   CNO 1479  11.376  17.037  11.133 -0.0061 -0.1064  0.0802
  113POPS   PO4 1480  11.435  16.702  10.743 -0.5223 -0.0606 -0.0431
  113POPS   GL1 1481  11.488  16.765  10.324 -0.0483 -0.4501  0.0899
  113POPS   GL2 1482  11.220  16.897  10.236 -0.0150  0.1067  0.0354
  113POPS   C1A 1483  11.579  16.682   9.926  0.0103 -0.1062 -0.0219
  113POPS   D2A 1484  11.864  16.399   9.627  0.2292 -0.1052 -0.0645
  113POPS   C3A 1485  11.991  16.527   9.142 -0.2282 -0.1556 -0.1448
  113POPS   C4A 1486  12.300  16.262   8.909  0.3543 -0.2843  0.1896
  113POPS   C1B 1487  11.066  16.858   9.864 -0.2419  0.0101 -0.0680
  113POPS   C2B 1488  11.102  16.732   9.398  0.1728 -0.3715  0.0168
  113POPS   C3B 1489  11.141  16.622   8.994  0.1089  0.3707 -0.0668
  113POPS   C4B 1490  11.317  16.853   8.638 -0.0231  0.1035  0.1779
  114POPS   CNO 1491   3.068  11.583   9.975  0.2659  0.0788 -0.2441
  114POPS   PO4 1492   2.976  11.140  10.201  0.1487  0.1178  0.0939
  114POPS   GL1 1493   2.903  11.072   9.763 -0.1874 -0.3336  0.0788
  114POPS   GL2 1494   3.134  11.212   9.648 -0.1201  0.0122 -0.2146
  114POPS   C1A 1495   2.754  10.730   9.417 -0.0969 -0.0948  0.0418
  114POPS   D2A 1496   2.851  10.407   9.178 -0.2657  0.0360 -0.0419
  114POPS   C3A 1497   3.148  10.332   8.846  0.2591  0.1367 -0.0211
  114POPS   C4A 1498   3.446  10.361   8.500  0.2223  0.0426 -0.0358
  114POPS   C1B 1499   3.241  10.865   9.335 -0.1523  0.0936  0.1274
  114POPS   C2B 1500   3.444  10.724   8.975  0.1838 -0.3823 -0.1309
  114POPS   C3B 1501   3.789  10.886   8.772 -0.1420  0.0742  0.0720
  114POPS   C4B 1502   4.036  11.074   8.503 -0.1707 -0.2386 -0.1614
  115POPS   CNO 1503   6.957  11.260  11.169  0.3102 -0.1513 -0.0151
  115POPS   PO4 1504   7.184  11.217  10.855  0.0114 -0.2239  0.1118
  115POPS   GL1 1505   7.235  11.291  10.418 -0.0122 -0.0325  0.2325
  115POPS   GL2 1506   6.949  11.401  10.252  0.1272 -0.0555 -0.2496
  115POPS   C1A 1507   7.398  11.482  10.103 -0.1218  0.2729  0.1944
  115POPS   D2A 1508   7.407  11.653   9.662 -0.1527 -0.2274  0.2623
  115POPS   C3A 1509   7.150  11.444   9.358 -0.0497  0.3327  0.0610
  115POPS   C4A 1510   7.168  11.382   8.968 -0.1837 -0.0898  0.2043
  115POPS   C1B 1511   6.918  11.251   9.911  0.0705 -0.1728 -0.3633
  115POPS   C2B 1512   6.899  11.026   9.549  0.0108 -0.0525  0.1266
  115POPS   C3B 1513   6.810  11.044   9.167 -0.1200  0.2247 -0.0008
  115POPS   C4B 1514   6.922  10.924   8.807  0.2817 -0.0687  0.0060
  116POPS   CNO 1515  14.953   9.844  11.249 -0.0359 -0.0901 -0.2843
  116POPS   PO4 1516  14.957   9.898  10.744  0.1093  0.2296 -0.1381
  116POPS   GL1 1517  14.895  10.014  10.317  0.1523 -0.0249 -0.2945
  116POPS   GL2 1518  15.063  10.354  10.400 -0.0154  0.0597 -0.1699
  116POPS   C1A 1519  14.689  10.012   9.927  0.0954  0.1534 -0.1349
  116POPS   D2A 1520  14.456  10.002   9.504  0.0166  0.2054  0.4393
  116POPS   C3A 1521  14.512   9.766   9.140 -0.0203  0.2066  0.1307
  116POPS   C4A 1522  14.647   9.761   8.667  0.1992  0.1779 -0.0344
  116POPS   C1B 1523  14.924  10.506  10.018 -0.3467 -0.0058  0.0235
  116POPS   C2B 1524  14.783  10.403   9.637 -0.1616  0.1423 -0.0567
  116POPS   C3B 1525  14.590  10.299   9.112  0.0316 -0.0074  0.0302
  116POPS   C4B 1526  14.461  10.540   8.786  0.2620  0.3851 -0.0504
  117POPS   CNO 1527   0.918  17.471   9.859 -0.4755 -0.0635  0.0831
  117POPS   PO4 1528   1.313  17.470   9.833 -0.1278 -0.0215 -0.0009
  117POPS   GL1 1529   1.026  17.515   9.369  0.1474  0.3102  0.2628
  117POPS   GL2 1530   0.660  17.502   9.329 -0.0380  0.5138 -0.1295
  117POPS   C1A 1531   0.910  17.436   8.907 -0.0382 -0.1032  0.1413
  117POPS   D2A 1532   0.712  17.321   8.556 -0.0761  0.0548 -0.1342
  117POPS   C3A 1533   0.508  17.630   8.383  0.4410 -0.0145  0.2374
  117POPS   C4A 1534   0.527  17.674   8.039  0.0400  0.1762 -0.0102
  117POPS   C1B 1535   0.380  17.496   8.900 -0.2622  0.0509  0.1972
  117POPS   C2B 1536   0.140  17.806   8.703 -0.3540 -0.0846  0.1531
  117POPS   C3B 1537  -0.111  17.784   8.382 -0.0075 -0.0074  0.0409
  117POPS   C4B 1538  -0.320  17.801   7.983  0.0771 -0.3014  0.3594
  118POPS   CNO 1539  14.158   9.297  11.128  0.0974 -0.0753 -0.0188
  118POPS   PO4 1540  14.059   9.534  10.738  0.0972 -0.1375  0.1581
  118POPS   GL1 1541  13.737   9.678  10.526 -0.1864 -0.2412 -0.2722
  118POPS   GL2 1542  13.584   9.505  10.210 -0.1144 -0.0510 -0.1381
  118POPS   C1A 1543  13.762   9.988  10.194  0.0398  0.1984  0.0193
  118POPS   D2A 1544  13.891  10.140   9.826  0.0968 -0.0390 -0.2124
  118POPS   C3A 1545  13.685  10.488   9.707  0.2624 -0.0030  0.2040
  118POPS   C4A 1546  13.659  10.585   9.291  0.0908  0.1930 -0.0249
  118POPS   C1B 1547  13.533   9.612   9.783 -0.1296  0.0349 -0.1777
  118POPS   C2B 1548  13.447   9.436   9.436 -0.1154  0.0866 -0.0965
  118POPS   C3B 1549  13.502   9.453   9.026  0.2557  0.1684 -0.1059
  118POPS   C4B 1550  13.112   9.256   8.842  0.0199  0.0899 -0.1193
  119POPS   CNO 1551   4.474  10.596  11.003  0.2242  0.1489  0.1304
  119POPS   PO4 1552   4.677  11.011  11.062  0.0391  0.0367  0.0251
  119POPS   GL1 1553   4.679  10.831  10.588 -0.1410 -0.2212 -0.5364
  119POPS   GL2 1554   4.541  11.136  10.337  0.3322  0.1763  0.1923
  119POPS   C1A 1555   4.582  10.696  10.180 -0.1537  0.2285 -0.0189
  119POPS   D2A 1556   4.442  10.833   9.767 -0.1907  0.0437  0.3096
  119POPS   C3A 1557   4.569  10.691   9.422 -0.0856  0.1389 -0.1028
  119POPS   C4A 1558   4.406  10.438   9.102 -0.2879 -0.3527  0.0477
  119POPS   C1B 1559   4.360  11.333   9.911  0.0753 -0.3870  0.2179
  119POPS   C2B 1560   4.417  11.275   9.397 -0.1359 -0.1200  0.0620
  119POPS   C3B 1561   4.735  11.079   9.036 -0.0561  0.1566 -0.0463
  119POPS   C4B 1562   4.971  10.753   8.978  0.0732 -0.0009 -0.3293
  120POPS   CNO 1563   3.238  10.058  10.621  0.0433 -0.5301  0.1839
  120POPS   PO4 1564   3.042   9.658  10.571  0.0533 -0.2431 -0.2744
  120POPS   GL1 1565   3.259   9.732  10.223 -0.1428 -0.0945  0.2070
  120POPS   GL2 1566   3.107   9.475  10.076 -0.1348  0.3931  0.0374
  120POPS   C1A 1567   3.668   9.749  10.006  0.1426  0.1149  0.0363
  120POPS   D2A 1568   4.015  10.059  10.048 -0.0671  0.2043  0.1195
  120POPS   C3A 1569   4.090  10.509  10.002  0.2758 -0.0753  0.0283
  120POPS   C4A 1570   4.019  10.912  10.123 -0.4016 -0.2568 -0.1691
  120POPS   C1B 1571   3.400   9.441   9.700 -0.0097 -0.4179  0.0951
  120POPS   C2B 1572   3.356   9.438   9.222  0.3683 -0.3061 -0.2042
  120POPS   C3B 1573   3.460   9.384   8.885 -0.1315  0.1614  0.0584
  120POPS   C4B 1574   3.877   9.413   8.630  0.2893 -0.1353 -0.3442
  121POPS   CNO 1575   1.219   3.005   9.962 -0.1413  0.2287 -0.1427
  121POPS   PO4 1576   0.903   2.930  10.183  0.0895 -0.1827  0.2075
  121POPS   GL1 1577   0.802   2.765   9.804  0.0015 -0.1642  0.0696
  121POPS   GL2 1578   0.661   2.448   9.823 -0.0002 -0.1636  0.1959
  121POPS   C1A 1579   0.759   2.683   9.283 -0.1074 -0.0751  0.0519
  121POPS   D2A 1580   0.901   2.684   8.876  0.2132  0.0034 -0.0017
  121POPS   C3A 1581   0.724   2.963   8.651  0.1639 -0.0575  0.1444
  121POPS   C4A 1582   0.568   3.154   8.300  0.2342 -0.0450  0.0204
  121POPS   C1B 1583   0.366   2.380   9.537  0.2627  0.0571 -0.2517
  121POPS   C2B 1584   0.413   2.337   9.101 -0.2801 -0.2422  0.2295
  121POPS   C3B 1585   0.405   2.392   8.628 -0.0884  0.1181  0.1207
  121POPS   C4B 1586   0.480   2.653   8.318  0.0872 -0.2215 -0.0478
  122POPS   CNO 1587   0.522   0.264   9.550  0.0250  0.1976  0.1088
  122POPS   PO4 1588   0.748  -0.100   9.667 -0.0626 -0.2733  0.0387
  122POPS   GL1 1589   0.975   0.139   9.367  0.1716 -0.2289  0.1793
  122POPS   GL2 1590   1.253   0.020   9.307  0.0439 -0.2307 -0.3483
  122POPS   C1A 1591   0.989   0.318   8.986  0.0154  0.1885 -0.0067
  122POPS   D2A 1592   1.148   0.425   8.633  0.0768 -0.1200 -0.1236
  122POPS   C3A 1593   0.821   0.338   8.232 -0.0288 -0.0558  0.2160
  122POPS   C4A 1594   0.681   0.684   7.878  0.0588  0.1332 -0.3056
  122POPS   C1B 1595   1.393  -0.020   8.954  0.1568 -0.2411 -0.0495
  122POPS   C2B 1596   1.427  -0.149   8.530 -0.1655  0.0692  0.1764
  122POPS   C3B 1597   1.483  -0.349   8.190  0.0584  0.0481  0.2060
  122POPS   C4B 1598   1.863  -0.439   8.101  0.0727 -0.1090  0.1710
  123POPS   CNO 1599  11.509  12.041  10.972  0.2238 -0.0163  0.0883
  123POPS   PO4 1600  11.871  12.218  11.054 -0.0070 -0.1644  0.3878
  123POPS   GL1 1601  11.871  12.252  10.568 -0.1183 -0.1406 -0.1479
  123POPS   GL2 1602  12.044  12.544  10.587  0.0640 -0.1110 -0.4002
  123POPS   C1A 1603  11.739  12.459  10.163 -0.0581  0.1786  0.2662
  123POPS   D2A 1604  11.876  12.474   9.790 -0.0188  0.1644 -0.0601
  123POPS   C3A 1605  12.225  12.382   9.644  0.0449 -0.0830  0.1501
  123POPS   C4A 1606  12.348  12.462   9.260 -0.0476 -0.1187  0.0819
  123POPS   C1B 1607  12.245  12.442  10.165 -0.2325  0.0177  0.0998
  123POPS   C2B 1608  12.572  12.425   9.929 -0.2656  0.2261 -0.1205
  123POPS   C3B 1609  12.770  12.242   9.547 -0.1684  0.1158 -0.0920
  123POPS   C4B 1610  12.855  12.447   9.110  0.0403  0.1376  0.1999
  124POPS   CNO 1611   0.918  12.903  10.348  0.0619 -0.2333 -0.0996
  124POPS   PO4 1612   0.757  13.176  10.081 -0.1939  0.0347  0.1976
  124POPS   GL1 1613   0.797  13.257   9.727 -0.1456 -0.1164 -0.0491
  124POPS   GL2 1614   1.006  13.336   9.492  0.1714 -0.0840  0.1548
  124POPS   C1A 1615   0.831  12.885   9.365  0.0159  0.2502 -0.0366
  124POPS   D2A 1616   0.618  12.758   9.092  0.0552 -0.1265 -0.1751
  124POPS   C3A 1617   0.539  12.951   8.735 -0.1118  0.0624  0.2403
  124POPS   C4A 1618   0.302  13.231   8.456  0.1183  0.0233  0.1494
  124POPS   C1B 1619   0.967  13.355   9.053 -0.0222  0.0034 -0.2504
  124POPS   C2B 1620   1.188  13.160   8.791  0.2440 -0.0532  0.2888
  124POPS   C3B 1621   1.384  13.097   8.442  0.0178  0.1298 -0.1558
  124POPS   C4B 1622   1.193  13.159   8.039  0.0804  0.1400  0.2167
  125POPS   CNO 1623   4.831   1.393  10.248 -0.1643 -0.3725 -0.0259
  125POPS   PO4 1624   4.646   1.531   9.924  0.0941 -0.3104 -0.1229
  125POPS   GL1 1625   4.725   1.481   9.552  0.1614 -0.0792  0.0714
  125POPS   GL2 1626   5.071   1.315   9.455 -0.0295  0.0106 -0.0232
  125POPS   C1A 1627   4.760   1.459   9.085 -0.1795  0.2123  0.3045
  125POPS   D2A 1628   4.835   1.751   8.806 -0.2904  0.0622  0.3788
  125POPS   C3A 1629   4.622   1.886   8.556  0.3789 -0.0996  0.2091
  125POPS   C4A 1630   4.563   2.200   8.249  0.3265 -0.1200 -0.0175
  125POPS   C1B 1631   5.042   1.790   9.321 -0.0633  0.1557 -0.1133
  125POPS   C2B 1632   5.073   2.217   9.066 -0.0061  0.0290  0.1154
  125POPS   C3B 1633   4.950   2.282   8.660  0.2085  0.0594 -0.0147
  125POPS   C4B 1634   5.049   2.597   8.317  0.0430  0.1298  0.2211
  126POPS   CNO 1635  13.618   7.563  10.612 -0.1049  0.2463 -0.1439
  126POPS   PO4 1636  13.915   7.363  10.702  0.0595 -0.1152  0.0749
  126POPS   GL1 1637  13.954   7.236  10.292  0.1909 -0.0772  0.0483
  126POPS   GL2 1638  14.124   6.890  10.222 -0.0780  0.2056 -0.1426
  126POPS   C1A 1639  13.995   7.408   9.883 -0.0001  0.3822 -0.4866
  126POPS   D2A 1640  14.117   7.689   9.509  0.0378  0.0865 -0.2649
  126POPS   C3A 1641  13.886   7.581   9.120 -0.1140 -0.1444 -0.0523
  126POPS   C4A 1642  13.598   7.347   8.900 -0.3041 -0.0881  0.2476
  126POPS   C1B 1643  14.047   6.921   9.836  0.0747  0.0868  0.0356
  126POPS   C2B 1644  14.012   7.180   9.426 -0.0248 -0.1711  0.0523
  126POPS   C3B 1645  14.040   7.127   8.981  0.1342 -0.0940 -0.0366
  126POPS   C4B 1646  14.040   6.870   8.588  0.2776 -0.0831  0.3001
  127POPS   CNO 1647  10.749   8.546  10.898  0.1042  0.0968 -0.2331
  127POPS   PO4 1648  10.841   8.132  10.877  0.4090  0.2841 -0.0326
  127POPS   GL1 1649  10.760   8.016  10.420 -0.1336 -0.0656  0.1257
  127POPS   GL2 1650  10.593   7.691  10.348 -0.3953 -0.0404 -0.1858
  127POPS   C1A 1651  11.006   7.917  10.106  0.0675 -0.0232  0.0737
  127POPS   D2A 1652  11.011   7.756   9.787 -0.0725 -0.0018  0.2727
  127POPS   C3A 1653  11.032   7.920   9.376 -0.0291 -0.1405 -0.1655
  127POPS   C4A 1654  10.918   7.930   8.952 -0.0479  0.0148 -0.1535
  127POPS   C1B 1655  10.505   7.841   9.938 -0.1502  0.0526 -0.1777
  127POPS   C2B 1656  10.583   8.116   9.569  0.0268 -0.0331  0.0573
  127POPS   C3B 1657  10.644   8.372   9.255  0.0898  0.1783  0.0443
  127POPS   C4B 1658  10.449   8.623   9.042  0.0581  0.0976  0.0747
  128POPS   CNO 1659   3.634   4.744  10.827  0.1895 -0.0791  0.0055
  128POPS   PO4 1660   3.514   5.045  10.625 -0.2530 -0.0951 -0.2064
  128POPS   GL1 1661   3.393   4.861  10.373 -0.0869 -0.0564  0.0118
  128POPS   GL2 1662   3.309   4.581  10.164 -0.0134 -0.3696 -0.0141
  128POPS   C1A 1663   3.256   5.160  10.060  0.0633 -0.2165 -0.2700
  128POPS   D2A 1664   3.078   5.421   9.887  0.1827 -0.0055 -0.0625
  128POPS   C3A 1665   3.233   5.622   9.492 -0.2406  0.2437 -0.3210
  128POPS   C4A 1666   3.391   5.657   9.012 -0.0516 -0.2665  0.1008
  128POPS   C1B 1667   3.133   4.748   9.788 -0.1671  0.0119 -0.1173
  128POPS   C2B 1668   3.138   5.060   9.484  0.2786  0.1678 -0.0432
  128POPS   C3B 1669   3.148   5.208   9.184  0.0149  0.2424  0.1131
  128POPS   C4B 1670   3.011   5.426   8.768  0.1283 -0.1670 -0.1956
  129POPS   CNO 1671  10.048   6.322  10.241 -0.2983 -0.1630  0.0386
  129POPS   PO4 1672  10.334   6.079  10.383  0.0964  0.0708 -0.0947
  129POPS   GL1 1673  10.578   6.288  10.089 -0.2360 -0.1791 -0.1786
  129POPS   GL2 1674  10.853   6.483  10.203  0.0039  0.0060 -0.0087
  129POPS   C1A 1675  10.587   6.368   9.618  0.0468  0.0268  0.3027
  129POPS   D2A 1676  10.480   6.587   9.206 -0.1976  0.0656 -0.2279
  129POPS   C3A 1677  10.274   6.576   8.840  0.1858 -0.0016 -0.1453
  129POPS   C4A 1678  10.067   6.516   8.457  0.2027 -0.1020  0.0768
  129POPS   C1B 1679  11.026   6.346   9.778  0.0122  0.1079 -0.1091
  129POPS   C2B 1680  10.987   6.380   9.312 -0.0816  0.1365 -0.3320
  129POPS   C3B 1681  10.857   6.384   8.930  0.0982  0.2888 -0.0171
  129POPS   C4B 1682  10.681   6.539   8.539 -0.1671  0.6177  0.2463
  130POPS   CNO 1683   0.170  17.910   9.721  0.1879  0.2155  0.2550
  130POPS   PO4 1684  -0.056  18.358   9.777  0.0792 -0.0523 -0.0380
  130POPS   GL1 1685   0.052  18.347   9.354 -0.0383 -0.0144  0.2297
  130POPS   GL2 1686  -0.084  18.063   9.291 -0.0390 -0.0669 -0.3326
  130POPS   C1A 1687   0.121  18.233   8.892  0.1310 -0.1205  0.0756
  130POPS   D2A 1688  -0.073  18.398   8.588  0.0847 -0.1701 -0.1065
  130POPS   C3A 1689  -0.048  18.252   8.168 -0.4258  0.0480 -0.3002
  130POPS   C4A 1690   0.025  18.087   7.716  0.0997 -0.0435 -0.0411
  130POPS   C1B 1691  -0.387  17.861   8.984  0.1620  0.1669  0.1469
  130POPS   C2B 1692  -0.538  17.934   8.588  0.0336 -0.1390 -0.0262
  130POPS   C3B 1693  -0.546  18.268   8.250 -0.0964  0.0121  0.1051
  130POPS   C4B 1694  -0.482  18.329   7.866 -0.0785  0.1545  0.0166
  131POPS   CNO 1695   7.206   2.067  10.007  0.0875 -0.3662 -0.1942
  131POPS   PO4 1696   6.952   1.680   9.866 -0.0209 -0.1451  0.1831
  131POPS   GL1 1697   7.226   1.867   9.552  0.1190  0.1890 -0.3678
  131POPS   GL2 1698   7.053   2.125   9.493  0.1286 -0.0651  0.0569
  131POPS   C1A 1699   7.150   1.926   9.080 -0.0622  0.2525 -0.3471
  131POPS   D2A 1700   6.828   1.983   8.755 -0.1056 -0.1036 -0.1148
  131POPS   C3A 1701   6.768   2.274   8.334 -0.0053  0.2621  0.0767
  131POPS   C4A 1702   6.835   2.349   7.824  0.0904 -0.2118  0.2520
  131POPS   C1B 1703   6.943   2.361   9.066  0.0963 -0.4588 -0.0021
  131POPS   C2B 1704   6.812   2.611   8.678 -0.1638 -0.1412 -0.1601
  131POPS   C3B 1705   6.528   2.859   8.420  0.0413  0.1417  0.0187
  131POPS   C4B 1706   6.435   3.231   8.091 -0.1634  0.0073 -0.0522
  132POPS   CNO 1707   9.760   8.687  11.140 -0.1464 -0.4192 -0.2442
  132POPS   PO4 1708   9.932   8.837  10.733 -0.1071  0.0418  0.0761
  132POPS   GL1 1709   9.945   9.116  10.406  0.1239  0.0539  0.2553
  132POPS   GL2 1710  10.234   9.247  10.315  0.0970 -0.1913 -0.0832
  132POPS   C1A 1711   9.823   9.106  10.031 -0.1711 -0.3685  0.0858
  132POPS   D2A 1712   9.842   9.153   9.624  0.0098 -0.0010  0.0498
  132POPS   C3A 1713   9.564   8.943   9.211  0.0395 -0.1351  0.2124
  132POPS   C4A 1714   9.702   8.908   8.734 -0.0378 -0.0425  0.0034
  132POPS   C1B 1715  10.219   9.427   9.963  0.0079 -0.2253  0.2423
  132POPS   C2B 1716  10.220   9.449   9.496 -0.0850 -0.1135  0.1340
  132POPS   C3B 1717  10.413   9.231   9.083 -0.0211  0.1728 -0.1266
  132POPS   C4B 1718  10.726   9.049   8.792  0.2495 -0.1763  0.1052
  133POPS   CNO 1719  16.141   0.584  10.748 -0.0661 -0.1454 -0.0038
  133POPS   PO4 1720  16.267   0.605  10.257 -0.1040  0.1046  0.0204
  133POPS   GL1 1721  16.372   0.655   9.781 -0.0146 -0.0495  0.3811
  133POPS   GL2 1722  16.132   0.927   9.612  0.4375  0.3126  0.1964
  133POPS   C1A 1723  16.391   0.443   9.463 -0.3980  0.1931 -0.0550
  133POPS   D2A 1724  16.444   0.319   9.064 -0.0060  0.1651 -0.2968
  133POPS   C3A 1725  16.122   0.193   8.786  0.2349 -0.0199  0.1127
  133POPS   C4A 1726  15.706   0.211   8.558  0.4196 -0.1045 -0.1307
  133POPS   C1B 1727  16.214   0.857   9.156  0.0647 -0.0625  0.0321
  133POPS   C2B 1728  16.308   0.742   8.792  0.0260 -0.1350  0.3203
  133POPS   C3B 1729  16.327   0.897   8.417 -0.2437  0.1243 -0.1093
  133POPS   C4B 1730  16.450   1.144   8.004 -0.0767 -0.0225 -0.0975
  134POPS   CNO 1731   1.460   6.424  10.771  0.1939  0.0030 -0.0343
  134POPS   PO4 1732   1.702   6.790  10.573  0.0030  0.0138  0.1546
  134POPS   GL1 1733   1.614   6.738  10.025 -0.1890 -0.0311  0.3167
  134POPS   GL2 1734   1.533   6.543   9.726 -0.0723  0.2426  0.3483
  134POPS   C1A 1735   1.469   7.056   9.658  0.3646 -0.0528  0.3583
  134POPS   D2A 1736   1.380   7.106   9.297  0.0484 -0.3391  0.2142
  134POPS   C3A 1737   1.318   6.884   8.939 -0.2669  0.3372 -0.0912
  134POPS   C4A 1738   1.400   6.495   8.746  0.2302 -0.1160  0.0018
  134POPS   C1B 1739   1.767   6.668   9.376 -0.2164 -0.0116  0.1609
  134POPS   C2B 1740   1.814   6.792   8.993  0.0386 -0.2768  0.2515
  134POPS   C3B 1741   1.734   7.086   8.697  0.1783  0.0549 -0.1143
  134POPS   C4B 1742   1.390   6.973   8.419 -0.0592  0.2822  0.2199
  135POPS   CNO 1743  14.702   4.781  10.031 -0.1109  0.0514  0.0879
  135POPS   PO4 1744  14.758   4.409  10.332 -0.0267  0.2037 -0.3441
  135POPS   GL1 1745  14.855   4.310   9.887 -0.2811  0.0709 -0.0783
  135POPS   GL2 1746  14.509   4.380   9.742 -0.0996  0.2649  0.1326
  135POPS   C1A 1747  15.047   4.266   9.490  0.2051  0.1491  0.2197
  135POPS   D2A 1748  15.179   4.316   9.032  0.1611 -0.2577  0.2887
  135POPS   C3A 1749  14.979   4.360   8.687 -0.2703  0.2359 -0.1773
  135POPS   C4A 1750  14.713   4.038   8.558  0.1625 -0.2142 -0.2686
  135POPS   C1B 1751  14.775   4.696   9.504  0.1888 -0.1935 -0.0033
  135POPS   C2B 1752  14.937   4.702   9.170 -0.1964 -0.3072 -0.0975
  135POPS   C3B 1753  15.214   4.826   8.936 -0.0005  0.1384  0.3568
  135POPS   C4B 1754  15.447   5.180   8.957  0.0932 -0.1518 -0.2642
  136POPS   CNO 1755  10.610  15.501  11.093  0.0274  0.1156 -0.0176
  136POPS   PO4 1756  10.929  15.157  11.293 -0.0239 -0.0966  0.0422
  136POPS   GL1 1757  11.224  15.157  10.969  0.0710 -0.2886 -0.0067
  136POPS   GL2 1758  11.221  14.777  10.890  0.2180  0.0546 -0.0231
  136POPS   C1A 1759  11.450  15.393  10.623  0.1121  0.0429  0.3489
  136POPS   D2A 1760  11.714  15.486  10.164 -0.0199 -0.0254 -0.0590
  136POPS   C3A 1761  11.590  15.398   9.722  0.0099  0.2209 -0.3516
  136POPS   C4A 1762  11.590  15.508   9.355  0.0843  0.2771 -0.1988
  136POPS   C1B 1763  11.173  14.999  10.465 -0.4876 -0.3917 -0.4221
  136POPS   C2B 1764  11.290  15.057  10.086 -0.4356 -0.1463  0.2061
  136POPS   C3B 1765  11.167  15.146   9.599  0.3852  0.0698  0.0201
  136POPS   C4B 1766  10.903  15.154   9.211 -0.0337 -0.2005  0.0134
  137POPS   CNO 1767   8.916  16.783  10.506 -0.0796  0.0855 -0.1975
  137POPS   PO4 1768   9.001  16.477  10.698 -0.1726 -0.0373 -0.0039
  137POPS   GL1 1769   8.761  16.306  10.313 -0.0937 -0.0855 -0.1989
  137POPS   GL2 1770   8.771  15.956  10.315 -0.1087 -0.2148  0.1168
  137POPS   C1A 1771   9.090  16.243   9.976  0.1103 -0.0775  0.0993
  137POPS   D2A 1772   9.152  16.372   9.491  0.0112  0.0196  0.1188
  137POPS   C3A 1773   9.186  16.148   9.215 -0.3925 -0.0621  0.0264
  137POPS   C4A 1774   9.258  15.738   9.138  0.1539  0.2354 -0.4196
  137POPS   C1B 1775   8.454  16.000  10.020 -0.2603 -0.1861 -0.0164
  137POPS   C2B 1776   8.355  16.026   9.600 -0.0782 -0.0155  0.1223
  137POPS   C3B 1777   8.291  16.243   9.263  0.1208 -0.1563 -0.0285
  137POPS   C4B 1778   8.297  16.594   9.045  0.0521 -0.0229  0.0730
  138YOPS   CNO 1779  12.986  13.210  10.938 -0.1872  0.2088 -0.1102
  138YOPS   PO4 1780  13.071  13.724  11.058 -0.0217  0.2562  0.1162
  138YOPS   GL1 1781  12.866  13.640  10.632 -0.0319 -0.0827 -0.3366
  138YOPS   GL2 1782  12.543  13.395  10.577  0.0954  0.1515  0.1720
  138YOPS   C1A 1783  12.674  13.912  10.234 -0.0588  0.1048  0.1849
  138YOPS   D2A 1784  12.678  14.030   9.763 -0.1148 -0.0128 -0.1692
  138YOPS   C3A 1785  12.920  14.020   9.423 -0.2749  0.1479  0.1287
  138YOPS   C4A 1786  12.751  13.823   9.047  0.2673  0.0883  0.2030
  138YOPS   C1B 1787  12.687  13.413  10.208 -0.2406  0.2106  0.3135
  138YOPS   C2B 1788  12.626  13.521   9.832  0.2224 -0.2740 -0.2406
  138YOPS   D3B 1789  12.538  13.655   9.510 -0.0429  0.2911  0.0939
  138YOPS   C4B 1790  12.529  13.357   9.248 -0.1008  0.1372 -0.0745
  139YOPS   CNO 1791   9.834   4.348  10.130 -0.0094 -0.1689  0.1317
  139YOPS   PO4 1792  10.057   3.979  10.020 -0.2228 -0.2115 -0.3974
  139YOPS   GL1 1793   9.866   4.105   9.658 -0.1025 -0.1698  0.1792
  139YOPS   GL2 1794   9.517   4.193   9.720 -0.1642  0.1381  0.2596
  139YOPS   C1A 1795   9.915   4.056   9.227  0.2230 -0.0288  0.0162
  139YOPS   D2A 1796   9.936   4.062   8.723  0.3394  0.0015  0.0296
  139YOPS   C3A 1797  10.000   3.897   8.243 -0.1074 -0.1487 -0.0936
  139YOPS   C4A 1798   9.651   3.758   7.980  0.0927 -0.4070  0.2811
  139YOPS   C1B 1799   9.413   4.231   9.219  0.0038 -0.2267  0.1162
  139YOPS   C2B 1800   9.426   4.064   8.857  0.2597  0.2220 -0.0844
  139YOPS   D3B 1801   9.508   3.921   8.405  0.4594  0.0908 -0.0362
  139YOPS   C4B 1802   9.450   3.407   8.244  0.0427 -0.1278 -0.1123
  140YOPS   CNO 1803   1.519  17.098  10.246 -0.2570  0.0980 -0.1379
  140YOPS   PO4 1804   1.783  17.357  10.181  0.2992 -0.0207  0.1677
  140YOPS   GL1 1805   1.570  17.085   9.709  0.2102 -0.2155 -0.0881
  140YOPS   GL2 1806   1.295  17.065   9.487  0.2710  0.0373  0.0260
  140YOPS   C1A 1807   1.877  17.140   9.347  0.0164 -0.2595 -0.1202
  140YOPS   D2A 1808   2.333  16.889   9.134 -0.1833  0.0867  0.0686
  140YOPS   C3A 1809   2.604  16.763   8.735  0.0806  0.4579 -0.2446
  140YOPS   C4A 1810   2.605  16.830   8.400  0.0052 -0.1724 -0.0801
  140YOPS   C1B 1811   1.312  16.820   9.060 -0.1470  0.1683 -0.0217
  140YOPS   C2B 1812   1.429  16.751   8.572  0.0913 -0.0041 -0.2019
  140YOPS   D3B 1813   1.455  16.676   8.202 -0.2155  0.1017 -0.0831
  140YOPS   C4B 1814   1.841  16.871   7.995  0.2912 -0.1076  0.3245
  141YOPS   CNO 1815   0.724   5.882  10.348 -0.0608 -0.2869  0.0061
  141YOPS   PO4 1816   0.496   6.229  10.314 -0.1815 -0.0934  0.2668
  141YOPS   GL1 1817   0.470   6.085   9.878  0.0106 -0.2108 -0.0753
  141YOPS   GL2 1818   0.543   5.739   9.797  0.1657 -0.0074  0.1839
  141YOPS   C1A 1819   0.231   6.351   9.619 -0.0360 -0.1167 -0.1454
  141YOPS   D2A 1820   0.331   6.562   9.194 -0.1458 -0.0070 -0.2193
  141YOPS   C3A 1821   0.493   6.747   8.899  0.3398 -0.0231 -0.2364
  141YOPS   C4A 1822   0.506   6.457   8.691 -0.0931  0.1668  0.0665
  141YOPS   C1B 1823   0.478   6.039   9.336 -0.0969  0.2011  0.0900
  141YOPS   C2B 1824   0.305   6.036   8.967  0.3194  0.0033 -0.2560
  141YOPS   D3B 1825   0.273   5.709   8.584  0.0186 -0.1028 -0.0775
  141YOPS   C4B 1826   0.326   5.727   8.159  0.0377 -0.1764  0.0365
  142YOPS   CNO 1827  17.903  12.487  10.809 -0.2873 -0.3278 -0.2779
  142YOPS   PO4 1828  17.904  12.685  10.394 -0.0528 -0.4071 -0.0116
  142YOPS   GL1 1829  17.772  12.562   9.952 -0.0678 -0.0834  0.0477
  142YOPS   GL2 1830  18.094  12.671   9.886 -0.0085  0.1980 -0.0852
  142YOPS   C1A 1831  17.340  12.542   9.751  0.0659  0.3836  0.0730
  142YOPS   D2A 1832  17.194  12.388   9.430  0.0128  0.1775 -0.2545
  142YOPS   C3A 1833  16.844  12.250   9.146 -0.5855  0.0455  0.1081
  142YOPS   C4A 1834  17.048  12.116   8.790  0.0613 -0.1162  0.0405
  142YOPS   C1B 1835  17.922  12.365   9.536  0.3565 -0.1381  0.1938
  142YOPS   C2B 1836  17.795  12.434   9.247  0.1179 -0.0155  0.2405
  142YOPS   D3B 1837  17.837  12.507   8.735  0.0913  0.1311  0.0392
  142YOPS   C4B 1838  18.185  12.656   8.666 -0.0138  0.0476  0.2131
  143YOPS   CNO 1839   8.896  12.677  11.009  0.0566 -0.0229  0.0650
  143YOPS   PO4 1840   9.045  12.489  10.718 -0.0434  0.2910  0.0908
  143YOPS   GL1 1841   9.198  12.567  10.385 -0.0672 -0.5328 -0.0689
  143YOPS   GL2 1842   9.537  12.662  10.484  0.1427  0.1003 -0.1357
  143YOPS   C1A 1843   9.065  12.588   9.962  0.0305 -0.1978  0.0773
  143YOPS   D2A 1844   8.961  12.632   9.516  0.0888 -0.1618  0.2428
  143YOPS   C3A 1845   8.671  12.519   9.262  0.0669 -0.1231 -0.3907
  143YOPS   C4A 1846   8.593  12.200   9.023 -0.0809  0.1043 -0.0864
  143YOPS   C1B 1847   9.530  12.779  10.024 -0.3020 -0.1609 -0.1146
  143YOPS   C2B 1848   9.504  12.723   9.551 -0.2981 -0.2247 -0.1540
  143YOPS   D3B 1849   9.576  12.988   9.195 -0.0744 -0.0300  0.0168
  143YOPS   C4B 1850   9.599  12.819   8.785 -0.0200  0.0836 -0.2516
  144YOPS   CNO 1851   2.064   0.720  10.029 -0.0506 -0.1869  0.2610
  144YOPS   PO4 1852   2.436   0.728   9.779  0.1742  0.2047  0.0343
  144YOPS   GL1 1853   2.554   1.162   9.555 -0.0854  0.3414 -0.1447
  144YOPS   GL2 1854   2.942   1.219   9.596  0.0755 -0.3355 -0.3112
  144YOPS   C1A 1855   2.748   1.146   9.169 -0.0650 -0.2612  0.3053
  144YOPS   D2A 1856   2.937   1.205   8.865  0.1288  0.2490 -0.2549
  144YOPS   C3A 1857   3.018   1.462   8.530 -0.3177  0.2729  0.0341
  144YOPS   C4A 1858   2.674   1.429   8.132 -0.1091  0.1759 -0.0688
  144YOPS   C1B 1859   3.171   1.422   9.308 -0.1731  0.1987 -0.2820
  144YOPS   C2B 1860   3.437   1.575   8.924  0.0694 -0.2543 -0.1166
  144YOPS   D3B 1861   3.640   1.706   8.545  0.0263  0.1626  0.1785
  144YOPS   C4B 1862   3.373   1.911   8.352 -0.1670  0.0175  0.1662
  145YOPS   CNO 1863  16.605  17.326  10.844 -0.1907  0.2688 -0.3407
  145YOPS   PO4 1864  16.504  17.293  10.418  0.0942 -0.0380  0.1367
  145YOPS   GL1 1865  16.344  17.318  10.020 -0.0654 -0.2561  0.2805
  145YOPS   GL2 1866  16.638  17.377   9.813  0.2335 -0.1579  0.1634
  145YOPS   C1A 1867  16.288  17.069   9.711  0.0876  0.4396  0.3145
  145YOPS   D2A 1868  16.289  16.779   9.407  0.1172 -0.0126  0.0593
  145YOPS   C3A 1869  16.584  16.700   9.151  0.0758 -0.1034  0.1630
  145YOPS   C4A 1870  16.439  16.556   8.683 -0.1472 -0.0899  0.0701
  145YOPS   C1B 1871  16.510  17.348   9.316 -0.0176 -0.0560 -0.0490
  145YOPS   C2B 1872  16.430  17.185   9.041  0.0858  0.0465  0.2459
  145YOPS   D3B 1873  16.383  17.260   8.629 -0.0631 -0.1719 -0.0227
  145YOPS   C4B 1874  16.322  17.003   8.361 -0.3125  0.3212 -0.0888
  146YOPS   CNO 1875  12.810   2.666  10.215  0.0694  0.1488  0.1822
  146YOPS   PO4 1876  12.450   2.936  10.254 -0.0618 -0.3710  0.1639
  146YOPS   GL1 1877  12.522   2.928   9.842  0.3063 -0.0325  0.3728
  146YOPS   GL2 1878  12.460   2.677   9.682 -0.0386  0.0673 -0.0977
  146YOPS   C1A 1879  12.673   3.056   9.395 -0.1227 -0.2360 -0.0532
  146YOPS   D2A 1880  12.707   3.369   9.128  0.1402 -0.1820 -0.0965
  146YOPS   C3A 1881  12.696   3.453   8.678  0.0192 -0.2976  0.1309
  146YOPS   C4A 1882  12.314   3.428   8.512 -0.4667  0.1005 -0.2511
  146YOPS   C1B 1883  12.301   2.718   9.299  0.2262 -0.0349  0.0643
  146YOPS   C2B 1884  12.172   2.827   8.845  0.4243 -0.0737 -0.4001
  146YOPS   D3B 1885  11.934   3.145   8.480  0.0386 -0.1324  0.3624
  146YOPS   C4B 1886  11.902   3.132   8.016 -0.2950  0.0367  0.5583
  147YOPS   CNO 1887  14.699   1.349  10.702  0.1036 -0.0102  0.0160
  147YOPS   PO4 1888  14.437   1.185  10.887 -0.0428 -0.0655 -0.2156
  147YOPS   GL1 1889  14.482   0.931  10.488 -0.0043  0.0658 -0.0906
  147YOPS   GL2 1890  14.814   1.068  10.343  0.1087  0.2722 -0.1191
  147YOPS   C1A 1891  14.539   0.598  10.128  0.3289 -0.0341 -0.0521
  147YOPS   D2A 1892  14.459   0.423   9.768 -0.0364 -0.1387 -0.1837
  147YOPS   C3A 1893  14.230   0.493   9.500 -0.1325  0.1483 -0.0637
  147YOPS   C4A 1894  13.874   0.501   9.729  0.2375  0.1331  0.2673
  147YOPS   C1B 1895  14.931   0.914   9.932  0.0829 -0.1976 -0.1953
  147YOPS   C2B 1896  14.823   0.963   9.448  0.1306  0.1223 -0.1988
  147YOPS   D3B 1897  14.922   0.965   9.033 -0.0954 -0.0308  0.0946
  147YOPS   C4B 1898  14.760   0.731   8.650 -0.1133  0.3224 -0.1970
  148YOPS   CNO 1899  17.715   3.691  10.645 -0.0857 -0.1522 -0.1550
  148YOPS   PO4 1900  17.885   3.684  10.226 -0.1277 -0.2042  0.0182
  148YOPS   GL1 1901  17.775   3.612   9.744 -0.0535  0.2385 -0.0036
  148YOPS   GL2 1902  17.572   3.403   9.618 -0.1037 -0.0332  0.2418
  148YOPS   C1A 1903  17.736   3.810   9.393 -0.0662  0.2157  0.3260
  148YOPS   D2A 1904  17.932   3.995   9.011 -0.2913  0.0532  0.1452
  148YOPS   C3A 1905  17.815   4.167   8.574  0.2774  0.0563 -0.2251
  148YOPS   C4A 1906  18.163   4.179   8.342 -0.2438 -0.3007  0.0223
  148YOPS   C1B 1907  17.501   3.333   9.241  0.0950  0.2376 -0.0079
  148YOPS   C2B 1908  17.583   3.639   8.947  0.0151 -0.0797  0.3807
  148YOPS   D3B 1909  18.002   3.667   8.649 -0.0379  0.2129 -0.0325
  148YOPS   C4B 1910  18.134   3.380   8.337 -0.1521  0.0451  0.0525
  149YOPS   CNO 1911   3.757  11.773  10.387  0.0889 -0.0222 -0.0098
  149YOPS   PO4 1912   3.398  11.956  10.219  0.2665  0.1552  0.2653
  149YOPS   GL1 1913   3.404  12.014   9.824  0.1197 -0.0753  0.0982
  149YOPS   GL2 1914   3.057  12.113   9.671 -0.1388  0.1510  0.0563
  149YOPS   C1A 1915   3.481  11.661   9.580 -0.0927  0.2719 -0.0955
  149YOPS   D2A 1916   3.330  11.479   9.281 -0.1254  0.0367  0.0402
  149YOPS   C3A 1917   3.392  11.201   8.882 -0.4013  0.1528  0.3105
  149YOPS   C4A 1918   3.509  11.485   8.572  0.0129  0.5304 -0.0869
  149YOPS   C1B 1919   3.260  12.053   9.191  0.1760 -0.0687  0.2160
  149YOPS   C2B 1920   3.709  11.783   9.074 -0.0076 -0.0635 -0.0367
  149YOPS   D3B 1921   4.057  11.727   9.350 -0.1805 -0.1844  0.0591
  149YOPS   C4B 1922   4.010  11.718   9.811 -0.1500  0.2952  0.1741
  150YOPS   CNO 1923   5.926  12.747  11.022  0.4615  0.3775  0.0707
  150YOPS   PO4 1924   5.760  12.484  10.661 -0.2351  0.0278  0.0116
  150YOPS   GL1 1925   5.734  12.615  10.257 -0.0516  0.0373 -0.3690
  150YOPS   GL2 1926   5.566  12.828  10.159 -0.0433  0.2934  0.0071
  150YOPS   C1A 1927   6.019  12.292  10.120  0.2516 -0.1883  0.0683
  150YOPS   D2A 1928   6.273  12.120   9.969  0.0485 -0.2323 -0.0095
  150YOPS   C3A 1929   6.457  11.930   9.641 -0.3127  0.1555  0.4208
  150YOPS   C4A 1930   6.448  11.973   9.234  0.2060 -0.1652  0.0546
  150YOPS   C1B 1931   5.859  13.016   9.842 -0.1079 -0.2908 -0.1158
  150YOPS   C2B 1932   5.934  12.849   9.381 -0.0569 -0.1428  0.0819
  150YOPS   D3B 1933   5.724  12.677   8.907 -0.1704  0.1621 -0.0943
  150YOPS   C4B 1934   5.540  12.461   8.572 -0.3148 -0.1572  0.1388
  151YOPS   CNO 1935  17.141  15.945  10.780 -0.1480  0.2508 -0.2837
  151YOPS   PO4 1936  17.036  16.057  10.386 -0.1553  0.4410  0.1329
  151YOPS   GL1 1937  17.198  16.161   9.922  0.2752 -0.0583  0.2252
  151YOPS   GL2 1938  17.025  16.358   9.807  0.0044  0.1291  0.1552
  151YOPS   C1A 1939  17.297  15.971   9.449 -0.1334  0.0692 -0.0281
  151YOPS   D2A 1940  17.423  16.061   9.097  0.0758 -0.3232 -0.2024
  151YOPS   C3A 1941  17.283  16.261   8.665 -0.1331  0.1799 -0.1170
  151YOPS   C4A 1942  16.908  16.474   8.382  0.0708 -0.0222 -0.1873
  151YOPS   C1B 1943  16.957  16.332   9.334 -0.1651  0.1788  0.1441
  151YOPS   C2B 1944  16.897  16.044   8.961  0.3855 -0.0775 -0.1525
  151YOPS   D3B 1945  16.653  15.629   8.750  0.1820  0.2854 -0.0753
  151YOPS   C4B 1946  16.647  15.376   8.484  0.0755  0.5178 -0.1684
  152YOPS   CNO 1947  10.652   9.694  10.959 -0.3429 -0.3197  0.3977
  152YOPS   PO4 1948  11.019   9.765  11.058  0.0441  0.1958 -0.0512
  152YOPS   GL1 1949  11.106  10.053  10.721 -0.0314  0.1063 -0.0147
  152YOPS   GL2 1950  11.313  10.231  10.529 -0.2505  0.1936  0.2896
  152YOPS   C1A 1951  10.860   9.994  10.228 -0.0201  0.2960 -0.1861
  152YOPS   D2A 1952  10.829  10.183   9.920 -0.1435  0.1625  0.0971
  152YOPS   C3A 1953  10.911  10.137   9.485 -0.0370  0.0702  0.1569
  152YOPS   C4A 1954  11.200   9.780   9.274 -0.0411  0.0685 -0.1143
  152YOPS   C1B 1955  11.377  10.266  10.043 -0.0764  0.1119  0.0611
  152YOPS   C2B 1956  11.478  10.221   9.642  0.0705  0.3178 -0.1712
  152YOPS   D3B 1957  11.552  10.141   9.317  0.0246  0.2211 -0.1949
  152YOPS   C4B 1958  11.671   9.793   9.001  0.2233  0.0312  0.0110
  153YOPS   CNO 1959   0.094  17.036   9.881 -0.1528  0.0583 -0.2928
  153YOPS   PO4 1960  -0.081  17.526   9.998 -0.0663 -0.0597  0.0235
  153YOPS   GL1 1961  -0.191  17.409   9.624  0.0256  0.3090  0.1281
  153YOPS   GL2 1962   0.130  17.502   9.428  0.3611  0.1369 -0.2116
  153YOPS   C1A 1963  -0.423  17.128   9.265 -0.1022 -0.0095 -0.0119
  153YOPS   D2A 1964  -0.614  17.037   8.854  0.1683 -0.4505 -0.0411
  153YOPS   C3A 1965  -0.703  16.913   8.394 -0.0346 -0.2581 -0.4070
  153YOPS   C4A 1966  -0.569  16.503   8.242 -0.0546 -0.0930 -0.1165
  153YOPS   C1B 1967  -0.083  17.524   9.141 -0.1206  0.0905 -0.0416
  153YOPS   C2B 1968  -0.312  17.421   8.703 -0.0180 -0.0199 -0.2200
  153YOPS   D3B 1969  -0.390  17.416   8.259 -0.3050  0.0568  0.1349
  153YOPS   C4B 1970  -0.052  17.180   8.028  0.2784  0.0998  0.3967
  154YOPS   CNO 1971  12.094   8.499  11.096  0.0160  0.1024 -0.0774
  154YOPS   PO4 1972  12.463   8.296  11.072  0.0870  0.0714 -0.1486
  154YOPS   GL1 1973  12.560   8.150  10.568  0.1952 -0.0837  0.0464
  154YOPS   GL2 1974  12.361   8.269  10.385 -0.0787  0.0034 -0.1644
  154YOPS   C1A 1975  12.773   8.041  10.213 -0.0561  0.0591 -0.1970
  154YOPS   D2A 1976  12.744   8.066   9.768 -0.1068 -0.3465 -0.1963
  154YOPS   C3A 1977  12.506   8.099   9.339 -0.0596  0.2579 -0.0041
  154YOPS   C4A 1978  12.352   7.809   8.982 -0.2957  0.1822 -0.0339
  154YOPS   C1B 1979  12.522   8.481  10.073  0.0895 -0.1364 -0.0587
  154YOPS   C2B 1980  12.537   8.478   9.671 -0.2195  0.0130  0.1938
  154YOPS   D3B 1981  12.602   8.598   9.315 -0.1196 -0.0098 -0.0670
  154YOPS   C4B 1982  12.387   8.863   9.110 -0.1194  0.1637  0.1280
  155YOPS   CNO 1983   1.277  14.914   9.929 -0.0586  0.0396 -0.0662
  155YOPS   PO4 1984   1.572  14.630  10.008  0.0999 -0.1328  0.1549
  155YOPS   GL1 1985   1.475  14.504   9.596 -0.0034  0.1342  0.1735
  155YOPS   GL2 1986   1.730  14.348   9.497 -0.1835 -0.2586 -0.2877
  155YOPS   C1A 1987   1.437  14.588   9.111 -0.2119  0.2620  0.2362
  155YOPS   D2A 1988   1.620  14.656   8.794  0.1283  0.0171  0.2398
  155YOPS   C3A 1989   1.491  14.644   8.395 -0.1069  0.1215  0.1028
  155YOPS   C4A 1990   1.796  14.500   8.055  0.2599 -0.0683  0.1474
  155YOPS   C1B 1991   1.923  14.296   9.049  0.1842  0.0824 -0.3190
  155YOPS   C2B 1992   2.131  14.511   8.679  0.4151 -0.1414  0.1299
  155YOPS   D3B 1993   2.238  14.443   8.239 -0.0012  0.1647  0.0659
  155YOPS   C4B 1994   2.560  14.314   7.924 -0.0808 -0.1596  0.1964
  156YOPS   CNO 1995   8.021   3.339   9.891  0.0242  0.0476  0.0590
  156YOPS   PO4 1996   8.267   2.932   9.836  0.3066  0.3419  0.2511
  156YOPS   GL1 1997   8.324   2.674   9.428 -0.2186  0.2632 -0.1145
  156YOPS   GL2 1998   8.584   2.700   9.273 -0.0834  0.1676  0.0147
  156YOPS   C1A 1999   8.252   2.428   9.113  0.1218 -0.0197 -0.0357
  156YOPS   D2A 2000   8.409   2.065   8.802 -0.0510 -0.0495 -0.0149
  156YOPS   C3A 2001   8.610   1.691   8.560 -0.1651  0.3212 -0.1150
  156YOPS   C4A 2002   8.667   1.496   8.161 -0.0757  0.1255 -0.0702
  156YOPS   C1B 2003   8.710   2.504   8.946 -0.2290  0.0997  0.0523
  156YOPS   C2B 2004   8.879   2.310   8.594  0.3301  0.2580  0.2451
  156YOPS   D3B 2005   8.993   1.956   8.282  0.0096 -0.0502  0.0528
  156YOPS   C4B 2006   9.247   2.029   7.937  0.3219 -0.1329  0.0099
  157YOPS   CNO 2007  12.751  13.065  11.326  0.0574  0.0153 -0.0553
  157YOPS   PO4 2008  12.364  13.038  11.276  0.2757  0.3062 -0.2239
  157YOPS   GL1 2009  12.445  13.057  10.930  0.0246  0.2863  0.0521
  157YOPS   GL2 2010  12.291  12.936  10.639  0.2306 -0.0308 -0.0941
  157YOPS   C1A 2011  12.751  12.871  10.631  0.1046 -0.0706 -0.1489
  157YOPS   D2A 2012  12.586  12.878  10.224  0.1150 -0.3076  0.0233
  157YOPS   C3A 2013  12.591  13.056   9.748  0.2791 -0.1093  0.2023
  157YOPS   C4A 2014  12.644  12.728   9.540  0.1618  0.2451 -0.1915
  157YOPS   C1B 2015  12.078  12.955  10.256  0.1475  0.2072 -0.2859
  157YOPS   C2B 2016  12.185  12.842   9.861 -0.0573 -0.3038 -0.0373
  157YOPS   D3B 2017  12.180  12.942   9.456 -0.1527 -0.1165  0.1490
  157YOPS   C4B 2018  12.418  12.960   9.010 -0.1807 -0.0555 -0.0072
  158YOPS   CNO 2019   9.989   5.538   9.731 -0.1328  0.1781 -0.1688
  158YOPS   PO4 2020  10.142   5.373  10.170 -0.0333  0.2625  0.2241
  158YOPS   GL1 2021  10.223   5.140   9.797 -0.0206  0.4169  0.1227
  158YOPS   GL2 2022  10.413   4.853   9.829  0.1569  0.1138  0.2007
  158YOPS   C1A 2023  10.013   5.094   9.405  0.0455 -0.0771 -0.1412
  158YOPS   D2A 2024   9.824   5.183   9.116 -0.3492  0.0321  0.0772
  158YOPS   C3A 2025   9.954   5.036   8.804 -0.3142  0.0723  0.3887
  158YOPS   C4A 2026  10.161   5.205   8.501 -0.0146  0.2211 -0.2093
  158YOPS   C1B 2027  10.539   5.155   9.441  0.1207  0.1061 -0.3105
  158YOPS   C2B 2028  10.324   5.396   9.114  0.0743  0.0804  0.0580
  158YOPS   D3B 2029  10.548   5.396   8.733  0.3365 -0.0776 -0.2212
  158YOPS   C4B 2030  10.725   5.839   8.671 -0.2053 -0.1020 -0.1484
  159YOPS   CNO 2031  16.244   5.108  10.681  0.2051 -0.0370  0.1350
  159YOPS   PO4 2032  16.038   5.105  10.302  0.1081  0.2707 -0.2672
  159YOPS   GL1 2033  16.152   5.063   9.945 -0.0612  0.2012  0.2070
  159YOPS   GL2 2034  15.849   4.933   9.807  0.2094 -0.1103 -0.0299
  159YOPS   C1A 2035  16.280   4.774   9.621  0.2320 -0.0726 -0.0006
  159YOPS   D2A 2036  16.479   4.550   9.301  0.0238  0.0086 -0.1163
  159YOPS   C3A 2037  16.560   4.452   8.824 -0.2055  0.1235  0.2311
  159YOPS   C4A 2038  16.420   4.760   8.525 -0.0197 -0.1302 -0.0005
  159YOPS   C1B 2039  15.871   4.999   9.424  0.2901  0.1644 -0.0399
  159YOPS   C2B 2040  15.882   5.364   9.124  0.0381  0.2243  0.0860
  159YOPS   D3B 2041  15.918   5.827   9.251 -0.0155  0.0239 -0.0342
  159YOPS   C4B 2042  15.890   5.889   9.679 -0.0476  0.0413 -0.5273
  160YOPS   CNO 2043  16.900   4.501  10.467  0.0104  0.1525  0.1689
  160YOPS   PO4 2044  16.526   4.280  10.257 -0.1653  0.0355  0.1576
  160YOPS   GL1 2045  16.478   4.141   9.850  0.1280 -0.1059  0.1216
  160YOPS   GL2 2046  16.752   3.868   9.722  0.0393  0.1873  0.0305
  160YOPS   C1A 2047  16.764   4.150   9.355 -0.2322  0.0962 -0.1885
  160YOPS   D2A 2048  16.904   4.089   8.960 -0.0702 -0.0500  0.0925
  160YOPS   C3A 2049  17.000   4.206   8.588 -0.1740 -0.1880 -0.1242
  160YOPS   C4A 2050  16.946   3.837   8.317 -0.2346  0.0754 -0.1229
  160YOPS   C1B 2051  16.692   3.658   9.250 -0.1627  0.1096  0.0530
  160YOPS   C2B 2052  16.341   3.512   8.969 -0.0587  0.1402 -0.0926
  160YOPS   D3B 2053  16.075   3.567   8.604 -0.2373 -0.0410  0.3447
  160YOPS   C4B 2054  15.947   3.927   8.527 -0.1994  0.0510 -0.0104
  161YOPS   CNO 2055   4.913   9.630  11.060 -0.1966  0.0119  0.2873
  161YOPS   PO4 2056   5.051   9.840  10.741  0.0574 -0.1103 -0.0299
  161YOPS   GL1 2057   5.144   9.787  10.305  0.0220 -0.3342 -0.0387
  161YOPS   GL2 2058   5.352   9.972  10.209 -0.3817  0.0619 -0.0853
  161YOPS   C1A 2059   4.893   9.634   9.978  0.3090  0.3406  0.0980
  161YOPS   D2A 2060   4.657   9.780   9.634  0.1295 -0.0343 -0.1256
  161YOPS   C3A 2061   4.634   9.996   9.219  0.1358  0.0354  0.1887
  161YOPS   C4A 2062   4.219  10.022   8.868 -0.2343 -0.0240 -0.0612
  161YOPS   C1B 2063   5.215   9.989   9.810  0.0518  0.4485  0.1247
  161YOPS   C2B 2064   5.196  10.214   9.565 -0.3835  0.1527  0.2010
  161YOPS   D3B 2065   4.925  10.381   9.272  0.2723 -0.0564  0.1816
  161YOPS   C4B 2066   4.789  10.278   8.788 -0.0306 -0.1236 -0.1554
  162YOPS   CNO 2067   4.476  13.530  10.235 -0.0280 -0.1289  0.0113
  162YOPS   PO4 2068   4.132  13.448  10.178 -0.0958 -0.0438  0.2207
  162YOPS   GL1 2069   4.096  13.374   9.692  0.1649 -0.0016 -0.1157
  162YOPS   GL2 2070   4.211  13.555   9.386 -0.0559  0.1876 -0.1156
  162YOPS   C1A 2071   4.398  13.083   9.495 -0.0046 -0.0059  0.0275
  162YOPS   D2A 2072   4.494  12.909   9.078  0.0944 -0.0366  0.0541
  162YOPS   C3A 2073   4.648  12.786   8.706 -0.0950 -0.0611 -0.1605
  162YOPS   C4A 2074   4.603  12.956   8.274  0.1210  0.0686 -0.1613
  162YOPS   C1B 2075   4.358  13.771   8.980 -0.0654  0.2322  0.3217
  162YOPS   C2B 2076   4.277  14.088   8.711 -0.2000  0.1424 -0.0024
  162YOPS   D3B 2077   4.454  14.315   8.334 -0.1208 -0.0577 -0.1368
  162YOPS   C4B 2078   4.123  14.422   8.051  0.0242  0.0386  0.0262
  163YOPS   CNO 2079  15.887   7.310  10.188 -0.0721  0.1219  0.0740
  163YOPS   PO4 2080  16.172   7.061  10.235 -0.0276  0.2003  0.2253
  163YOPS   GL1 2081  15.900   6.858   9.850 -0.1437 -0.0957  0.0202
  163YOPS   GL2 2082  15.555   6.905   9.898  0.0760  0.0015 -0.0571
  163YOPS   C1A 2083  16.079   6.748   9.553 -0.0026 -0.0196 -0.0269
  163YOPS   D2A 2084  16.330   6.753   9.168  0.0426  0.1410  0.1316
  163YOPS   C3A 2085  16.454   6.794   8.761  0.2135 -0.1065  0.2970
  163YOPS   C4A 2086  16.746   7.089   8.728  0.2136 -0.1252  0.2449
  163YOPS   C1B 2087  15.602   6.928   9.463  0.0710 -0.2181  0.0920
  163YOPS   C2B 2088  15.776   6.793   9.142 -0.1521 -0.1515  0.2160
  163YOPS   D3B 2089  15.588   6.632   8.873  0.0891  0.1231  0.1703
  163YOPS   C4B 2090  15.633   6.429   8.481 -0.3163  0.1437  0.0881
  164YOPS   CNO 2091  17.300  10.627  10.844 -0.2828 -0.0320  0.1024
  164YOPS   PO4 2092  17.290  10.224  10.549  0.0702  0.1231 -0.0476
  164YOPS   GL1 2093  17.435  10.467  10.192 -0.1576 -0.2047 -0.0567
  164YOPS   GL2 2094  17.348  10.224   9.989  0.0946  0.2768 -0.0515
  164YOPS   C1A 2095  17.409  10.644   9.701 -0.0645  0.1318  0.1675
  164YOPS   D2A 2096  17.300  10.875   9.259  0.1664  0.1747  0.1601
  164YOPS   C3A 2097  17.348  10.825   8.832 -0.2565  0.1037  0.0042
  164YOPS   C4A 2098  17.487  10.506   8.693  0.0631 -0.2620  0.0830
  164YOPS   C1B 2099  17.324   9.846   9.727 -0.2051  0.1498  0.1948
  164YOPS   C2B 2100  17.275   9.816   9.268  0.0606 -0.1533 -0.0802
  164YOPS   D3B 2101  17.195   9.590   8.880  0.1144  0.2839 -0.1742
  164YOPS   C4B 2102  17.480   9.760   8.440  0.2241 -0.2936 -0.2609
  165YOPS   CNO 2103   2.067   3.678  10.457  0.2219 -0.0538 -0.0315
  165YOPS   PO4 2104   1.668   3.810  10.404 -0.0945 -0.2052 -0.1311
  165YOPS   GL1 2105   2.002   3.995  10.095 -0.0189  0.0551 -0.0230
  165YOPS   GL2 2106   2.273   4.076  10.257 -0.1894 -0.0779 -0.0728
  165YOPS   C1A 2107   2.129   3.921   9.758 -0.0114  0.0868 -0.2060
  165YOPS   D2A 2108   2.227   4.065   9.412  0.0933  0.1622  0.0624
  165YOPS   C3A 2109   2.461   4.429   9.255 -0.0294  0.1321  0.3602
  165YOPS   C4A 2110   2.304   4.883   9.330 -0.0029  0.0796  0.0447
  165YOPS   C1B 2111   2.551   4.197   9.887 -0.1678  0.0448 -0.0357
  165YOPS   C2B 2112   3.032   4.277   9.764 -0.1489  0.0875 -0.1713
  165YOPS   D3B 2113   3.300   4.298   9.489  0.0794 -0.1278 -0.2689
  165YOPS   C4B 2114   3.604   4.545   9.786 -0.2321  0.4350  0.3109
  166YOPS   CNO 2115  10.994   2.175  10.394  0.1449  0.0894 -0.1232
  166YOPS   PO4 2116  11.217   1.820  10.222  0.1020 -0.2819 -0.0045
  166YOPS   GL1 2117  11.276   1.775   9.812  0.1702 -0.0363  0.3743
  166YOPS   GL2 2118  11.028   1.498   9.829  0.0773 -0.0986 -0.2043
  166YOPS   C1A 2119  11.386   1.788   9.315 -0.0803 -0.0515  0.0054
  166YOPS   D2A 2120  11.414   1.810   8.884  0.1906  0.0337 -0.1217
  166YOPS   C3A 2121  11.529   1.810   8.452  0.2461 -0.0649 -0.1559
  166YOPS   C4A 2122  11.600   2.162   8.202 -0.0345 -0.4012 -0.1771
  166YOPS   C1B 2123  10.990   1.308   9.472  0.1718 -0.1250  0.2482
  166YOPS   C2B 2124  10.896   1.212   9.107 -0.0926 -0.1894 -0.2248
  166YOPS   D3B 2125  10.785   1.159   8.635  0.0291 -0.0681 -0.4421
  166YOPS   C4B 2126  10.703   0.847   8.366  0.0621  0.1247  0.1953
  167YOPS   CNO 2127   0.507   6.987  10.686  0.0591 -0.1545  0.1287
  167YOPS   PO4 2128   0.191   6.916  10.370  0.1661 -0.1388 -0.2353
  167YOPS   GL1 2129   0.478   6.873   9.977 -0.0692  0.0039 -0.2249
  167YOPS   GL2 2130   0.584   6.596   9.925 -0.0371 -0.2136 -0.0612
  167YOPS   C1A 2131   0.617   6.981   9.621 -0.1545  0.1689 -0.0066
  167YOPS   D2A 2132   0.841   6.847   9.201  0.1872 -0.2192  0.3552
  167YOPS   C3A 2133   0.901   7.145   8.898 -0.0680  0.0566 -0.1497
  167YOPS   C4A 2134   0.612   7.176   8.467  0.1667  0.0064 -0.3693
  167YOPS   C1B 2135   0.729   6.479   9.516 -0.1365 -0.0668 -0.2555
  167YOPS   C2B 2136   0.763   6.377   9.129  0.1735  0.1835 -0.0248
  167YOPS   D3B 2137   1.013   6.391   8.942 -0.1372 -0.1089 -0.1645
  167YOPS   C4B 2138   1.074   6.218   8.494 -0.0597 -0.1275  0.1484
  168POPE   NH3 2139   4.966   1.080   9.892  0.1102  0.0449  0.1373
  168POPE   PO4 2140   4.646   0.698   9.926  0.1962 -0.1157 -0.2159
  168POPE   GL1 2141   4.440   0.549   9.619  0.0893 -0.0850  0.1430
  168POPE   GL2 2142   4.562   0.342   9.481  0.1924  0.1063 -0.0538
  168POPE   C1A 2143   4.118   0.405   9.273 -0.0140  0.0055 -0.0427
  168POPE   D2A 2144   4.058   0.337   8.844  0.4657  0.2168 -0.2309
  168POPE   C3A 2145   3.929  -0.007   8.694 -0.0464  0.5548  0.0602
  168POPE   C4A 2146   3.874  -0.323   8.419  0.2307 -0.0172  0.0652
  168POPE   C1B 2147   4.584   0.416   9.013 -0.0682  0.3068 -0.4093
  168POPE   C2B 2148   4.465   0.435   8.581 -0.2423  0.2333  0.2373
  168POPE   C3B 2149   4.233   0.187   8.324  0.0537 -0.0537 -0.1533
  168POPE   C4B 2150   4.101   0.015   7.972  0.2972 -0.1356  0.1265
  169POPE   NH3 2151   7.938   2.031   9.925  0.1170  0.0964 -0.1051
  169POPE   PO4 2152   8.377   1.788   9.847  0.0846  0.0946 -0.1921
  169POPE   GL1 2153   8.479   1.734   9.504 -0.0300 -0.0129 -0.1972
  169POPE   GL2 2154   8.561   1.435   9.544 -0.2101 -0.0951  0.0034
  169POPE   C1A 2155   8.608   1.573   9.057 -0.1783 -0.1558 -0.0383
  169POPE   D2A 2156   8.972   1.455   8.920 -0.0421  0.2676 -0.0308
  169POPE   C3A 2157   9.063   1.477   8.433  0.0087 -0.0024 -0.1529
  169POPE   C4A 2158   9.418   1.137   8.275 -0.0395  0.0132 -0.1180
  169POPE   C1B 2159   8.994   1.596   9.397  0.0450  0.1792  0.0259
  169POPE   C2B 2160   9.381   1.744   9.341 -0.1046 -0.4387  0.0253
  169POPE   C3B 2161   9.512   1.648   8.948 -0.0916  0.0187  0.0031
  169POPE   C4B 2162   9.725   1.409   8.609  0.0170 -0.2426  0.1734
  170POPE   NH3 2163   1.120  14.402  10.048 -0.0169 -0.0863 -0.1504
  170POPE   PO4 2164   1.123  13.967  10.153 -0.0051 -0.2811 -0.1204
  170POPE   GL1 2165   1.147  13.971   9.740  0.0186 -0.1208 -0.0574
  170POPE   GL2 2166   0.991  13.734   9.718  0.1406 -0.2257 -0.0770
  170POPE   C1A 2167   1.310  14.059   9.381 -0.0409 -0.1103  0.0891
  170POPE   D2A 2168   1.510  14.043   8.955 -0.0544  0.1733 -0.0490
  170POPE   C3A 2169   1.717  14.138   8.540  0.0563 -0.1859  0.2983
  170POPE   C4A 2170   1.834  14.020   8.137 -0.2207 -0.0987 -0.1179
  170POPE   C1B 2171   0.896  13.857   9.307  0.0356  0.2832 -0.1547
  170POPE   C2B 2172   1.054  13.837   8.866  0.0204  0.1367 -0.2772
  170POPE   C3B 2173   1.082  13.897   8.397 -0.1724  0.3298 -0.0214
  170POPE   C4B 2174   1.242  13.676   7.979  0.1006  0.0986  0.0439
  171POPE   NH3 2175  17.852   2.769  10.164 -0.0040 -0.1201  0.0648
  171POPE   PO4 2176  17.638   2.376  10.058 -0.1090  0.1231  0.1481
  171POPE   GL1 2177  17.688   2.411   9.693  0.0840  0.2050 -0.2670
  171POPE   GL2 2178  17.807   2.182   9.578 -0.0350  0.3064 -0.0925
  171POPE   C1A 2179  17.455   2.530   9.202  0.1055 -0.2501 -0.1304
  171POPE   D2A 2180  17.372   2.456   8.820 -0.2557 -0.0843 -0.0325
  171POPE   C3A 2181  17.596   2.644   8.535 -0.0687 -0.1392 -0.0147
  171POPE   C4A 2182  17.415   3.011   8.247 -0.1147  0.0483 -0.1536
  171POPE   C1B 2183  17.943   2.479   9.239  0.2875 -0.0477 -0.0044
  171POPE   C2B 2184  17.971   2.532   8.851  0.1161 -0.1542  0.1060
  171POPE   C3B 2185  17.929   2.211   8.543  0.0071 -0.2140  0.0761
  171POPE   C4B 2186  18.150   2.230   8.219 -0.2261  0.4608 -0.1982
  172POPE   NH3 2187   6.499   9.880  11.040 -0.0420 -0.0303 -0.0051
  172POPE   PO4 2188   6.837   9.557  10.786  0.1388 -0.1066 -0.2065
  172POPE   GL1 2189   6.661   9.932  10.522 -0.2881 -0.1318 -0.1149
  172POPE   GL2 2190   6.358   9.765  10.597  0.0898  0.0497 -0.1176
  172POPE   C1A 2191   6.842  10.071  10.190  0.2458 -0.0330  0.1960
  172POPE   D2A 2192   7.102  10.026   9.889  0.0050  0.0199 -0.1315
  172POPE   C3A 2193   7.535  10.207   9.786 -0.1751 -0.1255  0.0289
  172POPE   C4A 2194   7.748  10.457   9.553  0.2752 -0.3735  0.1912
  172POPE   C1B 2195   6.089   9.787  10.226 -0.1426 -0.2838 -0.0005
  172POPE   C2B 2196   5.717   9.778   9.964  0.0040  0.0233  0.2901
  172POPE   C3B 2197   5.633   9.781   9.542  0.0695 -0.1709  0.0434
  172POPE   C4B 2198   5.553   9.628   9.147 -0.0526  0.0588  0.0326
  173POPE   NH3 2199   6.831  12.475  10.955  0.2557  0.0365  0.2002
  173POPE   PO4 2200   7.029  12.043  11.071 -0.2262 -0.2050  0.0231
  173POPE   GL1 2201   7.221  12.013  10.657  0.1752  0.0537 -0.1638
  173POPE   GL2 2202   7.492  11.799  10.595  0.2744  0.0050  0.1517
  173POPE   C1A 2203   7.132  11.894  10.253  0.0149  0.1323  0.0052
  173POPE   D2A 2204   6.934  11.765   9.794 -0.1212 -0.1308 -0.2534
  173POPE   C3A 2205   6.961  11.978   9.417 -0.3686  0.0832  0.0606
  173POPE   C4A 2206   6.863  11.886   8.994  0.2409 -0.2171 -0.0037
  173POPE   C1B 2207   7.740  11.445  10.441  0.1683  0.1471  0.2909
  173POPE   C2B 2208   7.877  11.361  10.011  0.1043 -0.0806  0.0898
  173POPE   C3B 2209   7.860  11.487   9.545 -0.1138 -0.1868  0.2784
  173POPE   C4B 2210   8.040  11.471   9.185  0.1165 -0.0232 -0.1548
  174POPE   NH3 2211   3.885  15.612   9.667 -0.2037  0.2331  0.1577
  174POPE   PO4 2212   4.180  15.884   9.904  0.1407 -0.2508  0.0621
  174POPE   GL1 2213   4.418  15.706   9.585 -0.2843  0.1167 -0.1864
  174POPE   GL2 2214   4.346  15.582   9.384 -0.1741  0.1774 -0.1898
  174POPE   C1A 2215   4.649  15.793   9.085  0.2990  0.0333 -0.0269
  174POPE   D2A 2216   4.877  15.847   8.664  0.2464 -0.1210  0.2786
  174POPE   C3A 2217   4.950  16.126   8.316  0.2267 -0.1344  0.2225
  174POPE   C4A 2218   4.908  16.346   7.962  0.2573 -0.0257  0.1352
  174POPE   C1B 2219   4.149  15.655   9.136 -0.1942 -0.1032  0.0373
  174POPE   C2B 2220   4.157  15.554   8.738 -0.2426  0.1447  0.0203
  174POPE   C3B 2221   4.133  15.586   8.298  0.0477 -0.2527  0.0528
  174POPE   C4B 2222   3.842  15.816   7.974 -0.0540 -0.2799  0.1726
  175POPE   NH3 2223   5.514   4.023  10.048 -0.2068  0.4413 -0.1984
  175POPE   PO4 2224   5.847   4.211  10.099  0.2259 -0.0101  0.1464
  175POPE   GL1 2225   5.613   4.493   9.801  0.2929  0.1337 -0.2193
  175POPE   GL2 2226   5.808   4.603   9.616 -0.3507 -0.2959 -0.0635
  175POPE   C1A 2227   5.419   4.495   9.335 -0.2139  0.1000 -0.2572
  175POPE   D2A 2228   5.220   4.336   8.996 -0.0718 -0.1766  0.2671
  175POPE   C3A 2229   5.311   4.417   8.549  0.0062 -0.1104  0.0200
  175POPE   C4A 2230   5.494   4.782   8.243  0.0182 -0.1138  0.0060
  175POPE   C1B 2231   5.836   4.700   9.163 -0.1227  0.0235  0.0101
  175POPE   C2B 2232   5.522   4.773   8.892 -0.0696  0.1829 -0.0473
  175POPE   C3B 2233   5.186   4.834   8.761  0.0298 -0.0085  0.1121
  175POPE   C4B 2234   4.939   4.907   8.398  0.1149  0.0249 -0.0501
  176POPE   NH3 2235   6.512   2.877  10.072  0.1587  0.3534  0.2993
  176POPE   PO4 2236   6.475   3.026   9.644  0.0437  0.3379 -0.0986
  176POPE   GL1 2237   6.212   2.868   9.294 -0.2661  0.0402 -0.2344
  176POPE   GL2 2238   5.914   3.067   9.250 -0.0185  0.1019  0.4551
  176POPE   C1A 2239   6.263   2.981   8.895  0.0077 -0.0163 -0.0650
  176POPE   D2A 2240   6.108   3.200   8.528 -0.0905  0.1051 -0.0794
  176POPE   C3A 2241   6.140   3.621   8.395 -0.1352  0.1831  0.0961
  176POPE   C4A 2242   6.085   3.730   8.057  0.1289  0.1187 -0.0035
  176POPE   C1B 2243   5.744   3.128   8.874  0.3340  0.0085 -0.1899
  176POPE   C2B 2244   5.352   3.345   8.761  0.1243 -0.0733  0.3461
  176POPE   C3B 2245   5.054   3.491   8.568  0.0566  0.2587  0.1774
  176POPE   C4B 2246   5.132   3.491   8.069 -0.1621  0.1428 -0.2109
  177POPE   NH3 2247   3.427   2.122  10.043  0.2422 -0.2134 -0.2653
  177POPE   PO4 2248   3.029   2.434  10.020  0.1221  0.2764  0.1585
  177POPE   GL1 2249   3.118   2.268   9.662 -0.2384  0.2129  0.4706
  177POPE   GL2 2250   3.163   1.920   9.609  0.1824 -0.0445  0.0849
  177POPE   C1A 2251   2.938   2.344   9.255 -0.0390  0.1533  0.1287
  177POPE   D2A 2252   3.005   2.462   8.987 -0.2016  0.2688  0.0307
  177POPE   C3A 2253   2.739   2.363   8.654 -0.0851 -0.0443 -0.0989
  177POPE   C4A 2254   2.358   2.381   8.449  0.0065 -0.1011 -0.2680
  177POPE   C1B 2255   3.259   1.968   9.178  0.0365 -0.1824  0.1328
  177POPE   C2B 2256   3.566   2.066   8.889 -0.0143 -0.1268  0.2634
  177POPE   C3B 2257   3.706   2.265   8.449  0.0807  0.1561  0.0089
  177POPE   C4B 2258   3.527   2.520   8.119 -0.0592 -0.0700  0.0723
  178POPE   NH3 2259   3.165   2.828  10.300  0.0597  0.2883  0.2374
  178POPE   PO4 2260   3.552   3.056  10.301 -0.1538 -0.1253 -0.1622
  178POPE   GL1 2261   3.665   3.113   9.998  0.1445 -0.0504  0.1283
  178POPE   GL2 2262   3.932   3.333   9.942  0.0324  0.4392  0.2388
  178POPE   C1A 2263   3.658   3.290   9.541 -0.3095 -0.1557 -0.2104
  178POPE   D2A 2264   3.704   3.570   9.246 -0.3485 -0.1160 -0.1080
  178POPE   C3A 2265   3.486   3.574   8.850 -0.2548 -0.3916 -0.3234
  178POPE   C4A 2266   3.765   3.662   8.410 -0.2697 -0.0846 -0.3442
  178POPE   C1B 2267   4.032   3.628   9.675 -0.0592  0.1218 -0.1234
  178POPE   C2B 2268   4.098   3.859   9.265 -0.0120  0.0648 -0.2450
  178POPE   C3B 2269   3.856   3.996   8.802  0.1494  0.0446 -0.4247
  178POPE   C4B 2270   3.609   4.250   8.462  0.4188  0.0676  0.0214
  179POPE   NH3 2271  17.105  12.819  10.407 -0.0695  0.2316 -0.2049
  179POPE   PO4 2272  17.485  12.942  10.234 -0.0596 -0.3112 -0.2227
  179POPE   GL1 2273  17.576  13.033   9.851 -0.0121  0.2623  0.2676
  179POPE   GL2 2274  17.844  13.203   9.690  0.0579 -0.2882 -0.2868
  179POPE   C1A 2275  17.649  12.827   9.510 -0.0140  0.0716  0.1233
  179POPE   D2A 2276  17.489  12.796   9.087 -0.0729  0.1587  0.3467
  179POPE   C3A 2277  17.417  12.425   8.962  0.0809  0.1486 -0.3417
  179POPE   C4A 2278  17.612  12.129   8.613  0.0449  0.0515 -0.1309
  179POPE   C1B 2279  17.583  13.233   9.288 -0.2761 -0.1362 -0.0166
  179POPE   C2B 2280  17.470  13.227   8.890 -0.0207  0.0437 -0.1966
  179POPE   C3B 2281  17.154  13.091   8.587 -0.0513 -0.2939  0.3246
  179POPE   C4B 2282  17.337  13.297   8.224 -0.0582  0.0427 -0.0690
  180POPE   NH3 2283  16.103   3.945  10.221 -0.0785  0.4928 -0.0216
  180POPE   PO4 2284  16.169   3.541  10.430  0.2660 -0.1973 -0.0955
  180POPE   GL1 2285  16.156   3.380  10.040  0.3138  0.0653  0.0327
  180POPE   GL2 2286  16.344   3.593   9.897 -0.1577  0.1092 -0.0257
  180POPE   C1A 2287  16.269   3.042   9.838 -0.4240  0.2870  0.0356
  180POPE   D2A 2288  16.600   2.825   9.601  0.0009  0.1696  0.0125
  180POPE   C3A 2289  16.447   2.643   9.319 -0.2699 -0.1155  0.0694
  180POPE   C4A 2290  16.475   2.263   9.231 -0.0534 -0.1081  0.1424
  180POPE   C1B 2291  16.190   3.499   9.542  0.2286 -0.0973  0.3631
  180POPE   C2B 2292  15.857   3.505   9.234  0.0585 -0.0044  0.3158
  180POPE   C3B 2293  15.627   3.515   8.852 -0.0597 -0.0837  0.0957
  180POPE   C4B 2294  15.451   3.822   8.490 -0.3186 -0.1230 -0.0419
  181POPE   NH3 2295   1.174   1.612   9.851  0.0370  0.1040  0.1603
  181POPE   PO4 2296   0.923   2.005   9.892 -0.0344  0.2529  0.1104
  181POPE   GL1 2297   0.789   1.948   9.443  0.0283 -0.1606 -0.0844
  181POPE   GL2 2298   0.989   1.655   9.390 -0.0470  0.0692 -0.1954
  181POPE   C1A 2299   0.677   1.908   9.003  0.0746 -0.2457  0.1345
  181POPE   D2A 2300   0.766   1.812   8.576 -0.2497 -0.0926  0.3022
  181POPE   C3A 2301   0.763   2.131   8.261 -0.1957  0.0114  0.1779
  181POPE   C4A 2302   1.027   2.422   7.927 -0.1461 -0.1545 -0.0216
  181POPE   C1B 2303   1.148   1.729   8.971 -0.0843  0.0516  0.1891
  181POPE   C2B 2304   1.343   1.926   8.570 -0.0598 -0.0470  0.2159
  181POPE   C3B 2305   1.683   1.824   8.182  0.0243  0.0492 -0.1706
  181POPE   C4B 2306   1.859   2.013   7.830 -0.0355 -0.4370 -0.2015
  182POPE   NH3 2307  10.339   0.493  10.419 -0.0133 -0.0532 -0.0885
  182POPE   PO4 2308  10.304   0.023  10.421  0.0430 -0.0602 -0.1625
  182POPE   GL1 2309  10.596   0.168  10.126  0.0052 -0.0842  0.3028
  182POPE   GL2 2310  10.847  -0.018  10.371 -0.2420  0.0446 -0.1475
  182POPE   C1A 2311  10.686  -0.019   9.723  0.1181  0.0599 -0.0095
  182POPE   D2A 2312  10.721  -0.185   9.314  0.1218 -0.0824  0.0188
  182POPE   C3A 2313  10.557  -0.407   8.993  0.2962 -0.0184  0.1746
  182POPE   C4A 2314  10.530  -0.767   8.908 -0.0495  0.2032 -0.4149
  182POPE   C1B 2315  11.044  -0.107  10.041  0.2910 -0.4015 -0.4420
  182POPE   C2B 2316  11.167  -0.294   9.592  0.1312  0.3651  0.3807
  182POPE   C3B 2317  11.156  -0.407   9.183  0.0349 -0.2959  0.0320
  182POPE   C4B 2318  11.459  -0.719   8.854 -0.1640 -0.2379  0.1542
  183POPE   NH3 2319   7.302   2.608   9.651  0.2643 -0.1849  0.1321
  183POPE   PO4 2320   6.862   2.587   9.723 -0.1226 -0.1270 -0.1968
  183POPE   GL1 2321   6.860   2.839   9.291 -0.2563  0.0895 -0.0005
  183POPE   GL2 2322   6.854   3.214   9.375  0.0381 -0.1400 -0.0164
  183POPE   C1A 2323   6.795   3.027   8.866  0.1190  0.4769  0.0471
  183POPE   D2A 2324   6.999   3.033   8.434  0.1640 -0.0763 -0.0272
  183POPE   C3A 2325   7.025   2.659   8.138 -0.1998 -0.0084 -0.1774
  183POPE   C4A 2326   7.302   2.298   8.025  0.1896  0.1597 -0.2390
  183POPE   C1B 2327   7.037   3.458   9.068  0.0935  0.1906 -0.0878
  183POPE   C2B 2328   7.198   3.390   8.661 -0.4074 -0.0355  0.1323
  183POPE   C3B 2329   7.431   3.447   8.324  0.2028 -0.0517 -0.2408
  183POPE   C4B 2330   7.637   3.665   7.985  0.4097  0.3460  0.0149
  184POPE   NH3 2331   6.756   9.067  10.953  0.0156  0.0048  0.0847
  184POPE   PO4 2332   7.235   9.064  11.000  0.2912 -0.2595  0.1312
  184POPE   GL1 2333   7.084   9.190  10.542 -0.2380 -0.2454  0.1135
  184POPE   GL2 2334   7.389   9.048  10.425  0.2005  0.0609 -0.0316
  184POPE   C1A 2335   6.946   9.205  10.158 -0.0893  0.0450 -0.0093
  184POPE   D2A 2336   6.996   9.464   9.782  0.0244  0.1741  0.0404
  184POPE   C3A 2337   6.990   9.399   9.374  0.0932 -0.0325  0.1216
  184POPE   C4A 2338   7.003   9.278   9.007  0.0693 -0.2184 -0.2426
  184POPE   C1B 2339   7.425   8.763   9.997 -0.0319 -0.0209 -0.0041
  184POPE   C2B 2340   7.534   8.766   9.629 -0.1718  0.0076  0.2512
  184POPE   C3B 2341   7.880   8.877   9.312 -0.1387 -0.2030 -0.0595
  184POPE   C4B 2342   7.932   9.091   8.960 -0.1536 -0.2624 -0.3272
  185POPE   NH3 2343  14.658   5.276  10.253  0.0185  0.0959 -0.0529
  185POPE   PO4 2344  14.298   5.081  10.086  0.0923 -0.3170 -0.0174
  185POPE   GL1 2345  14.291   4.872   9.636 -0.2428  0.4178 -0.0294
  185POPE   GL2 2346  14.549   5.126   9.644 -0.0289  0.3048 -0.0274
  185POPE   C1A 2347  14.155   4.629   9.326 -0.1773  0.0262 -0.0565
  185POPE   D2A 2348  14.091   4.584   8.830  0.2097  0.1945  0.0730
  185POPE   C3A 2349  14.219   4.218   8.712  0.3735  0.1307  0.1581
  185POPE   C4A 2350  14.402   4.116   8.209 -0.2106  0.1714 -0.1492
  185POPE   C1B 2351  14.476   4.998   9.154  0.0516  0.1283 -0.1052
  185POPE   C2B 2352  14.315   5.016   8.698  0.2617 -0.1180  0.2269
  185POPE   C3B 2353  14.296   4.768   8.393 -0.3439  0.0253 -0.2973
  185POPE   C4B 2354  14.574   4.542   8.344 -0.1556 -0.1205 -0.2102
  186POPE   NH3 2355  12.371  11.601  10.949  0.1244 -0.0387  0.5129
  186POPE   PO4 2356  12.287  12.015  10.824 -0.1287  0.0270  0.1550
  186POPE   GL1 2357  12.325  11.967  10.392  0.2282 -0.3734 -0.0457
  186POPE   GL2 2358  12.318  11.656  10.428 -0.1681  0.2562  0.0007
  186POPE   C1A 2359  12.351  11.988   9.969 -0.1512 -0.1406  0.0181
  186POPE   D2A 2360  12.588  11.777   9.626 -0.0375 -0.0016  0.0911
  186POPE   C3A 2361  12.879  11.598   9.478 -0.0119 -0.1369 -0.2094
  186POPE   C4A 2362  13.116  11.581   9.108 -0.0033  0.0706 -0.1166
  186POPE   C1B 2363  12.295  11.458  10.119  0.2634 -0.0772  0.1968
  186POPE   C2B 2364  12.281  11.400   9.648 -0.1831 -0.1101 -0.1291
  186POPE   C3B 2365  12.389  11.485   9.205  0.1181 -0.0086 -0.0601
  186POPE   C4B 2366  12.510  11.544   8.781 -0.2710  0.3130 -0.4007
  187POPE   NH3 2367   9.560   7.650  10.568  0.0301 -0.1544  0.0898
  187POPE   PO4 2368   9.397   8.064  10.651 -0.1616 -0.1033 -0.1607
  187POPE   GL1 2369   9.547   8.316  10.285  0.0115 -0.0734  0.2283
  187POPE   GL2 2370   9.571   8.680  10.289  0.0046 -0.2118 -0.1501
  187POPE   C1A 2371   9.771   8.267  10.009 -0.1704  0.1012 -0.2063
  187POPE   D2A 2372  10.122   8.171   9.790  0.1790  0.1912 -0.0120
  187POPE   C3A 2373  10.174   8.297   9.406  0.3314  0.0945  0.2420
  187POPE   C4A 2374  10.025   8.440   9.062 -0.0825 -0.1649  0.1904
  187POPE   C1B 2375   9.447   8.826   9.916 -0.0463 -0.4777  0.2348
  187POPE   C2B 2376   9.301   8.861   9.600 -0.0962  0.1033 -0.0755
  187POPE   C3B 2377   8.940   8.991   9.320  0.0464  0.1969 -0.0879
  187POPE   C4B 2378   8.714   8.950   8.969  0.0964 -0.1084 -0.2545
  188POPE   NH3 2379  16.547   5.244  10.274  0.0984 -0.0894  0.0329
  188POPE   PO4 2380  16.981   5.385  10.382  0.0661  0.0795 -0.1154
  188POPE   GL1 2381  17.107   5.391  10.025 -0.3360 -0.1988  0.2337
  188POPE   GL2 2382  17.353   5.509  10.006  0.1060  0.2006 -0.1678
  188POPE   C1A 2383  16.888   5.636   9.782 -0.0610  0.1721  0.0335
  188POPE   D2A 2384  16.814   5.898   9.400 -0.0937 -0.1043  0.0262
  188POPE   C3A 2385  16.919   5.918   8.964 -0.0086 -0.0621  0.1903
  188POPE   C4A 2386  16.709   5.791   8.590  0.4514  0.2292  0.2255
  188POPE   C1B 2387  17.384   5.551   9.616  0.0450  0.1380 -0.1895
  188POPE   C2B 2388  17.164   5.419   9.303  0.0384 -0.0898 -0.2109
  188POPE   C3B 2389  17.055   5.290   8.903  0.0662  0.0080 -0.4625
  188POPE   C4B 2390  16.815   5.190   8.566  0.1413 -0.2300  0.0063
  189POPE   NH3 2391  15.126  11.075  11.133 -0.0822 -0.1724  0.1581
  189POPE   PO4 2392  14.762  10.827  11.146  0.2026 -0.0130  0.1131
  189POPE   GL1 2393  14.711  10.877  10.721 -0.2447 -0.0919 -0.0451
  189POPE   GL2 2394  14.497  11.122  10.599 -0.2241 -0.1996 -0.3266
  189POPE   C1A 2395  14.765  10.808  10.330 -0.1774  0.0212  0.0422
  189POPE   D2A 2396  14.754  10.935   9.855  0.1638 -0.4590 -0.3326
  189POPE   C3A 2397  14.589  10.836   9.483  0.0198  0.1565 -0.0087
  189POPE   C4A 2398  14.567  11.007   9.004 -0.2031  0.2574 -0.2261
  189POPE   C1B 2399  14.396  11.406  10.176  0.1283 -0.2477 -0.3725
  189POPE   C2B 2400  14.323  11.224   9.787  0.4519  0.3180 -0.1399
  189POPE   C3B 2401  14.182  11.102   9.335  0.2609  0.0909  0.3002
  189POPE   C4B 2402  14.123  10.735   9.164 -0.3176  0.0058  0.0279
  190POPE   NH3 2403  11.236   8.392  10.812 -0.2196  0.1227 -0.1376
  190POPE   PO4 2404  11.789   8.295  10.795  0.0981 -0.2749  0.1744
  190POPE   GL1 2405  11.577   8.419  10.428  0.2584  0.0769 -0.0856
  190POPE   GL2 2406  11.458   8.702  10.424  0.0180 -0.0063  0.0303
  190POPE   C1A 2407  11.273   8.271  10.071  0.2036 -0.0151  0.0797
  190POPE   D2A 2408  11.051   8.250   9.775 -0.1374  0.0987 -0.0092
  190POPE   C3A 2409  11.162   8.472   9.415  0.0030  0.6456  0.2508
  190POPE   C4A 2410  10.968   8.649   8.965 -0.1638 -0.2910  0.2282
  190POPE   C1B 2411  11.632   8.810  10.024 -0.1384  0.0547 -0.0857
  190POPE   C2B 2412  11.626   8.747   9.642  0.0760  0.0920 -0.0020
  190POPE   C3B 2413  11.678   8.548   9.245  0.2363 -0.0423 -0.1170
  190POPE   C4B 2414  11.870   8.461   8.802 -0.0279  0.2496  0.0538
  191POPE   NH3 2415   5.873   5.679  10.485  0.0740 -0.0843 -0.0961
  191POPE   PO4 2416   5.848   5.437  10.103  0.2322  0.1593 -0.0879
  191POPE   GL1 2417   5.619   5.621   9.812 -0.0074 -0.0609  0.2292
  191POPE   GL2 2418   5.390   5.493   9.551 -0.0370  0.1802  0.2768
  191POPE   C1A 2419   5.474   5.998   9.779 -0.0917 -0.3832 -0.1473
  191POPE   D2A 2420   5.264   6.425   9.670  0.0624  0.1788 -0.2168
  191POPE   C3A 2421   4.795   6.422   9.499  0.0466 -0.1171  0.1630
  191POPE   C4A 2422   4.465   6.534   9.520 -0.1005  0.2030  0.0187
  191POPE   C1B 2423   5.437   5.703   9.179 -0.0661  0.3085  0.0212
  191POPE   C2B 2424   5.669   5.953   8.870  0.4794 -0.1433  0.0294
  191POPE   C3B 2425   5.967   5.986   8.576 -0.1861 -0.1435 -0.0209
  191POPE   C4B 2426   6.275   5.809   8.210 -0.2743  0.1097 -0.0242
  192POPE   NH3 2427  15.519  11.974  10.845 -0.0754 -0.1974  0.1669
  192POPE   PO4 2428  15.935  11.983  10.636 -0.3468  0.0682 -0.0985
  192POPE   GL1 2429  15.752  12.138  10.306 -0.1905 -0.0971  0.1868
  192POPE   GL2 2430  15.433  11.932  10.333 -0.1194  0.0135  0.0695
  192POPE   C1A 2431  15.454  12.144   9.886  0.4099 -0.0033  0.0103
  192POPE   D2A 2432  15.418  12.105   9.434  0.0123 -0.0426  0.3633
  192POPE   C3A 2433  15.236  12.203   9.090 -0.1735 -0.0755 -0.1009
  192POPE   C4A 2434  15.019  12.072   8.696  0.2843 -0.3499  0.0059
  192POPE   C1B 2435  15.144  11.773   9.964 -0.1232  0.0463 -0.3938
  192POPE   C2B 2436  15.070  11.701   9.515  0.1544 -0.2400  0.0889
  192POPE   C3B 2437  15.103  11.677   9.076  0.0500  0.1248  0.0571
  192POPE   C4B 2438  14.996  11.546   8.667  0.1212 -0.0144  0.1313
  193POPE   NH3 2439  11.914  17.357  10.505 -0.4034  0.0102  0.1405
  193POPE   PO4 2440  12.255  17.711  10.572 -0.1000  0.1889  0.1379
  193POPE   GL1 2441  12.318  17.769  10.075  0.1757  0.0106 -0.0438
  193POPE   GL2 2442  12.640  17.638  10.102 -0.2689  0.2326 -0.1367
  193POPE   C1A 2443  12.351  17.906   9.629 -0.1887 -0.0588  0.2383
  193POPE   D2A 2444  12.162  17.913   9.220 -0.1746 -0.0938  0.0564
  193POPE   C3A 2445  12.256  17.708   8.922  0.1146 -0.0790  0.0190
  193POPE   C4A 2446  12.726  17.671   8.709 -0.1514 -0.1665  0.0527
  193POPE   C1B 2447  12.774  17.591   9.622 -0.2991 -0.1238  0.4004
  193POPE   C2B 2448  13.045  17.497   9.300 -0.2184  0.1463  0.3476
  193POPE   C3B 2449  13.212  17.377   8.889  0.1185  0.0458 -0.0856
  193POPE   C4B 2450  13.180  17.471   8.433 -0.2688  0.0064  0.1486
  194POPE   NH3 2451   5.329  13.310  10.276 -0.2242 -0.1250 -0.0954
  194POPE   PO4 2452   4.885  13.187  10.316 -0.2864  0.1462 -0.1360
  194POPE   GL1 2453   4.891  13.092   9.916 -0.1817 -0.0559 -0.1343
  194POPE   GL2 2454   5.161  12.981   9.905 -0.1249  0.0728  0.0045
  194POPE   C1A 2455   4.858  13.050   9.490  0.2787 -0.1994  0.1383
  194POPE   D2A 2456   4.988  12.986   9.065  0.1397 -0.2131  0.1355
  194POPE   C3A 2457   5.163  12.766   8.775 -0.1004  0.0559  0.0375
  194POPE   C4A 2458   5.092  12.906   8.392  0.0460 -0.0613 -0.0691
  194POPE   C1B 2459   5.428  13.003   9.617  0.0979  0.1529 -0.1066
  194POPE   C2B 2460   5.480  12.969   9.183 -0.0013 -0.0235 -0.2222
  194POPE   C3B 2461   5.874  13.133   8.973 -0.1792  0.0221  0.2675
  194POPE   C4B 2462   6.261  12.894   9.036 -0.2364  0.2049 -0.0018
  195POPE   NH3 2463   7.780  17.532  10.390 -0.1820 -0.1360 -0.0796
  195POPE   PO4 2464   8.086  17.879  10.311 -0.1618  0.1700 -0.0308
  195POPE   GL1 2465   8.171  17.883   9.933 -0.0985  0.0602 -0.1856
  195POPE   GL2 2466   8.553  17.944   9.870  0.1862  0.3235 -0.1239
  195POPE   C1A 2467   8.231  17.746   9.522 -0.1014 -0.1167  0.2442
  195POPE   D2A 2468   8.185  17.711   9.072  0.1920 -0.0090 -0.0061
  195POPE   C3A 2469   8.086  17.443   8.825 -0.0983  0.1871  0.1308
  195POPE   C4A 2470   7.888  17.251   8.544  0.1915  0.0558 -0.3962
  195POPE   C1B 2471   8.650  18.105   9.472  0.1992 -0.0567 -0.1953
  195POPE   C2B 2472   8.659  17.967   9.056  0.0899 -0.2323 -0.0201
  195POPE   C3B 2473   8.554  17.891   8.646 -0.0528  0.0935  0.1859
  195POPE   C4B 2474   8.454  18.103   8.247  0.0067 -0.4092 -0.0247
  196POPE   NH3 2475   4.075   5.021  10.590 -0.2938 -0.0218 -0.0753
  196POPE   PO4 2476   4.209   5.427  10.728  0.0315  0.0400 -0.3114
  196POPE   GL1 2477   4.169   5.550  10.363  0.0776  0.0878  0.0187
  196POPE   GL2 2478   4.567   5.557  10.253  0.1166 -0.0399  0.0113
  196POPE   C1A 2479   4.002   5.630   9.984  0.0905  0.2168  0.1436
  196POPE   D2A 2480   3.632   5.696   9.771 -0.0504  0.0422 -0.0482
  196POPE   C3A 2481   3.777   5.740   9.436 -0.1135  0.0677  0.0099
  196POPE   C4A 2482   3.821   5.946   9.075 -0.0113  0.0366 -0.2693
  196POPE   C1B 2483   4.589   5.724   9.907  0.0870  0.3113 -0.1163
  196POPE   C2B 2484   4.582   5.923   9.483  0.2987 -0.2975 -0.3952
  196POPE   C3B 2485   4.596   6.037   9.087 -0.0826  0.1899 -0.1636
  196POPE   C4B 2486   4.716   6.096   8.701 -0.1204  0.2957 -0.0956
  197POPE   NH3 2487  17.738   4.804  10.335  0.0850 -0.2967 -0.0126
  197POPE   PO4 2488  18.101   5.171  10.458 -0.2009  0.2757  0.1668
  197POPE   GL1 2489  18.220   4.889  10.036 -0.3036  0.0803 -0.0497
  197POPE   GL2 2490  17.979   4.912   9.839 -0.1155  0.0966  0.0178
  197POPE   C1A 2491  18.482   5.018   9.744  0.1178  0.0192  0.1497
  197POPE   D2A 2492  18.598   5.009   9.282 -0.2130  0.1788 -0.1450
  197POPE   C3A 2493  18.465   5.006   8.832  0.2013 -0.3115 -0.1422
  197POPE   C4A 2494  18.287   5.206   8.534 -0.2213 -0.1231  0.2309
  197POPE   C1B 2495  18.124   4.962   9.332  0.1522  0.2240 -0.1231
  197POPE   C2B 2496  17.935   5.134   8.935  0.0350  0.4566  0.0433
  197POPE   C3B 2497  17.798   5.430   8.692 -0.2801  0.0818 -0.0188
  197POPE   C4B 2498  17.812   5.423   8.284 -0.2001 -0.1338 -0.3542
  198YOPE   NH3 2499  14.772   3.448  10.504 -0.3194 -0.0011  0.2226
  198YOPE   PO4 2500  14.996   3.773  10.192 -0.1226  0.1100  0.2493
  198YOPE   GL1 2501  14.896   3.840   9.738  0.0445  0.0265 -0.1807
  198YOPE   GL2 2502  14.762   3.719   9.660  0.1951  0.2445 -0.0791
  198YOPE   C1A 2503  15.093   3.772   9.301  0.2073 -0.0129 -0.0233
  198YOPE   D2A 2504  15.109   3.858   8.833  0.0369  0.1618 -0.0806
  198YOPE   C3A 2505  15.010   3.640   8.455 -0.0811  0.0977  0.1310
  198YOPE   C4A 2506  14.769   3.799   8.137  0.2985  0.1883  0.2551
  198YOPE   C1B 2507  14.645   3.555   9.252 -0.0439  0.2106 -0.1066
  198YOPE   C2B 2508  14.661   3.500   8.790 -0.0765 -0.1101  0.0692
  198YOPE   D3B 2509  14.565   3.316   8.461  0.0114 -0.1472  0.0859
  198YOPE   C4B 2510  14.080   3.004   8.407 -0.2888  0.1524 -0.1959
  199YOPE   NH3 2511  11.891  13.309  11.197 -0.0671 -0.5333  0.0630
  199YOPE   PO4 2512  12.103  13.397  10.892 -0.2044 -0.0518  0.0828
  199YOPE   GL1 2513  11.791  13.404  10.663 -0.0836  0.1022 -0.1210
  199YOPE   GL2 2514  11.725  13.073  10.616  0.0964  0.2930  0.1173
  199YOPE   C1A 2515  11.723  13.412  10.226 -0.0849  0.0844  0.1932
  199YOPE   D2A 2516  11.479  13.322   9.837 -0.0004 -0.1014  0.3532
  199YOPE   C3A 2517  11.381  13.375   9.382 -0.0985 -0.0141  0.0110
  199YOPE   C4A 2518  11.403  13.549   9.058  0.0730 -0.0060  0.2378
  199YOPE   C1B 2519  11.523  12.957  10.235  0.4200  0.2286 -0.0733
  199YOPE   C2B 2520  11.704  12.910   9.906  0.1561  0.0642 -0.1626
  199YOPE   D3B 2521  11.697  12.977   9.507 -0.2290  0.0076 -0.0383
  199YOPE   C4B 2522  11.541  12.810   9.075 -0.0417 -0.0138  0.0650
  200YOPE   NH3 2523   0.493   1.144   9.836 -0.0625  0.1739 -0.3826
  200YOPE   PO4 2524   0.884   1.165   9.735 -0.2241 -0.0216 -0.2527
  200YOPE   GL1 2525   1.034   1.004   9.285  0.1481  0.2124 -0.1905
  200YOPE   GL2 2526   1.236   1.253   9.175  0.1675  0.0152  0.0280
  200YOPE   C1A 2527   0.879   0.824   8.886 -0.0794 -0.0262  0.1148
  200YOPE   D2A 2528   0.810   0.810   8.486  0.0181  0.2829  0.0572
  200YOPE   C3A 2529   0.909   1.111   8.235  0.0316  0.1530  0.0259
  200YOPE   C4A 2530   0.794   1.419   7.997 -0.0494  0.2154  0.0906
  200YOPE   C1B 2531   1.161   1.302   8.669 -0.0321 -0.3241  0.1265
  200YOPE   C2B 2532   1.169   1.553   8.363  0.0791  0.3315  0.0959
  200YOPE   D3B 2533   1.209   1.819   8.004  0.0516  0.4056  0.2904
  200YOPE   C4B 2534   1.402   1.997   7.629  0.0352 -0.0729 -0.1697
  201YOPE   NH3 2535   7.926   1.072  10.264 -0.0871  0.1658 -0.1089
  201YOPE   PO4 2536   8.209   0.737  10.441  0.0623  0.0700  0.1327
  201YOPE   GL1 2537   8.265   0.768   9.979 -0.2283  0.0117 -0.1085
  201YOPE   GL2 2538   7.992   0.796   9.824 -0.2471 -0.1463 -0.4264
  201YOPE   C1A 2539   8.370   0.877   9.484 -0.0330  0.0016 -0.2976
  201YOPE   D2A 2540   8.187   0.878   9.095 -0.0758 -0.1449  0.0903
  201YOPE   C3A 2541   8.097   0.840   8.693 -0.0924 -0.2761 -0.1369
  201YOPE   C4A 2542   8.109   0.679   8.282 -0.0057 -0.1798 -0.0115
  201YOPE   C1B 2543   7.824   0.694   9.372  0.2503  0.1532 -0.3404
  201YOPE   C2B 2544   7.720   0.660   8.913 -0.1963 -0.1149 -0.0089
  201YOPE   D3B 2545   7.558   0.790   8.560  0.0493 -0.0915 -0.0261
  201YOPE   C4B 2546   7.291   1.044   8.379 -0.0036  0.0153  0.3254
  202YOPE   NH3 2547   3.573  10.446  10.656  0.0388  0.1087 -0.2589
  202YOPE   PO4 2548   3.206  10.532  10.457 -0.2899 -0.0411 -0.0228
  202YOPE   GL1 2549   3.409  10.276  10.169 -0.1193 -0.2447 -0.1863
  202YOPE   GL2 2550   3.179  10.199  10.073  0.2099 -0.0527 -0.2380
  202YOPE   C1A 2551   3.666  10.205   9.744  0.0345 -0.0583  0.0553
  202YOPE   D2A 2552   3.679   9.814   9.505  0.2643 -0.1598  0.0966
  202YOPE   C3A 2553   3.723   9.842   9.086 -0.1693  0.3836 -0.2162
  202YOPE   C4A 2554   3.774   9.895   8.644  0.0447 -0.0528  0.0829
  202YOPE   C1B 2555   3.229   9.893   9.713 -0.2867  0.0356 -0.1859
  202YOPE   C2B 2556   3.125   9.881   9.244 -0.2155  0.1386 -0.2543
  202YOPE   D3B 2557   3.256   9.823   8.768  0.0576  0.2930 -0.1556
  202YOPE   C4B 2558   3.021  10.087   8.437  0.0573  0.0424 -0.1097
  203YOPE   NH3 2559   7.903   7.218  10.535  0.1862 -0.0434  0.2097
  203YOPE   PO4 2560   7.499   7.455  10.630 -0.0634  0.2839 -0.2567
  203YOPE   GL1 2561   7.282   7.553  10.261  0.0436 -0.0855  0.0733
  203YOPE   GL2 2562   7.017   7.820  10.294 -0.1696 -0.0438 -0.0254
  203YOPE   C1A 2563   7.518   7.772   9.899 -0.0015  0.0018  0.0333
  203YOPE   D2A 2564   7.631   7.760   9.582  0.3575 -0.0745  0.1560
  203YOPE   C3A 2565   7.684   8.151   9.468  0.2127 -0.0207  0.2097
  203YOPE   C4A 2566   7.556   8.510   9.221  0.1815  0.0428 -0.1274
  203YOPE   C1B 2567   6.981   7.725   9.856  0.0835 -0.0977  0.1238
  203YOPE   C2B 2568   6.698   7.553   9.566  0.1689 -0.2192  0.1588
  203YOPE   D3B 2569   6.594   7.651   9.219  0.3667  0.1637 -0.1209
  203YOPE   C4B 2570   6.234   7.544   8.832 -0.0606  0.2495  0.2339
  204YOPE   NH3 2571  11.299   3.943  10.433  0.3030 -0.0883  0.0670
  204YOPE   PO4 2572  10.955   4.113  10.342  0.0622 -0.0474 -0.0009
  204YOPE   GL1 2573  11.196   4.217   9.959 -0.1017  0.0367  0.3980
  204YOPE   GL2 2574  11.196   4.602   9.875  0.0488  0.1459 -0.3002
  204YOPE   C1A 2575  11.103   4.224   9.583 -0.3713 -0.2837 -0.4082
  204YOPE   D2A 2576  11.267   4.145   9.269 -0.1014  0.2451  0.0164
  204YOPE   C3A 2577  11.284   4.300   8.881  0.2747  0.1593  0.0278
  204YOPE   C4A 2578  11.350   4.344   8.496 -0.2253 -0.1353 -0.0087
  204YOPE   C1B 2579  11.351   4.633   9.446  0.3768 -0.2475 -0.0994
  204YOPE   C2B 2580  11.589   4.570   9.106  0.0184 -0.0984  0.1491
  204YOPE   D3B 2581  11.675   4.632   8.766 -0.0046 -0.0357 -0.0170
  204YOPE   C4B 2582  11.732   4.672   8.352  0.2075  0.1481  0.0006
  205YOPE   NH3 2583  15.966   0.122  10.311  0.2424  0.2918 -0.1512
  205YOPE   PO4 2584  15.693   0.319  10.625  0.0472  0.0096 -0.0205
  205YOPE   GL1 2585  15.538   0.436  10.174  0.0903  0.3216  0.1200
  205YOPE   GL2 2586  15.506   0.187   9.878  0.1453 -0.0290 -0.1375
  205YOPE   C1A 2587  15.475   0.697   9.793 -0.0670 -0.2533  0.5419
  205YOPE   D2A 2588  15.306   0.833   9.452  0.1943  0.2606 -0.2112
  205YOPE   C3A 2589  15.196   0.606   9.134  0.0904  0.1784  0.1276
  205YOPE   C4A 2590  15.338   0.682   8.678 -0.0999  0.2673  0.2028
  205YOPE   C1B 2591  15.324   0.252   9.403 -0.2185  0.0594 -0.0487
  205YOPE   C2B 2592  14.989   0.155   9.014  0.1527 -0.0425 -0.0947
  205YOPE   D3B 2593  15.100   0.271   8.608  0.0564  0.1724 -0.1676
  205YOPE   C4B 2594  15.063   0.237   8.218 -0.0125 -0.1514  0.0366
  206YOPE   NH3 2595   0.971   3.584   9.931 -0.1292  0.1056 -0.0552
  206YOPE   PO4 2596   0.653   3.760  10.094  0.1827  0.1468  0.2697
  206YOPE   GL1 2597   0.637   3.830   9.672  0.3157 -0.0714 -0.2395
  206YOPE   GL2 2598   0.705   3.624   9.471 -0.2165  0.1828 -0.0882
  206YOPE   C1A 2599   0.654   4.168   9.410 -0.0548  0.1464  0.1001
  206YOPE   D2A 2600   0.695   4.225   8.908  0.1930 -0.2335 -0.2790
  206YOPE   C3A 2601   0.578   4.555   8.533 -0.0076  0.2425 -0.1776
  206YOPE   C4A 2602   0.603   4.963   8.258 -0.1703  0.1731  0.2091
  206YOPE   C1B 2603   0.818   3.736   9.005 -0.2636 -0.0337  0.1270
  206YOPE   C2B 2604   0.892   3.548   8.584 -0.1954  0.0715 -0.0366
  206YOPE   D3B 2605   0.960   3.781   8.157 -0.0455 -0.0491  0.0987
  206YOPE   C4B 2606   1.132   3.594   7.782  0.2613  0.0991  0.0182
  207YOPE   NH3 2607  17.534   3.346  10.136  0.0425  0.0325 -0.1321
  207YOPE   PO4 2608  17.110   3.623  10.071 -0.1163 -0.5010  0.0890
  207YOPE   GL1 2609  17.351   3.906   9.826  0.1701  0.4560 -0.2453
  207YOPE   GL2 2610  17.581   3.999   9.971  0.0182  0.1160  0.1273
  207YOPE   C1A 2611  17.279   4.013   9.365 -0.3926  0.0745  0.1210
  207YOPE   D2A 2612  17.408   4.114   8.963  0.1816 -0.1132 -0.0449
  207YOPE   C3A 2613  17.384   3.897   8.557  0.0129  0.1154 -0.0031
  207YOPE   C4A 2614  17.437   3.483   8.296  0.1118 -0.1598  0.0759
  207YOPE   C1B 2615  17.671   4.256   9.515 -0.0426 -0.0911 -0.2204
  207YOPE   C2B 2616  17.786   4.428   9.170  0.1907  0.0084  0.0439
  207YOPE   D3B 2617  17.679   4.585   8.812 -0.0929  0.0363 -0.3115
  207YOPE   C4B 2618  17.402   4.399   8.404 -0.2554  0.2563 -0.4793
  208YOPE   NH3 2619   3.081   1.269  10.265 -0.0567  0.2459 -0.0800
  208YOPE   PO4 2620   3.309   1.620   9.981  0.0949 -0.3701  0.0503
  208YOPE   GL1 2621   3.544   1.510   9.635  0.1883 -0.0271 -0.1092
  208YOPE   GL2 2622   3.662   1.822   9.531 -0.0902  0.2718 -0.0884
  208YOPE   C1A 2623   3.802   1.365   9.187  0.0042  0.2208 -0.1749
  208YOPE   D2A 2624   3.916   1.328   8.784  0.2687 -0.2191  0.1517
  208YOPE   C3A 2625   4.065   1.489   8.354  0.2109 -0.1853  0.2644
  208YOPE   C4A 2626   4.027   1.319   7.904  0.0916 -0.1527  0.0013
  208YOPE   C1B 2627   3.888   1.819   9.134 -0.0220  0.0752  0.1605
  208YOPE   C2B 2628   4.064   2.002   8.758  0.3620 -0.2646  0.2948
  208YOPE   D3B 2629   4.101   1.966   8.386 -0.1701  0.1250 -0.0927
  208YOPE   C4B 2630   3.974   2.192   8.011  0.1054 -0.0062  0.2880
  209YOPE   NH3 2631  16.684  11.032  10.390  0.5775 -0.2691  0.2352
  209YOPE   PO4 2632  16.320  11.049  10.667 -0.0254  0.0704 -0.0894
  209YOPE   GL1 2633  16.237  11.349  10.262  0.0687  0.0926 -0.2290
  209YOPE   GL2 2634  16.065  11.641  10.242  0.0593  0.3809 -0.1228
  209YOPE   C1A 2635  16.172  11.314   9.753 -0.0243  0.0042  0.2570
  209YOPE   D2A 2636  16.040  11.343   9.309 -0.0888 -0.0342 -0.1388
  209YOPE   C3A 2637  15.871  11.081   9.125 -0.1748  0.0983  0.3359
  209YOPE   C4A 2638  15.870  10.634   8.875  0.0445 -0.1794 -0.4679
  209YOPE   C1B 2639  15.690  11.604  10.031  0.1349 -0.0544 -0.0669
  209YOPE   C2B 2640  15.570  11.613   9.658 -0.0939 -0.3086 -0.0666
  209YOPE   D3B 2641  15.545  11.505   9.297  0.0540 -0.1361 -0.1200
  209YOPE   C4B 2642  15.510  11.321   8.919 -0.3077 -0.2499 -0.2552
  210YOPE   NH3 2643  14.499   7.722  10.603  0.0750 -0.0860  0.1629
  210YOPE   PO4 2644  14.908   7.578  10.413 -0.2241 -0.0453  0.0064
  210YOPE   GL1 2645  15.018   7.504   9.994 -0.0687  0.0308  0.1627
  210YOPE   GL2 2646  14.913   7.230   9.811  0.1765  0.1317 -0.1389
  210YOPE   C1A 2647  15.458   7.403   9.806 -0.0116 -0.1148  0.2071
  210YOPE   D2A 2648  15.636   7.392   9.426  0.1161 -0.0721  0.1349
  210YOPE   C3A 2649  15.619   7.329   8.998 -0.1962 -0.3321 -0.2390
  210YOPE   C4A 2650  15.416   7.499   8.630  0.0675  0.1479 -0.1572
  210YOPE   C1B 2651  14.924   7.298   9.396  0.0977  0.0946 -0.0900
  210YOPE   C2B 2652  15.167   7.246   9.122 -0.0195 -0.1562  0.0605
  210YOPE   D3B 2653  15.380   7.049   8.731  0.0622  0.2764  0.1106
  210YOPE   C4B 2654  15.312   6.915   8.326  0.3522 -0.0738 -0.0755
  211YOPE   NH3 2655   5.429  15.490  10.260 -0.0642 -0.1055  0.0197
  211YOPE   PO4 2656   5.416  15.016  10.363 -0.0176 -0.0688 -0.1283
  211YOPE   GL1 2657   5.421  15.099   9.950 -0.0375  0.0097 -0.0103
  211YOPE   GL2 2658   5.727  14.965   9.886 -0.0284 -0.5711 -0.1074
  211YOPE   C1A 2659   5.228  15.049   9.492 -0.1404 -0.0603 -0.2023
  211YOPE   D2A 2660   5.369  15.024   9.082 -0.0135  0.0016  0.1828
  211YOPE   C3A 2661   5.147  15.129   8.716  0.3195  0.3975  0.0957
  211YOPE   C4A 2662   5.246  14.853   8.349  0.0713  0.1346 -0.0591
  211YOPE   C1B 2663   5.739  15.029   9.449  0.1093 -0.2318 -0.1701
  211YOPE   C2B 2664   5.964  15.073   9.080  0.2543  0.1704  0.0756
  211YOPE   D3B 2665   6.078  14.954   8.685 -0.0244 -0.0718  0.1349
  211YOPE   C4B 2666   5.812  14.987   8.376  0.1647 -0.0915 -0.0203
  212YOPE   NH3 2667   1.223  17.950   9.759  0.0190  0.0830  0.1513
  212YOPE   PO4 2668   1.691  18.157   9.656  0.1246 -0.0520 -0.0781
  212YOPE   GL1 2669   1.734  18.163   9.272 -0.0051 -0.1783  0.0518
  212YOPE   GL2 2670   2.025  18.363   9.154  0.2714 -0.0438  0.2116
  212YOPE   C1A 2671   1.862  17.919   8.868  0.1039  0.2994 -0.1642
  212YOPE   D2A 2672   1.870  17.940   8.424  0.1246 -0.0378  0.0933
  212YOPE   C3A 2673   1.833  18.090   8.091  0.1131 -0.1847 -0.0830
  212YOPE   C4A 2674   1.549  17.990   7.725 -0.1867  0.0158 -0.1120
  212YOPE   C1B 2675   2.089  18.366   8.691 -0.1814 -0.0510 -0.1648
  212YOPE   C2B 2676   2.064  18.524   8.208 -0.1244 -0.0830  0.3051
  212YOPE   D3B 2677   1.917  18.440   7.764 -0.1416 -0.0596  0.2409
  212YOPE   C4B 2678   1.834  18.651   7.405 -0.0170  0.0470 -0.4027
  213YOPE   NH3 2679   1.532  11.517  10.095 -0.0792 -0.2288 -0.2992
  213YOPE   PO4 2680   1.974  11.428  10.041 -0.2169 -0.1738  0.0929
  213YOPE   GL1 2681   2.177  11.603   9.712  0.0296  0.0907 -0.1082
  213YOPE   GL2 2682   2.604  11.633   9.569 -0.0456  0.0093 -0.1173
  213YOPE   C1A 2683   2.125  11.363   9.350 -0.0458  0.0350 -0.1138
  213YOPE   D2A 2684   2.244  11.316   8.868 -0.2243 -0.2735 -0.0161
  213YOPE   C3A 2685   2.053  11.329   8.500 -0.1468 -0.0996  0.0455
  213YOPE   C4A 2686   1.635  11.249   8.333 -0.0814 -0.0800 -0.0546
  213YOPE   C1B 2687   2.917  11.718   9.300 -0.1182 -0.2936  0.4339
  213YOPE   C2B 2688   3.125  11.660   8.852 -0.0219 -0.0491 -0.0826
  213YOPE   D3B 2689   3.097  11.726   8.427  0.1841  0.4548  0.1479
  213YOPE   C4B 2690   3.358  11.477   8.079 -0.2720  0.2326  0.2909
  214YOPE   NH3 2691   9.822   8.353  10.717 -0.1970  0.0175 -0.1044
  214YOPE   PO4 2692   9.886   7.972  10.791 -0.0877  0.0309  0.0328
  214YOPE   GL1 2693   9.979   7.992  10.384  0.0277  0.1551  0.2825
  214YOPE   GL2 2694   9.807   7.796  10.141 -0.0729 -0.0871 -0.1287
  214YOPE   C1A 2695  10.377   8.259  10.276  0.0608  0.0740  0.0464
  214YOPE   D2A 2696  10.622   8.325  10.008  0.1319  0.0548 -0.0625
  214YOPE   C3A 2697  10.631   8.620   9.668  0.1378 -0.0171  0.0595
  214YOPE   C4A 2698  10.771   8.893   9.355 -0.0142 -0.2470 -0.0667
  214YOPE   C1B 2699  10.007   7.674   9.731  0.2502  0.0714 -0.3174
  214YOPE   C2B 2700   9.894   7.893   9.285  0.1809  0.0072 -0.0073
  214YOPE   D3B 2701   9.768   8.038   8.775 -0.1054  0.0393  0.1510
  214YOPE   C4B 2702   9.408   8.046   8.621 -0.0524  0.0074  0.1493
  215YOPE   NH3 2703   2.059  12.724  10.024 -0.1782 -0.1683 -0.0628
  215YOPE   PO4 2704   1.696  12.467  10.087  0.0682 -0.0333 -0.0614
  215YOPE   GL1 2705   1.830  12.374   9.731 -0.3302  0.0162 -0.0425
  215YOPE   GL2 2706   2.173  12.300   9.742 -0.1899  0.3224 -0.1643
  215YOPE   C1A 2707   1.706  12.247   9.329  0.2049 -0.0521 -0.0436
  215YOPE   D2A 2708   1.542  12.135   8.860  0.1925  0.1218 -0.0149
  215YOPE   C3A 2709   1.834  12.132   8.454 -0.0157  0.1838  0.0919
  215YOPE   C4A 2710   1.978  11.777   8.183 -0.0810  0.0728 -0.0899
  215YOPE   C1B 2711   2.202  11.976   9.370  0.1559 -0.0186 -0.1628
  215YOPE   C2B 2712   2.437  11.727   9.041 -0.0555 -0.0624  0.0106
  215YOPE   D3B 2713   2.703  11.408   8.766  0.0334  0.1222  0.0251
  215YOPE   C4B 2714   3.046  11.224   8.493  0.0439  0.1930 -0.1427
  216YOPE   NH3 2715  10.044   3.439  10.040 -0.2440 -0.3680 -0.0618
  216YOPE   PO4 2716  10.351   3.335  10.141  0.0244  0.0528  0.1508
  216YOPE   GL1 2717  10.421   3.424   9.726 -0.2561  0.0434 -0.1064
  216YOPE   GL2 2718  10.316   3.726   9.598  0.1436  0.0491  0.1371
  216YOPE   C1A 2719  10.663   3.204   9.409  0.2717 -0.1860 -0.0044
  216YOPE   D2A 2720  10.639   3.087   8.947  0.0270  0.3097 -0.2991
  216YOPE   C3A 2721  10.654   3.416   8.611  0.1095 -0.5315  0.0136
  216YOPE   C4A 2722  10.906   3.565   8.358 -0.1682  0.0530  0.1293
  216YOPE   C1B 2723  10.307   3.584   9.118 -0.1994 -0.0800 -0.1750
  216YOPE   C2B 2724  10.373   3.848   8.789  0.0622 -0.2515  0.1515
  216YOPE   D3B 2725  10.436   3.907   8.397 -0.1585  0.0001  0.0539
  216YOPE   C4B 2726  10.698   3.878   8.053 -0.3353  0.1287 -0.2319
  217YOPE   NH3 2727   0.578   2.538  10.293 -0.1066 -0.0852  0.0268
  217YOPE   PO4 2728   0.318   2.891  10.196 -0.1261  0.3069 -0.0468
  217YOPE   GL1 2729   0.274   2.885   9.726  0.0696 -0.0340  0.0792
  217YOPE   GL2 2730  -0.099   2.836   9.626  0.1875 -0.1539  0.2390
  217YOPE   C1A 2731   0.305   2.809   9.330 -0.2875  0.0762  0.0079
  217YOPE   D2A 2732   0.366   2.840   8.978 -0.2319 -0.0247  0.1415
  217YOPE   C3A 2733   0.159   2.935   8.603 -0.1584 -0.0789 -0.1465
  217YOPE   C4A 2734  -0.017   2.925   8.157  0.1638 -0.1605 -0.1075
  217YOPE   C1B 2735  -0.201   2.934   9.214 -0.2204 -0.1397 -0.1339
  217YOPE   C2B 2736  -0.515   2.929   8.923 -0.1935 -0.2924 -0.0541
  217YOPE   D3B 2737  -0.738   3.211   8.686  0.4366  0.1949  0.0789
  217YOPE   C4B 2738  -1.023   3.294   8.412  0.1106  0.0510 -0.2309
  218YOPE   NH3 2739  11.095  12.204  10.799 -0.0137 -0.1972 -0.0518
  218YOPE   PO4 2740  10.705  12.344  10.996  0.5446 -0.2201  0.1448
  218YOPE   GL1 2741  10.459  12.313  10.634 -0.1207 -0.1436  0.0023
  218YOPE   GL2 2742  10.356  12.109  10.503 -0.1072  0.1885  0.1459
  218YOPE   C1A 2743  10.739  12.447  10.255  0.1028 -0.0263  0.1643
  218YOPE   D2A 2744  10.769  12.456   9.821  0.0708  0.0384  0.4457
  218YOPE   C3A 2745  10.462  12.398   9.496 -0.0416  0.1124  0.0719
  218YOPE   C4A 2746  10.309  12.314   9.069  0.0394  0.2125 -0.0613
  218YOPE   C1B 2747  10.381  12.150  10.089 -0.2251 -0.0568  0.2307
  218YOPE   C2B 2748  10.438  11.920   9.756 -0.3916  0.0165  0.5757
  218YOPE   D3B 2749  10.292  11.909   9.329  0.3756  0.0006  0.0301
  218YOPE   C4B 2750  10.254  11.843   8.806 -0.0485 -0.0325 -0.0263
  219YOPE   NH3 2751   7.305   9.644  10.888 -0.0077  0.1798 -0.0598
  219YOPE   PO4 2752   7.025  10.023  11.012  0.1021  0.1539  0.1004
  219YOPE   GL1 2753   7.117  10.050  10.608 -0.4437 -0.1378 -0.0806
  219YOPE   GL2 2754   7.177   9.678  10.393 -0.4923  0.0624  0.3969
  219YOPE   C1A 2755   7.305  10.317  10.278 -0.0843 -0.1908 -0.4053
  219YOPE   D2A 2756   7.644  10.519  10.190  0.0802  0.1396  0.1609
  219YOPE   C3A 2757   7.577  10.981  10.140 -0.1413 -0.1519  0.1533
  219YOPE   C4A 2758   7.452  11.179   9.697  0.2974 -0.0412 -0.2312
  219YOPE   C1B 2759   7.488   9.657  10.143 -0.0780 -0.0633 -0.0667
  219YOPE   C2B 2760   7.590   9.706   9.720 -0.2591  0.0201 -0.2759
  219YOPE   D3B 2761   7.357   9.702   9.383  0.1512  0.1275  0.1667
  219YOPE   C4B 2762   7.266   9.696   9.038  0.1252  0.1206  0.2190
  220YOPE   NH3 2763   5.632  17.124  10.022  0.0595 -0.0514  0.0921
  220YOPE   PO4 2764   5.597  17.592  10.003 -0.4627 -0.2932  0.0200
  220YOPE   GL1 2765   5.633  17.511   9.551  0.0096  0.4892  0.2468
  220YOPE   GL2 2766   5.862  17.283   9.588  0.0628  0.0998 -0.0155
  220YOPE   C1A 2767   5.740  17.489   9.071 -0.1781  0.1140  0.1879
  220YOPE   D2A 2768   6.112  17.397   8.882  0.0796 -0.1047 -0.3463
  220YOPE   C3A 2769   6.254  17.598   8.567 -0.0567  0.0005 -0.2999
  220YOPE   C4A 2770   6.313  17.790   8.247  0.0289 -0.2076  0.3268
  220YOPE   C1B 2771   6.129  17.542   9.647  0.3505 -0.0323 -0.0861
  220YOPE   C2B 2772   6.492  17.468   9.877  0.1632 -0.0778  0.2189
  220YOPE   D3B 2773   6.832  17.423  10.003 -0.0361 -0.4392  0.2723
  220YOPE   C4B 2774   7.145  17.619   9.868  0.0182  0.2298 -0.0279
  221YOPE   NH3 2775   4.590   7.592  10.942 -0.1264  0.1925  0.2148
  221YOPE   PO4 2776   4.919   7.587  10.647  0.1542  0.1303  0.0435
  221YOPE   GL1 2777   5.204   7.607  10.306 -0.3829  0.1256 -0.0386
  221YOPE   GL2 2778   5.290   7.320  10.106  0.0795 -0.1029 -0.2285
  221YOPE   C1A 2779   5.190   7.885   9.855 -0.0070 -0.1977  0.2188
  221YOPE   D2A 2780   4.973   8.126   9.561 -0.1127  0.1300  0.1835
  221YOPE   C3A 2781   5.081   8.330   9.238 -0.0549 -0.1373 -0.2170
  221YOPE   C4A 2782   5.065   8.192   8.840 -0.1571  0.2341  0.2460
  221YOPE   C1B 2783   5.384   7.449   9.754 -0.3586  0.1337  0.0703
  221YOPE   C2B 2784   5.357   7.334   9.289  0.2637 -0.0963  0.1126
  221YOPE   D3B 2785   5.113   7.320   8.832  0.1921  0.0740 -0.0319
  221YOPE   C4B 2786   4.846   7.282   8.428 -0.0354 -0.0468  0.0075
  222YOPE   NH3 2787   5.791  11.337  10.815 -0.0090 -0.1071 -0.3608
  222YOPE   PO4 2788   5.749  11.779  10.857 -0.0479 -0.2296  0.1319
  222YOPE   GL1 2789   5.761  11.688  10.448 -0.2763 -0.1636  0.3601
  222YOPE   GL2 2790   5.668  11.951  10.136  0.0249  0.0015 -0.0283
  222YOPE   C1A 2791   6.089  11.656  10.108 -0.2175 -0.1708 -0.0510
  222YOPE   D2A 2792   6.152  11.501   9.669 -0.0242 -0.2141  0.3197
  222YOPE   C3A 2793   5.847  11.335   9.373  0.0726 -0.0139  0.0867
  222YOPE   C4A 2794   5.840  11.092   9.002 -0.0180  0.0723 -0.0577
  222YOPE   C1B 2795   5.865  11.987   9.701 -0.1321 -0.1559  0.1482
  222YOPE   C2B 2796   5.985  11.918   9.379  0.0599 -0.0454  0.0429
  222YOPE   D3B 2797   6.149  11.578   9.090 -0.0734  0.0614 -0.0581
  222YOPE   C4B 2798   6.232  11.317   8.619 -0.0640 -0.1074 -0.0132
  223YOPE   NH3 2799   1.874   6.290  10.509 -0.1904 -0.2183 -0.0492
  223YOPE   PO4 2800   1.493   5.989  10.568 -0.2672 -0.0528  0.1457
  223YOPE   GL1 2801   1.608   6.115  10.073 -0.2036  0.0420  0.0638
  223YOPE   GL2 2802   1.830   6.256   9.987 -0.3169  0.1260 -0.1700
  223YOPE   C1A 2803   1.512   6.072   9.617 -0.3666 -0.0821  0.1025
  223YOPE   D2A 2804   1.730   5.946   9.187  0.2745  0.1072 -0.0416
  223YOPE   C3A 2805   1.843   6.297   8.983 -0.0802 -0.1252  0.0407
  223YOPE   C4A 2806   1.907   6.500   8.560 -0.1362  0.1166 -0.2994
  223YOPE   C1B 2807   2.003   6.280   9.540  0.1317  0.3399 -0.2533
  223YOPE   C2B 2808   2.377   6.360   9.278  0.1355  0.0403  0.0585
  223YOPE   D3B 2809   2.421   6.431   8.872  0.1298  0.2147 -0.3403
  223YOPE   C4B 2810   2.600   6.191   8.602  0.2550  0.3884 -0.2688
  224YOPE   NH3 2811   6.542   6.469  10.582  0.2604  0.1044  0.2293
  224YOPE   PO4 2812   6.865   6.764  10.520  0.1722  0.0189 -0.2911
  224YOPE   GL1 2813   7.129   6.966  10.173  0.1074  0.0888  0.3294
  224YOPE   GL2 2814   6.973   7.204  10.040  0.2072  0.0941  0.0368
  224YOPE   C1A 2815   7.250   6.866   9.791 -0.1041 -0.0428 -0.1271
  224YOPE   D2A 2816   7.322   6.906   9.288  0.2188  0.1805  0.0442
  224YOPE   C3A 2817   7.249   7.239   8.955 -0.0329 -0.0671  0.0372
  224YOPE   C4A 2818   7.245   7.537   8.663 -0.0772  0.0341  0.1781
  224YOPE   C1B 2819   7.127   7.316   9.587 -0.0478 -0.2860  0.2563
  224YOPE   C2B 2820   7.173   7.582   9.326 -0.0695 -0.3814 -0.1983
  224YOPE   D3B 2821   7.492   7.708   9.103  0.0205  0.0815 -0.0605
  224YOPE   C4B 2822   7.616   8.062   9.024  0.1538 -0.1345 -0.0726
  225YOPE   NH3 2823   2.105   4.762  10.573 -0.0397  0.1178  0.0151
  225YOPE   PO4 2824   2.441   4.459  10.567 -0.1013  0.2518  0.0531
  225YOPE   GL1 2825   2.381   4.581  10.155  0.0732  0.1217  0.0943
  225YOPE   GL2 2826   2.036   4.545  10.173  0.2030 -0.0349 -0.0766
  225YOPE   C1A 2827   2.624   4.735   9.715 -0.1835  0.1147 -0.0358
  225YOPE   D2A 2828   2.895   4.563   9.377  0.1880  0.3124  0.0470
  225YOPE   C3A 2829   3.245   4.693   9.202  0.1012 -0.0561 -0.0632
  225YOPE   C4A 2830   3.587   4.729   9.334 -0.2758  0.1526  0.1705
  225YOPE   C1B 2831   2.192   4.438   9.766 -0.2100  0.1728  0.2618
  225YOPE   C2B 2832   1.955   4.538   9.420 -0.0410  0.1720  0.1061
  225YOPE   D3B 2833   1.937   4.493   8.967  0.3872 -0.2164 -0.2186
  225YOPE   C4B 2834   2.045   4.517   8.492 -0.0711 -0.0823 -0.4266
  226YOPE   NH3 2835   7.098   0.714  10.064  0.0716  0.0738 -0.1892
  226YOPE   PO4 2836   7.595   0.701  10.090  0.3058 -0.2197  0.0176
  226YOPE   GL1 2837   7.438   0.646   9.693  0.0375  0.0929 -0.0369
  226YOPE   GL2 2838   7.234   0.776   9.576  0.1062 -0.2039  0.1422
  226YOPE   C1A 2839   7.473   0.388   9.288  0.2568  0.0329  0.3005
  226YOPE   D2A 2840   7.467   0.236   8.796  0.1859 -0.3374  0.1221
  226YOPE   C3A 2841   7.183   0.440   8.509  0.1215 -0.2573  0.0649
  226YOPE   C4A 2842   6.719   0.539   8.558 -0.1348  0.2057 -0.0117
  226YOPE   C1B 2843   7.341   0.860   9.193  0.2111  0.1419 -0.1982
  226YOPE   C2B 2844   7.101   0.887   8.823  0.1330  0.0021 -0.0030
  226YOPE   D3B 2845   6.820   1.081   8.522 -0.4271 -0.2311  0.0694
  226YOPE   C4B 2846   6.543   0.844   8.245  0.0800  0.1191  0.2191
  227YOPE   NH3 2847  13.774  14.536  10.950 -0.0762  0.0809  0.1311
  227YOPE   PO4 2848  14.088  14.153  10.903  0.0961 -0.2167 -0.2800
  227YOPE   GL1 2849  14.068  14.101  10.490 -0.1373 -0.2990  0.2374
  227YOPE   GL2 2850  13.933  14.389  10.355  0.0568 -0.3563 -0.3405
  227YOPE   C1A 2851  14.155  13.962  10.088 -0.3717 -0.1970 -0.1547
  227YOPE   D2A 2852  14.253  13.969   9.664  0.1782 -0.1125  0.3057
  227YOPE   C3A 2853  14.626  14.068   9.471  0.2641 -0.1210 -0.1566
  227YOPE   C4A 2854  14.929  14.221   9.234 -0.0461  0.2440 -0.0964
  227YOPE   C1B 2855  13.938  14.406   9.958 -0.0345  0.1977 -0.0746
  227YOPE   C2B 2856  13.880  14.380   9.574  0.1304 -0.0169 -0.1132
  227YOPE   D3B 2857  13.853  14.583   9.258 -0.0532 -0.2456  0.0869
  227YOPE   C4B 2858  13.595  14.607   8.825  0.0647 -0.0194 -0.0502
  228YOPE   NH3 2859  12.896  17.683  10.596 -0.0432 -0.1332  0.0072
  228YOPE   PO4 2860  13.297  17.549  10.458  0.0274 -0.4442 -0.0760
  228YOPE   GL1 2861  13.138  17.561  10.081 -0.2633  0.0325  0.0148
  228YOPE   GL2 2862  13.092  17.938  10.188 -0.1426  0.3494 -0.0875
  228YOPE   C1A 2863  13.270  17.697   9.735 -0.1572 -0.2056 -0.0945
  228YOPE   D2A 2864  13.094  18.009   9.452 -0.1116  0.1164 -0.1770
  228YOPE   C3A 2865  13.180  17.895   9.026  0.0030  0.1642 -0.2834
  228YOPE   C4A 2866  13.366  17.892   8.642  0.1424  0.0155 -0.0077
  228YOPE   C1B 2867  12.760  18.084   9.889 -0.2080  0.0535  0.0707
  228YOPE   C2B 2868  12.592  18.320   9.481  0.1252 -0.0492  0.1102
  228YOPE   D3B 2869  12.612  18.733   9.178 -0.1740 -0.1788  0.1968
  228YOPE   C4B 2870  12.354  18.812   8.896  0.4304 -0.0086 -0.1909
  229YOPE   NH3 2871   2.905   7.267  10.687 -0.1450 -0.0456  0.0193
  229YOPE   PO4 2872   2.428   7.301  10.586 -0.1568  0.1235 -0.1380
  229YOPE   GL1 2873   2.344   7.467  10.228  0.0155  0.0584 -0.1593
  229YOPE   GL2 2874   2.047   7.548  10.345 -0.0392  0.2075 -0.4097
  229YOPE   C1A 2875   2.479   7.412   9.818 -0.1751  0.0147  0.1841
  229YOPE   D2A 2876   2.430   7.239   9.552 -0.0144  0.1760 -0.2130
  229YOPE   C3A 2877   2.591   7.235   9.207 -0.1897  0.2965  0.2012
  229YOPE   C4A 2878   2.528   7.355   8.800  0.1930 -0.1028 -0.3824
  229YOPE   C1B 2879   2.119   7.765   9.929 -0.0758 -0.2290 -0.0180
  229YOPE   C2B 2880   2.348   7.773   9.517 -0.1620 -0.0428  0.2509
  229YOPE   D3B 2881   2.586   7.698   9.222 -0.1655 -0.0325 -0.0123
  229YOPE   C4B 2882   2.907   7.673   8.926 -0.0302  0.3159 -0.0308
  230YOPE   NH3 2883   6.189  14.242  10.355  0.0441  0.0975 -0.0092
  230YOPE   PO4 2884   5.871  14.638  10.315 -0.2044  0.0274 -0.4098
  230YOPE   GL1 2885   6.212  14.744  10.036 -0.1799 -0.0087 -0.0411
  230YOPE   GL2 2886   6.382  14.914  10.179  0.3903 -0.0473 -0.2642
  230YOPE   C1A 2887   6.446  14.597   9.633  0.2676  0.1992 -0.0234
  230YOPE   D2A 2888   6.339  14.279   9.380 -0.0504  0.1132  0.2232
  230YOPE   C3A 2889   6.570  14.147   9.048  0.0643 -0.1485  0.0511
  230YOPE   C4A 2890   7.032  14.018   8.995 -0.3009  0.0732  0.2221
  230YOPE   C1B 2891   6.731  14.935   9.858 -0.1845  0.0980  0.1153
  230YOPE   C2B 2892   6.841  15.055   9.538 -0.0572 -0.1703 -0.1166
  230YOPE   D3B 2893   6.924  15.163   9.153 -0.2388 -0.0139 -0.0012
  230YOPE   C4B 2894   7.147  14.999   8.756 -0.1378  0.0584  0.3886
  231YOPE   NH3 2895  17.974   8.052  10.417 -0.1202  0.1984 -0.0449
  231YOPE   PO4 2896  17.891   7.697  10.380 -0.1087 -0.1423  0.2820
  231YOPE   GL1 2897  17.816   7.735   9.993  0.0230 -0.0137 -0.0211
  231YOPE   GL2 2898  18.040   7.627   9.695 -0.1423  0.0428  0.1425
  231YOPE   C1A 2899  17.635   7.867   9.571  0.1138  0.2137  0.0184
  231YOPE   D2A 2900  17.704   7.958   9.172  0.0576 -0.1594  0.0748
  231YOPE   C3A 2901  17.420   8.335   9.028 -0.0832 -0.0710  0.1173
  231YOPE   C4A 2902  17.110   8.348   8.784 -0.2613 -0.1933 -0.0075
  231YOPE   C1B 2903  18.119   7.788   9.233 -0.2440  0.1277 -0.2240
  231YOPE   C2B 2904  18.119   7.790   8.808  0.0385 -0.2054  0.2358
  231YOPE   D3B 2905  17.734   7.811   8.643 -0.0154  0.1016 -0.0232
  231YOPE   C4B 2906  17.460   8.037   8.496 -0.0380  0.2386  0.0129
  232YOPE   NH3 2907  12.569  13.489  11.108  0.3132 -0.0318 -0.2191
  232YOPE   PO4 2908  12.406  13.793  10.910 -0.1325 -0.0348 -0.1344
  232YOPE   GL1 2909  12.363  14.167  10.595  0.4031  0.1538  0.1276
  232YOPE   GL2 2910  12.112  14.178  10.471  0.0480  0.0387  0.0043
  232YOPE   C1A 2911  12.602  14.454  10.257  0.0512 -0.3382 -0.2139
  232YOPE   D2A 2912  12.727  14.558   9.831  0.1629 -0.1604 -0.4470
  232YOPE   C3A 2913  12.463  14.382   9.506 -0.4340 -0.2313  0.0028
  232YOPE   C4A 2914  12.317  14.290   9.136 -0.0052 -0.0596  0.3002
  232YOPE   C1B 2915  12.208  14.043   9.956 -0.0096  0.0047 -0.1528
  232YOPE   C2B 2916  12.158  13.965   9.542 -0.2119 -0.1897  0.4102
  232YOPE   D3B 2917  12.171  13.780   9.149 -0.0958  0.0399 -0.0100
  232YOPE   C4B 2918  12.303  13.943   8.784 -0.0693 -0.0926  0.2372
  233YOPE   NH3 2919  15.194  15.720  10.846  0.0171  0.0355 -0.1292
  233YOPE   PO4 2920  15.618  15.459  10.696 -0.1562 -0.1515  0.0472
  233YOPE   GL1 2921  15.562  15.172  10.443 -0.0074 -0.1459  0.0444
  233YOPE   GL2 2922  15.325  15.023  10.585 -0.1248 -0.2429 -0.0017
  233YOPE   C1A 2923  15.599  15.084   9.979  0.1101  0.3266  0.1194
  233YOPE   D2A 2924  15.438  15.025   9.583  0.0383 -0.3819  0.3803
  233YOPE   C3A 2925  15.653  15.151   9.127  0.2712  0.1372  0.1052
  233YOPE   C4A 2926  15.746  15.278   8.711 -0.0135 -0.0244  0.2204
  233YOPE   C1B 2927  15.170  15.017  10.207 -0.0119 -0.2219 -0.1975
  233YOPE   C2B 2928  14.978  14.896   9.871  0.1155 -0.0625 -0.0505
  233YOPE   D3B 2929  14.879  14.975   9.513  0.1819 -0.2748 -0.3648
  233YOPE   C4B 2930  14.714  15.085   9.085 -0.1942  0.2047  0.0919
  234YOPE   NH3 2931  10.082   6.701  10.695  0.0800  0.1857  0.2785
  234YOPE   PO4 2932   9.817   6.772  10.446  0.0540  0.0044 -0.5077
  234YOPE   GL1 2933   9.895   6.833   9.978  0.0394  0.2816  0.2042
  234YOPE   GL2 2934   9.723   6.551   9.883 -0.0363  0.1535  0.0996
  234YOPE   C1A 2935  10.212   6.802   9.609  0.0285 -0.0702 -0.1277
  234YOPE   D2A 2936  10.039   6.843   9.197 -0.1689 -0.3067 -0.3279
  234YOPE   C3A 2937   9.846   7.039   8.786 -0.0164  0.3834  0.2185
  234YOPE   C4A 2938   9.623   7.336   8.645  0.1575 -0.0493  0.2343
  234YOPE   C1B 2939  10.087   6.332   9.659  0.3667 -0.1106  0.2205
  234YOPE   C2B 2940  10.042   6.322   9.208  0.1032  0.1166 -0.0293
  234YOPE   D3B 2941   9.757   6.527   8.934 -0.0176 -0.1452  0.2711
  234YOPE   C4B 2942   9.369   6.593   8.555 -0.5666 -0.0819 -0.0499
  235YOPE   NH3 2943   0.803   6.698  10.396  0.2791  0.1177 -0.0083
  235YOPE   PO4 2944   1.125   7.010  10.402  0.0139  0.3489  0.2500
  235YOPE   GL1 2945   1.147   7.008  10.025  0.0843 -0.2121  0.0341
  235YOPE   GL2 2946   1.015   7.280   9.873  0.1127 -0.2262 -0.1441
  235YOPE   C1A 2947   1.114   6.708   9.736  0.1137 -0.2798 -0.0134
  235YOPE   D2A 2948   1.235   6.590   9.339  0.0875 -0.2283  0.0978
  235YOPE   C3A 2949   1.369   6.298   9.234 -0.4522  0.0850 -0.3032
  235YOPE   C4A 2950   1.361   5.994   8.869  0.0782  0.0908 -0.4882
  235YOPE   C1B 2951   1.012   7.364   9.509 -0.2693  0.0899 -0.0384
  235YOPE   C2B 2952   1.119   7.629   9.171 -0.1109 -0.0805 -0.0591
  235YOPE   D3B 2953   1.150   7.790   8.850 -0.2041  0.0197 -0.0060
  235YOPE   C4B 2954   0.986   7.912   8.453 -0.2052 -0.4154 -0.1829
  236YOPE   NH3 2955  13.397   1.934  10.102 -0.1012 -0.2363 -0.0033
  236YOPE   PO4 2956  13.009   1.673  10.239  0.3040  0.1159  0.6006
  236YOPE   GL1 2957  13.079   1.638   9.865  0.1487  0.0933  0.0221
  236YOPE   GL2 2958  13.234   1.893   9.629 -0.2310 -0.2382  0.1976
  236YOPE   C1A 2959  12.759   1.616   9.429 -0.0966 -0.2010  0.0583
  236YOPE   D2A 2960  12.399   1.747   9.359  0.4579 -0.0283  0.0747
  236YOPE   C3A 2961  12.295   1.776   9.761 -0.1625 -0.1184 -0.1933
  236YOPE   C4A 2962  12.064   1.544  10.059  0.2719 -0.1928  0.1033
  236YOPE   C1B 2963  13.207   1.710   9.081  0.1559  0.1233 -0.1293
  236YOPE   C2B 2964  13.094   1.475   8.759 -0.0898  0.1346  0.2058
  236YOPE   D3B 2965  12.780   1.321   8.420  0.1823 -0.3408  0.2297
  236YOPE   C4B 2966  12.618   0.958   8.512 -0.1037 -0.2373  0.1911
  237YOPE   NH3 2967   2.488  12.916   9.871 -0.0395 -0.2894 -0.2174
  237YOPE   PO4 2968   2.530  12.558   9.941  0.1647 -0.0975 -0.0518
  237YOPE   GL1 2969   2.761  12.498   9.534 -0.0570 -0.0931 -0.1590
  237YOPE   GL2 2970   2.870  12.826   9.474 -0.1400 -0.0192  0.0956
  237YOPE   C1A 2971   2.723  12.215   9.206 -0.3433 -0.1357 -0.0686
  237YOPE   D2A 2972   2.789  12.017   8.824  0.0176 -0.2390  0.0117
  237YOPE   C3A 2973   2.878  12.186   8.376  0.0401 -0.1713 -0.1329
  237YOPE   C4A 2974   2.993  12.396   7.991 -0.0015 -0.0657  0.3337
  237YOPE   C1B 2975   2.703  12.708   9.084 -0.1648  0.0004  0.0809
  237YOPE   C2B 2976   2.736  12.592   8.664 -0.1829 -0.0369  0.0432
  237YOPE   D3B 2977   2.639  12.676   8.247 -0.2164 -0.0306 -0.2446
  237YOPE   C4B 2978   2.373  12.996   8.169 -0.0228  0.3255  0.2042
  238YOPE   NH3 2979  13.575   5.789  10.663  0.1058  0.2816  0.2536
  238YOPE   PO4 2980  13.376   6.109  10.354  0.2080  0.0032  0.0129
  238YOPE   GL1 2981  13.349   6.357   9.943 -0.2829 -0.2393  0.0459
  238YOPE   GL2 2982  13.647   6.518   9.836  0.2087 -0.2705 -0.1781
  238YOPE   C1A 2983  13.194   6.460   9.476 -0.1010  0.2557  0.1284
  238YOPE   D2A 2984  13.195   6.590   9.026  0.2439 -0.0724  0.1126
  238YOPE   C3A 2985  13.432   6.430   8.663  0.1716  0.0511 -0.0328
  238YOPE   C4A 2986  13.768   6.314   8.494 -0.0337  0.0019 -0.1145
  238YOPE   C1B 2987  13.635   6.256   9.474 -0.0419 -0.0567 -0.1957
  238YOPE   C2B 2988  13.815   6.158   9.061 -0.1643  0.0002 -0.1610
  238YOPE   D3B 2989  14.147   6.369   8.874  0.0820 -0.2671 -0.2631
  238YOPE   C4B 2990  14.316   6.439   8.499 -0.2273  0.1582  0.2624
  239YOPE   NH3 2991  15.068   8.887  10.967 -0.2917 -0.2604  0.0007
  239YOPE   PO4 2992  15.481   8.932  10.852  0.1418 -0.0110  0.3229
  239YOPE   GL1 2993  15.383   8.873  10.446 -0.0721  0.1404  0.2020
  239YOPE   GL2 2994  15.185   8.580  10.467 -0.0881 -0.2220 -0.1071
  239YOPE   C1A 2995  15.388   8.862   9.975  0.1954 -0.0028  0.0094
  239YOPE   D2A 2996  15.419   8.747   9.587 -0.0550  0.1801 -0.0135
  239YOPE   C3A 2997  15.176   8.774   9.308  0.2180  0.0537  0.0824
  239YOPE   C4A 2998  15.191   8.811   8.829  0.0649  0.0216 -0.0800
  239YOPE   C1B 2999  15.039   8.327  10.246 -0.0551 -0.1453 -0.2990
  239YOPE   C2B 3000  15.112   8.401   9.874  0.0878 -0.1856  0.3264
  239YOPE   D3B 3001  15.063   8.238   9.491 -0.0007 -0.1852  0.3262
  239YOPE   C4B 3002  15.005   8.239   9.096 -0.0899 -0.0910  0.0170
  240YOPE   NH3 3003   1.115  17.006   9.991  0.1594 -0.2381 -0.1523
  240YOPE   PO4 3004   1.244  16.647   9.735 -0.3138  0.2236  0.1775
  240YOPE   GL1 3005   0.917  16.504   9.470 -0.1501  0.3469  0.0645
  240YOPE   GL2 3006   0.676  16.208   9.522 -0.1232  0.1854  0.2852
  240YOPE   C1A 3007   0.958  16.440   9.051 -0.3872 -0.1851  0.2783
  240YOPE   D2A 3008   1.262  16.353   8.856 -0.0354 -0.0865  0.0999
  240YOPE   C3A 3009   1.159  16.312   8.373 -0.2562  0.0819  0.0117
  240YOPE   C4A 3010   1.009  16.445   8.035 -0.1722  0.0289  0.3157
  240YOPE   C1B 3011   0.547  16.208   9.079 -0.0860  0.0821 -0.2073
  240YOPE   C2B 3012   0.623  16.339   8.685  0.1648 -0.2023  0.0531
  240YOPE   D3B 3013   0.571  16.307   8.246 -0.1317 -0.1005 -0.0505
  240YOPE   C4B 3014   0.251  16.244   7.966 -0.0084 -0.2299 -0.0111
  241YOPE   NH3 3015   6.097   4.668  10.117  0.2447  0.0044 -0.1321
  241YOPE   PO4 3016   5.732   4.946  10.057  0.1264 -0.2814  0.1183
  241YOPE   GL1 3017   5.718   5.097   9.623 -0.0317  0.2480 -0.0718
  241YOPE   GL2 3018   5.453   4.996   9.486  0.0725 -0.0666 -0.0559
  241YOPE   C1A 3019   5.580   5.178   9.090 -0.4257  0.0626  0.0369
  241YOPE   D2A 3020   5.186   5.341   8.880 -0.3680 -0.2534 -0.1352
  241YOPE   C3A 3021   5.142   5.799   8.806  0.0560  0.0035  0.2033
  241YOPE   C4A 3022   5.331   6.187   8.404 -0.0967  0.0248 -0.0215
  241YOPE   C1B 3023   5.091   4.937   9.249 -0.1425 -0.0502  0.0634
  241YOPE   C2B 3024   4.809   5.007   8.913  0.0339 -0.1627  0.1729
  241YOPE   D3B 3025   4.382   4.831   8.743 -0.0438  0.2024 -0.3745
  241YOPE   C4B 3026   4.009   4.659   8.578 -0.0015 -0.1714 -0.2943
  242YOPE   NH3 3027  17.759   4.230  10.403  0.2627 -0.0282  0.0193
  242YOPE   PO4 3028  17.350   4.453  10.193  0.1567 -0.1452  0.0922
  242YOPE   GL1 3029  17.522   4.645   9.929 -0.3496 -0.1335 -0.0168
  242YOPE   GL2 3030  17.515   5.014   9.961 -0.4422  0.0681 -0.1774
  242YOPE   C1A 3031  17.627   4.782   9.463  0.1383 -0.0919 -0.0008
  242YOPE   D2A 3032  17.412   5.001   9.202 -0.1313  0.1024  0.0647
  242YOPE   C3A 3033  17.481   5.063   8.805 -0.1991 -0.3948 -0.1761
  242YOPE   C4A 3034  17.351   5.126   8.388  0.0268  0.2458 -0.0658
  242YOPE   C1B 3035  17.258   5.051   9.651  0.4150  0.1630  0.1648
  242YOPE   C2B 3036  16.895   4.985   9.399 -0.1260  0.0116 -0.0259
  242YOPE   D3B 3037  16.668   4.983   9.005 -0.3502 -0.0745  0.2036
  242YOPE   C4B 3038  16.262   4.945   8.963 -0.0692 -0.0236 -0.0095
  243YOPE   NH3 3039   7.314   4.007   9.763  0.1456  0.0149 -0.1813
  243YOPE   PO4 3040   7.081   4.377   9.879 -0.0481 -0.1662 -0.1936
  243YOPE   GL1 3041   7.232   4.401   9.457 -0.1170 -0.0095 -0.0976
  243YOPE   GL2 3042   7.404   4.600   9.544 -0.1848  0.1459 -0.1970
  243YOPE   C1A 3043   7.369   4.348   9.036 -0.1619 -0.1072 -0.1987
  243YOPE   D2A 3044   7.354   4.263   8.612 -0.0200  0.1096  0.0751
  243YOPE   C3A 3045   7.256   4.516   8.290 -0.0805  0.3892 -0.2879
  243YOPE   C4A 3046   7.468   4.624   7.883 -0.1460  0.0134  0.0886
  243YOPE   C1B 3047   7.176   4.823   9.224 -0.3043  0.3022  0.3668
  243YOPE   C2B 3048   7.260   4.919   8.755  0.0003 -0.0955  0.3827
  243YOPE   D3B 3049   7.120   4.969   8.346  0.1528 -0.1318 -0.1561
  243YOPE   C4B 3050   6.998   4.866   7.992 -0.2451  0.1159 -0.3456
  244YOPE   NH3 3051  14.244  16.616  10.660 -0.2975 -0.0998 -0.0369
  244YOPE   PO4 3052  14.092  16.323  10.871  0.3556  0.2352 -0.0458
  244YOPE   GL1 3053  13.987  16.063  10.497 -0.0850  0.0940 -0.1112
  244YOPE   GL2 3054  14.167  16.312  10.264  0.2448  0.1235  0.3141
  244YOPE   C1A 3055  13.620  15.788  10.337 -0.2599 -0.1821 -0.0378
  244YOPE   D2A 3056  13.394  15.856   9.992  0.0934 -0.2159 -0.0167
  244YOPE   C3A 3057  13.377  15.600   9.620 -0.2477 -0.2303  0.1378
  244YOPE   C4A 3058  13.400  15.509   9.220 -0.1903  0.0152  0.1995
  244YOPE   C1B 3059  14.028  16.030  10.030  0.2389  0.1261 -0.0012
  244YOPE   C2B 3060  13.866  15.681   9.905 -0.1169 -0.0446  0.1478
  244YOPE   D3B 3061  13.867  15.422   9.512  0.1870  0.2075  0.0706
  244YOPE   C4B 3062  13.840  15.582   9.098 -0.0688  0.2556  0.0581
  245YOPE   NH3 3063   1.752  16.226  10.140  0.1019  0.1980 -0.0203
  245YOPE   PO4 3064   1.648  15.905   9.841 -0.0023  0.1154 -0.2090
  245YOPE   GL1 3065   1.629  16.180   9.573  0.0236  0.2573  0.1637
  245YOPE   GL2 3066   1.350  16.234   9.406 -0.0844  0.0951  0.0972
  245YOPE   C1A 3067   1.738  16.226   9.117 -0.2943  0.0877  0.0247
  245YOPE   D2A 3068   1.747  16.443   8.746  0.2515  0.2078  0.0500
  245YOPE   C3A 3069   1.674  16.243   8.307 -0.2887  0.1872 -0.0375
  245YOPE   C4A 3070   1.427  16.202   7.930  0.0403  0.1344  0.2014
  245YOPE   C1B 3071   1.053  15.959   9.157  0.0664 -0.0627  0.3111
  245YOPE   C2B 3072   0.877  15.934   8.790  0.2372  0.1274 -0.0823
  245YOPE   D3B 3073   0.709  15.847   8.418 -0.1122 -0.0167 -0.1303
  245YOPE   C4B 3074   0.458  15.810   8.144  0.2776 -0.2737  0.1285
  246YOPE   NH3 3075  13.970   6.828  10.717 -0.3675  0.1896 -0.2127
  246YOPE   PO4 3076  14.258   6.500  10.543  0.0971  0.2175 -0.2177
  246YOPE   GL1 3077  14.087   6.334  10.107 -0.1559  0.0699 -0.3534
  246YOPE   GL2 3078  13.836   6.100  10.005 -0.0177  0.4222 -0.0432
  246YOPE   C1A 3079  14.080   6.342   9.691 -0.0367  0.1741 -0.0988
  246YOPE   D2A 3080  13.990   6.626   9.411 -0.1815 -0.2970 -0.0718
  246YOPE   C3A 3081  13.727   6.649   9.018  0.2300  0.1284 -0.2495
  246YOPE   C4A 3082  13.517   6.934   8.619 -0.1578 -0.1414 -0.0006
  246YOPE   C1B 3083  14.063   5.888   9.624 -0.1960  0.1812 -0.1302
  246YOPE   C2B 3084  14.177   5.855   9.095 -0.2172  0.1035 -0.0347
  246YOPE   D3B 3085  14.048   5.902   8.709 -0.0550  0.2434 -0.3381
  246YOPE   C4B 3086  14.177   5.756   8.323  0.1477 -0.2732  0.0346
  247YOPE   NH3 3087  15.492   5.133  10.136  0.1294 -0.2815  0.0412
  247YOPE   PO4 3088  15.726   5.494  10.320  0.4621 -0.0600 -0.0458
  247YOPE   GL1 3089  15.769   5.463   9.876  0.2200  0.3187 -0.1304
  247YOPE   GL2 3090  15.570   5.337   9.641 -0.4183 -0.4083  0.0294
  247YOPE   C1A 3091  16.078   5.404   9.603 -0.0248  0.1745  0.1096
  247YOPE   D2A 3092  16.355   5.746   9.539  0.1098  0.0327  0.0698
  247YOPE   C3A 3093  16.472   5.939   9.762 -0.1007 -0.0365  0.0055
  247YOPE   C4A 3094  16.816   6.138   9.845  0.0897  0.0801 -0.4135
  247YOPE   C1B 3095  15.421   5.624   9.278  0.0511  0.2293  0.3549
  247YOPE   C2B 3096  15.282   5.647   8.836 -0.0385 -0.1566  0.0215
  247YOPE   D3B 3097  15.004   5.761   8.561 -0.0739  0.3967  0.1026
  247YOPE   C4B 3098  14.693   5.557   8.322 -0.2741 -0.1481  0.1158
  248YOPE   NH3 3099   2.663  14.583   9.815  0.1202 -0.0970 -0.1506
  248YOPE   PO4 3100   2.908  14.214   9.594 -0.0796 -0.3644 -0.0523
  248YOPE   GL1 3101   2.932  14.552   9.296 -0.1949 -0.1196  0.0761
  248YOPE   GL2 3102   2.616  14.580   9.116 -0.1434 -0.1788  0.5035
  248YOPE   C1A 3103   3.034  14.581   8.909  0.0336 -0.1829  0.2138
  248YOPE   D2A 3104   3.105  14.907   8.483 -0.0356  0.0692 -0.0365
  248YOPE   C3A 3105   3.261  14.792   8.112  0.3246 -0.2192  0.2848
  248YOPE   C4A 3106   3.538  14.832   7.716 -0.0185  0.0326 -0.0628
  248YOPE   C1B 3107   2.618  14.489   8.653  0.3922 -0.2574  0.4345
  248YOPE   C2B 3108   2.730  14.623   8.265 -0.0170 -0.0215  0.1393
  248YOPE   D3B 3109   2.783  14.775   7.895 -0.2467 -0.3955 -0.1400
  248YOPE   C4B 3110   2.687  14.463   7.488  0.1226  0.0412  0.1624
  249YOPE   NH3 3111  17.884  14.122  10.281  0.1632  0.2848 -0.1202
  249YOPE   PO4 3112  17.526  14.211  10.606 -0.0958  0.0803  0.1225
  249YOPE   GL1 3113  17.318  14.363  10.198  0.1036  0.1466 -0.1839
  249YOPE   GL2 3114  17.510  14.541   9.992 -0.1804 -0.0293 -0.3260
  249YOPE   C1A 3115  17.018  14.565   9.845 -0.0323  0.1258 -0.1622
  249YOPE   D2A 3116  17.124  14.857   9.567 -0.1095  0.3840 -0.0587
  249YOPE   C3A 3117  17.026  14.748   9.208 -0.0069 -0.1221  0.1148
  249YOPE   C4A 3118  17.067  14.730   8.753 -0.3004 -0.2982 -0.1123
  249YOPE   C1B 3119  17.530  14.481   9.531  0.1096 -0.0001  0.0478
  249YOPE   C2B 3120  17.479  14.494   9.041  0.0589  0.4736  0.0713
  249YOPE   D3B 3121  17.583  14.616   8.607  0.0717  0.0999 -0.0719
  249YOPE   C4B 3122  17.339  14.494   8.324  0.0417  0.1646 -0.0445
  250YOPE   NH3 3123   4.996   8.504  10.689  0.0583 -0.1663 -0.0911
  250YOPE   PO4 3124   5.085   8.901  10.646  0.0309 -0.2224  0.0009
  250YOPE   GL1 3125   5.110   8.910  10.296  0.2533 -0.0794 -0.1005
  250YOPE   GL2 3126   5.067   8.571  10.203 -0.0068 -0.1452  0.0206
  250YOPE   C1A 3127   5.025   9.045   9.830  0.1268  0.3474 -0.3144
  250YOPE   D2A 3128   4.880   9.297   9.587  0.0141 -0.1553 -0.0590
  250YOPE   C3A 3129   5.116   9.729   9.388  0.0746  0.0060 -0.0504
  250YOPE   C4A 3130   5.134   9.889   8.965  0.2419 -0.2841  0.0139
  250YOPE   C1B 3131   4.896   8.524   9.885  0.1661 -0.1520  0.1108
  250YOPE   C2B 3132   4.652   8.497   9.570 -0.1291  0.0709  0.1937
  250YOPE   D3B 3133   4.579   8.507   9.118 -0.0179  0.2829 -0.0924
  250YOPE   C4B 3134   4.921   8.638   8.882  0.0978 -0.0562  0.1485
  251YOPE   NH3 3135   5.790   2.278   9.827 -0.1025 -0.1203 -0.0614
  251YOPE   PO4 3136   5.898   2.544   9.472 -0.0997 -0.1213 -0.1103
  251YOPE   GL1 3137   5.833   2.578   9.032 -0.1303  0.3526 -0.0356
  251YOPE   GL2 3138   5.642   2.338   9.019 -0.1807 -0.0539 -0.0528
  251YOPE   C1A 3139   5.822   2.699   8.577 -0.0144 -0.1099  0.0460
  251YOPE   D2A 3140   5.634   2.884   8.294  0.1970 -0.2442  0.0772
  251YOPE   C3A 3141   5.188   3.018   8.453  0.0403 -0.0647 -0.0953
  251YOPE   C4A 3142   4.889   3.045   8.759 -0.2439 -0.2506  0.1056
  251YOPE   C1B 3143   5.803   2.077   8.663  0.0779 -0.1336 -0.0300
  251YOPE   C2B 3144   5.665   1.844   8.236  0.0722  0.1652 -0.1405
  251YOPE   D3B 3145   5.481   1.574   7.962  0.4426 -0.2181 -0.2689
  251YOPE   C4B 3146   5.121   1.406   7.873  0.1845 -0.1147 -0.0690
  252YOPE   NH3 3147  10.156  12.623  11.103  0.2115  0.0027  0.0851
  252YOPE   PO4 3148   9.768  12.899  11.007  0.2509  0.0204  0.0855
  252YOPE   GL1 3149   9.902  13.079  10.695 -0.2876  0.2699  0.0880
  252YOPE   GL2 3150   9.761  13.145  10.552  0.0854 -0.1004 -0.1270
  252YOPE   C1A 3151  10.296  13.166  10.580  0.2736 -0.2170 -0.3583
  252YOPE   D2A 3152  10.543  13.328  10.213 -0.1018 -0.1846 -0.0971
  252YOPE   C3A 3153  10.326  13.368   9.879  0.1388 -0.0164  0.0217
  252YOPE   C4A 3154  10.340  13.233   9.485  0.2140 -0.4406 -0.1339
  252YOPE   C1B 3155   9.951  13.038  10.235 -0.0934 -0.0441 -0.2951
  252YOPE   C2B 3156   9.942  12.909   9.781  0.2136 -0.1440 -0.1682
  252YOPE   D3B 3157  10.011  12.864   9.365 -0.0492  0.2463  0.0277
  252YOPE   C4B 3158  10.095  12.853   8.886  0.1507 -0.0965 -0.0137
  253YOPE   NH3 3159   1.874   9.018  10.302  0.3318 -0.0651  0.0037
  253YOPE   PO4 3160   2.315   9.000  10.426 -0.5617  0.0915  0.0658
  253YOPE   GL1 3161   2.369   8.733  10.103  0.0115 -0.4504 -0.1318
  253YOPE   GL2 3162   2.673   8.888   9.981  0.1613  0.0185 -0.1164
  253YOPE   C1A 3163   2.319   8.662   9.679 -0.0820  0.2108 -0.1026
  253YOPE   D2A 3164   2.129   8.682   9.287 -0.3834 -0.1198 -0.3129
  253YOPE   C3A 3165   2.254   8.605   8.890  0.1206  0.2018 -0.0944
  253YOPE   C4A 3166   2.437   8.392   8.490 -0.0403  0.0176 -0.1578
  253YOPE   C1B 3167   2.742   8.801   9.477  0.1060  0.1317 -0.1291
  253YOPE   C2B 3168   2.583   8.884   9.109 -0.0226 -0.1430 -0.1288
  253YOPE   D3B 3169   2.615   8.914   8.692 -0.0340 -0.0541  0.1531
  253YOPE   C4B 3170   2.518   8.828   8.178  0.0059 -0.0259  0.1591
  254YOPE   NH3 3171   9.766  10.065  10.743  0.0216 -0.0516  0.1459
  254YOPE   PO4 3172   9.489   9.688  10.798 -0.2780  0.0112  0.2428
  254YOPE   GL1 3173   9.385   9.900  10.351  0.1393  0.2464  0.0150
  254YOPE   GL2 3174   9.592  10.089  10.223 -0.0192 -0.0092  0.0392
  254YOPE   C1A 3175   9.080  10.010  10.001 -0.1252 -0.1020 -0.3236
  254YOPE   D2A 3176   9.041   9.996   9.584 -0.2783 -0.0558  0.0933
  254YOPE   C3A 3177   9.305   9.890   9.337  0.0791 -0.1807  0.0908
  254YOPE   C4A 3178   9.543   9.879   9.020 -0.2828 -0.3154  0.2395
  254YOPE   C1B 3179   9.560   9.979   9.821 -0.1579  0.0597  0.1349
  254YOPE   C2B 3180   9.707  10.185   9.389 -0.1616 -0.1428  0.0774
  254YOPE   D3B 3181   9.597  10.404   8.964 -0.2255 -0.3334  0.1031
  254YOPE   C4B 3182   9.350  10.653   8.866  0.0422  0.2737 -0.0427
  255YOPE   NH3 3183  17.735   7.205  10.320  0.1127  0.2003 -0.0153
  255YOPE   PO4 3184  17.849   6.858  10.053  0.0122 -0.0159 -0.4130
  255YOPE   GL1 3185  17.947   6.806   9.668 -0.1779  0.1232  0.2530
  255YOPE   GL2 3186  18.158   7.055   9.568  0.1690  0.0810  0.1124
  255YOPE   C1A 3187  17.918   6.782   9.179  0.1495 -0.0256  0.2130
  255YOPE   D2A 3188  17.948   6.871   8.813 -0.0573  0.1852 -0.4439
  255YOPE   C3A 3189  18.196   6.807   8.512  0.1569  0.1590 -0.0083
  255YOPE   C4A 3190  18.361   6.611   8.138  0.2091  0.0084  0.2523
  255YOPE   C1B 3191  18.207   7.182   9.149  0.1255  0.2187 -0.1043
  255YOPE   C2B 3192  18.236   7.271   8.740  0.3201 -0.1653 -0.0941
  255YOPE   D3B 3193  18.006   7.476   8.332  0.1911 -0.3041 -0.0650
  255YOPE   C4B 3194  17.671   7.743   8.066 -0.3038  0.1477  0.0005
  256YOPE   NH3 3195   2.618  13.826   9.726  0.0140  0.1363  0.4254
  256YOPE   PO4 3196   2.717  13.361   9.845 -0.1750  0.3553  0.2230
  256YOPE   GL1 3197   2.675  13.390   9.435 -0.1224  0.3118  0.1151
  256YOPE   GL2 3198   2.585  13.636   9.274  0.1290 -0.2950 -0.1222
  256YOPE   C1A 3199   2.674  13.214   9.053 -0.0690  0.0667 -0.0346
  256YOPE   D2A 3200   2.586  13.069   8.675  0.1099 -0.0181 -0.3308
  256YOPE   C3A 3201   2.902  13.143   8.366  0.0836 -0.0741  0.1661
  256YOPE   C4A 3202   3.111  12.936   8.056 -0.3702 -0.0338 -0.1699
  256YOPE   C1B 3203   2.540  13.660   8.916  0.3032 -0.3231  0.0676
  256YOPE   C2B 3204   2.685  13.532   8.592 -0.2799 -0.0449 -0.3642
  256YOPE   D3B 3205   2.886  13.594   8.164 -0.1924  0.1113 -0.0692
  256YOPE   C4B 3206   3.243  13.614   8.038  0.0323  0.1290 -0.2436
  257YOPE   NH3 3207   9.181   8.497  10.658  0.2348 -0.0452  0.0283
  257YOPE   PO4 3208   9.397   8.825  10.755  0.0476  0.1328  0.2140
  257YOPE   GL1 3209   9.072   8.925  10.443 -0.3301 -0.1601  0.4378
  257YOPE   GL2 3210   8.919   9.156  10.438 -0.2108  0.3347 -0.1534
  257YOPE   C1A 3211   8.928   8.912   9.990  0.2005  0.0197  0.0657
  257YOPE   D2A 3212   8.577   9.151   9.797 -0.0486  0.3725  0.0591
  257YOPE   C3A 3213   8.340   9.094   9.394 -0.0877  0.2528 -0.0180
  257YOPE   C4A 3214   8.394   8.748   9.261 -0.0433  0.0986 -0.2588
  257YOPE   C1B 3215   8.954   9.649  10.446 -0.1668 -0.1302 -0.0911
  257YOPE   C2B 3216   8.758  10.026  10.430 -0.1224  0.3030 -0.2038
  257YOPE   D3B 3217   8.758  10.324  10.103  0.0422 -0.1590 -0.0730
  257YOPE   C4B 3218   8.623  10.777  10.010 -0.2606 -0.1337 -0.1314
  258YOPE   NH3 3219   9.337  11.832  10.952 -0.1409 -0.2845 -0.0625
  258YOPE   PO4 3220   8.909  11.923  10.790 -0.0243 -0.0671  0.0898
  258YOPE   GL1 3221   9.099  11.959  10.416 -0.0325 -0.0357 -0.0183
  258YOPE   GL2 3222   8.898  12.104  10.272 -0.0093 -0.0942 -0.3248
  258YOPE   C1A 3223   9.423  12.146  10.184  0.0135  0.0224 -0.0674
  258YOPE   D2A 3224   9.571  12.279   9.748 -0.0921 -0.3522 -0.2573
  258YOPE   C3A 3225   9.443  12.206   9.358 -0.3341 -0.1471  0.1493
  258YOPE   C4A 3226   9.131  12.449   9.082 -0.1164  0.3612  0.1387
  258YOPE   C1B 3227   9.084  12.076   9.855  0.2752 -0.1594 -0.0352
  258YOPE   C2B 3228   8.841  11.985   9.537 -0.0119 -0.2978  0.2993
  258YOPE   D3B 3229   8.673  11.679   9.213 -0.2364  0.1123 -0.1297
  258YOPE   C4B 3230   8.542  11.720   8.768  0.2345 -0.1879  0.1487
  259YOPE   NH3 3231  16.144   9.532  10.543  0.1577 -0.0399  0.2075
  259YOPE   PO4 3232  15.875   9.771  10.681  0.0501  0.2857  0.0622
  259YOPE   GL1 3233  15.823   9.869  10.350 -0.0548 -0.2292 -0.1104
  259YOPE   GL2 3234  15.816   9.615  10.117  0.3594  0.0771  0.0956
  259YOPE   C1A 3235  15.848  10.118   9.984 -0.0965 -0.1243  0.0511
  259YOPE   D2A 3236  15.848  10.116   9.605  0.0115 -0.2093 -0.0222
  259YOPE   C3A 3237  15.594   9.932   9.232 -0.0281 -0.2007 -0.2138
  259YOPE   C4A 3238  15.497   9.628   8.941 -0.1600  0.0037 -0.5075
  259YOPE   C1B 3239  15.744   9.609   9.682 -0.2000  0.2687  0.1366
  259YOPE   C2B 3240  15.860   9.508   9.259  0.0859 -0.2383 -0.2919
  259YOPE   D3B 3241  15.989   9.388   8.965  0.1946  0.1330 -0.0397
  259YOPE   C4B 3242  16.007   9.084   8.696  0.3200 -0.1460  0.2900
  260YOPE   NH3 3243   7.910   2.567   9.674  0.1945  0.0698 -0.2482
  260YOPE   PO4 3244   7.570   2.220   9.643  0.0994  0.3657  0.3155
  260YOPE   GL1 3245   7.614   2.309   9.315  0.0137 -0.0432  0.4263
  260YOPE   GL2 3246   7.653   2.713   9.241  0.1385 -0.2963  0.0514
  260YOPE   C1A 3247   7.420   2.373   8.815  0.0400 -0.0150  0.0598
  260YOPE   D2A 3248   7.541   2.362   8.458 -0.0155  0.3289  0.1445
  260YOPE   C3A 3249   7.876   2.666   8.311 -0.1359  0.3160 -0.0724
  260YOPE   C4A 3250   8.240   2.869   8.249 -0.2237  0.1492 -0.1236
  260YOPE   C1B 3251   7.884   2.742   8.831  0.2900  0.0509  0.0595
  260YOPE   C2B 3252   8.259   2.583   8.629 -0.2262  0.0988  0.1352
  260YOPE   D3B 3253   8.452   2.397   8.262 -0.0549  0.0705 -0.1489
  260YOPE   C4B 3254   8.830   2.350   8.056 -0.1997  0.0297 -0.0512
  261YOPE   NH3 3255   7.474  15.082  10.739  0.2722  0.1063  0.2272
  261YOPE   PO4 3256   7.790  15.419  10.674  0.1045  0.1632  0.1501
  261YOPE   GL1 3257   7.951  15.434  10.308  0.3149 -0.3312  0.2770
  261YOPE   GL2 3258   8.296  15.254  10.275 -0.1497  0.0467 -0.0240
  261YOPE   C1A 3259   8.091  15.620   9.885  0.0156 -0.0883  0.1524
  261YOPE   D2A 3260   8.159  15.577   9.525 -0.0164  0.0095  0.1415
  261YOPE   C3A 3261   8.396  15.685   9.116 -0.2105 -0.0663 -0.2819
  261YOPE   C4A 3262   8.568  16.040   8.920  0.1611 -0.0488  0.2596
  261YOPE   C1B 3263   8.390  15.181   9.940  0.0379 -0.1406 -0.3148
  261YOPE   C2B 3264   8.293  14.745   9.660  0.0977  0.0349  0.2754
  261YOPE   D3B 3265   8.149  14.364   9.451  0.0235 -0.0211  0.0501
  261YOPE   C4B 3266   7.840  14.159   9.095 -0.0651  0.0944  0.1889
  262YOPE   NH3 3267   8.700  17.258  10.573 -0.0407  0.1089  0.0587
  262YOPE   PO4 3268   8.249  17.137  10.626 -0.1291 -0.0779  0.0208
  262YOPE   GL1 3269   8.253  16.957  10.279  0.2063  0.2695  0.0179
  262YOPE   GL2 3270   8.419  16.683  10.398 -0.0054  0.0663  0.1740
  262YOPE   C1A 3271   8.440  16.910   9.892 -0.1927 -0.0727  0.0692
  262YOPE   D2A 3272   8.279  16.794   9.479 -0.1861 -0.0009 -0.0611
  262YOPE   C3A 3273   8.584  16.953   9.176  0.2046 -0.2130  0.0666
  262YOPE   C4A 3274   8.941  17.012   8.804 -0.0258  0.0506 -0.1536
  262YOPE   C1B 3275   8.236  16.503   9.997  0.0719  0.0407 -0.1348
  262YOPE   C2B 3276   8.019  16.391   9.726  0.0185 -0.3152  0.4111
  262YOPE   D3B 3277   7.856  16.526   9.304  0.1151 -0.1972 -0.1961
  262YOPE   C4B 3278   7.871  16.393   8.988 -0.1753  0.0369  0.2457
  263YOPE   NH3 3279  17.258   2.424  10.318  0.2833 -0.1583  0.1694
  263YOPE   PO4 3280  17.352   2.854  10.136 -0.2638 -0.1063 -0.0898
  263YOPE   GL1 3281  17.105   3.186   9.934  0.1434  0.0906  0.1059
  263YOPE   GL2 3282  16.788   3.115   9.947  0.1047 -0.0614  0.0848
  263YOPE   C1A 3283  17.107   3.482   9.483 -0.1061 -0.1920  0.2445
  263YOPE   D2A 3284  17.132   3.563   8.991 -0.0347 -0.0085  0.0165
  263YOPE   C3A 3285  16.761   3.592   8.707  0.1438 -0.0892  0.0564
  263YOPE   C4A 3286  16.545   3.608   8.298  0.1132  0.2258  0.0514
  263YOPE   C1B 3287  16.658   3.324   9.588  0.1842  0.1451 -0.0911
  263YOPE   C2B 3288  16.229   3.076   9.266 -0.1243  0.0789 -0.0029
  263YOPE   D3B 3289  15.995   3.188   8.882  0.0066  0.1649  0.1068
  263YOPE   C4B 3290  16.009   2.975   8.478 -0.1170 -0.0313 -0.1307
  264YOPE   NH3 3291  14.948   7.151  10.649  0.3975  0.2656 -0.2191
  264YOPE   PO4 3292  15.203   6.777  10.515 -0.0676  0.0183  0.1186
  264YOPE   GL1 3293  15.081   6.482  10.269  0.1578 -0.0155 -0.0962
  264YOPE   GL2 3294  15.089   6.776  10.026  0.3611  0.1882  0.1411
  264YOPE   C1A 3295  15.054   6.325   9.823  0.0460  0.0024 -0.3402
  264YOPE   D2A 3296  14.971   6.340   9.351 -0.1598 -0.0680 -0.1197
  264YOPE   C3A 3297  15.117   6.129   8.978 -0.0246  0.0476 -0.1238
  264YOPE   C4A 3298  15.239   6.207   8.603  0.1047 -0.0736  0.0574
  264YOPE   C1B 3299  15.129   6.814   9.584  0.2021  0.1187 -0.1404
  264YOPE   C2B 3300  15.117   6.744   9.125  0.0301 -0.2964  0.1409
  264YOPE   D3B 3301  14.973   6.830   8.715  0.1890  0.0176  0.0942
  264YOPE   C4B 3302  14.816   6.600   8.363 -0.1901 -0.0878  0.0607
  265YOPE   NH3 3303   3.193  13.284  10.104 -0.1449  0.3476 -0.0417
  265YOPE   PO4 3304   3.598  13.448   9.946  0.0367  0.2223  0.3264
  265YOPE   GL1 3305   3.578  13.635   9.589 -0.2295 -0.0680  0.0412
  265YOPE   GL2 3306   3.793  13.864   9.514  0.0076 -0.1933  0.0159
  265YOPE   C1A 3307   3.627  13.493   9.177  0.1216  0.0782 -0.2555
  265YOPE   D2A 3308   3.699  13.372   8.766  0.0987  0.5712  0.1319
  265YOPE   C3A 3309   3.922  13.118   8.596  0.2570  0.0955  0.1224
  265YOPE   C4A 3310   4.134  12.969   8.354  0.1774  0.0387 -0.1737
  265YOPE   C1B 3311   3.886  14.013   9.139 -0.2611  0.4324  0.0319
  265YOPE   C2B 3312   3.888  13.787   8.792  0.0696  0.2435  0.0282
  265YOPE   D3B 3313   4.091  13.576   8.539  0.1017  0.0538 -0.3237
  265YOPE   C4B 3314   4.416  13.410   8.282  0.0777  0.1399 -0.0539
  266YOPE   NH3 3315   0.646  15.373  10.448 -0.0036 -0.2065  0.1537
  266YOPE   PO4 3316   0.417  15.638  10.091 -0.1146  0.2011  0.1387
  266YOPE   GL1 3317   0.123  15.547   9.763 -0.1714 -0.1395  0.0100
  266YOPE   GL2 3318  -0.002  15.209   9.704 -0.0109 -0.0365  0.2910
  266YOPE   C1A 3319   0.091  15.621   9.391  0.3525 -0.1167 -0.0173
  266YOPE   D2A 3320  -0.078  15.471   8.969  0.1427  0.1040  0.3240
  266YOPE   C3A 3321  -0.143  15.608   8.577  0.2588 -0.1242  0.0883
  266YOPE   C4A 3322  -0.156  15.619   8.129 -0.2445  0.1944 -0.2936
  266YOPE   C1B 3323   0.176  15.158   9.246  0.3709 -0.1114 -0.2223
  266YOPE   C2B 3324   0.186  15.034   8.908 -0.2442  0.0056  0.1614
  266YOPE   D3B 3325   0.148  14.791   8.589  0.2364  0.0809 -0.0637
  266YOPE   C4B 3326   0.170  14.758   8.265 -0.1844 -0.2592  0.0316
  267YOPE   NH3 3327   6.561  11.158  11.387 -0.4117  0.2193 -0.1430
  267YOPE   PO4 3328   6.341  11.088  10.999 -0.1564 -0.0018  0.2368
  267YOPE   GL1 3329   6.129  11.008  10.615 -0.0775 -0.1305 -0.1745
  267YOPE   GL2 3330   6.160  11.239  10.427 -0.1061  0.3342 -0.2732
  267YOPE   C1A 3331   6.167  10.783  10.174 -0.1054  0.1413 -0.0029
  267YOPE   D2A 3332   6.073  10.504   9.782 -0.4330 -0.1197  0.0094
  267YOPE   C3A 3333   6.471  10.646   9.425 -0.0510 -0.2593  0.0488
  267YOPE   C4A 3334   6.805  10.482   9.187 -0.2322  0.0472  0.1812
  267YOPE   C1B 3335   5.839  11.209  10.128 -0.1263 -0.2348  0.1219
  267YOPE   C2B 3336   5.674  11.474   9.889 -0.0349  0.2452 -0.0567
  267YOPE   D3B 3337   5.238  11.490   9.730  0.0068  0.0397  0.2276
  267YOPE   C4B 3338   4.830  11.230   9.909 -0.6352 -0.2048 -0.1671
  268POPC   NC3 3339  17.386  17.349   9.898  0.0741  0.0070 -0.1253
  268POPC   PO4 3340  17.261  17.751   9.985 -0.1567 -0.0235 -0.1942
  268POPC   GL1 3341  17.316  17.600   9.488 -0.2679 -0.0799  0.2847
  268POPC   GL2 3342  17.074  17.265   9.469  0.1041 -0.1919  0.2272
  268POPC   C1A 3343  17.290  17.505   9.110 -0.0014  0.0092  0.1212
  268POPC   D2A 3344  17.178  17.508   8.681 -0.1357 -0.1165 -0.1669
  268POPC   C3A 3345  16.833  17.541   8.447 -0.0453  0.0629  0.0945
  268POPC   C4A 3346  16.586  17.350   8.123  0.0611  0.0453 -0.0921
  268POPC   C1B 3347  16.927  17.192   8.957 -0.1223 -0.1899  0.3668
  268POPC   C2B 3348  16.834  17.062   8.596 -0.0000 -0.2403 -0.2183
  268POPC   C3B 3349  16.773  16.882   8.187  0.1653 -0.1300 -0.0749
  268POPC   C4B 3350  16.529  16.619   8.097  0.2254 -0.1241 -0.0572
  269POPC   NC3 3351  17.887  16.686  10.097  0.2944 -0.0658  0.3017
  269POPC   PO4 3352  18.337  16.509  10.064 -0.1593 -0.1292 -0.3495
  269POPC   GL1 3353  18.338  16.574   9.688  0.0248  0.0091  0.3077
  269POPC   GL2 3354  18.034  16.615   9.579  0.1346 -0.0456  0.1761
  269POPC   C1A 3355  18.477  16.623   9.346  0.2801  0.1532 -0.1616
  269POPC   D2A 3356  18.176  16.634   9.087  0.2234 -0.2034  0.0491
  269POPC   C3A 3357  18.172  16.402   8.747  0.1184  0.2706 -0.2798
  269POPC   C4A 3358  18.267  15.966   8.568  0.0043 -0.0826  0.2176
  269POPC   C1B 3359  18.021  16.974   9.386 -0.3256  0.1360 -0.0025
  269POPC   C2B 3360  17.997  17.097   8.885  0.1304 -0.0865 -0.1571
  269POPC   C3B 3361  18.213  17.299   8.487  0.4418 -0.0863  0.1259
  269POPC   C4B 3362  18.468  17.131   8.156  0.0520  0.1106  0.0473
  270POPC   NC3 3363  10.903   6.046  10.460 -0.1133  0.0274 -0.0284
  270POPC   PO4 3364  11.319   5.827  10.301 -0.1773 -0.3313 -0.1223
  270POPC   GL1 3365  11.373   5.566   9.899 -0.1541 -0.1538  0.4109
  270POPC   GL2 3366  11.452   5.275   9.996 -0.0098  0.0508 -0.1372
  270POPC   C1A 3367  11.347   5.579   9.432  0.2936  0.2399  0.1279
  270POPC   D2A 3368  11.358   5.563   8.977 -0.1612  0.0915  0.1858
  270POPC   C3A 3369  11.116   5.301   8.716 -0.1972 -0.2227  0.0818
  270POPC   C4A 3370  10.906   5.161   8.429 -0.0492  0.1249 -0.1338
  270POPC   C1B 3371  11.561   5.120   9.573 -0.3186 -0.0184 -0.1279
  270POPC   C2B 3372  11.693   5.087   9.157  0.3222 -0.0818  0.1218
  270POPC   C3B 3373  11.607   5.184   8.766 -0.3385  0.1140  0.0750
  270POPC   C4B 3374  11.381   5.015   8.400  0.2827  0.0588  0.0042
  271POPC   NC3 3375   8.948  17.688  10.908 -0.0275 -0.1200  0.2705
  271POPC   PO4 3376   8.601  17.980  10.721 -0.0100 -0.1504 -0.2052
  271POPC   GL1 3377   8.568  17.709  10.321  0.0999 -0.1833  0.1590
  271POPC   GL2 3378   8.355  17.461  10.229  0.3313 -0.0516 -0.0444
  271POPC   C1A 3379   8.853  17.596   9.976 -0.0761 -0.0660  0.0316
  271POPC   D2A 3380   8.714  17.272   9.745  0.0270  0.1228  0.0508
  271POPC   C3A 3381   8.941  16.900   9.605  0.0580  0.1048  0.0800
  271POPC   C4A 3382   9.084  16.770   9.209 -0.0132 -0.0705  0.0829
  271POPC   C1B 3383   8.199  17.281   9.854  0.2336  0.0934 -0.3390
  271POPC   C2B 3384   8.267  17.264   9.395  0.1160 -0.0494 -0.0149
  271POPC   C3B 3385   8.035  17.008   9.106 -0.2117  0.1691  0.2071
  271POPC   C4B 3386   7.930  16.768   8.633 -0.2993 -0.0173  0.0098
  272POPC   NC3 3387   3.343   3.271  10.697  0.2705  0.1225  0.1527
  272POPC   PO4 3388   3.074   3.532  10.429  0.2121 -0.2170  0.2207
  272POPC   GL1 3389   3.116   3.415   9.972 -0.0046 -0.3814 -0.2380
  272POPC   GL2 3390   3.346   3.517   9.834 -0.1924  0.1919 -0.0908
  272POPC   C1A 3391   2.777   3.317   9.650  0.3546  0.3007 -0.2379
  272POPC   D2A 3392   2.662   3.409   9.197  0.1107  0.0419  0.1218
  272POPC   C3A 3393   2.565   3.361   8.733  0.2248 -0.2017 -0.2428
  272POPC   C4A 3394   2.777   3.213   8.353  0.4556 -0.0272 -0.2228
  272POPC   C1B 3395   3.177   3.592   9.366  0.0848 -0.1494 -0.1921
  272POPC   C2B 3396   3.017   3.678   8.925 -0.1464  0.2012 -0.3940
  272POPC   C3B 3397   2.724   3.819   8.589  0.1505  0.1148 -0.0451
  272POPC   C4B 3398   2.512   4.236   8.425  0.3242 -0.0597 -0.1459
  273POPC   NC3 3399   3.868   0.386   9.997 -0.5247 -0.1661 -0.1206
  273POPC   PO4 3400   4.085   0.688   9.943  0.1131  0.3223  0.0821
  273POPC   GL1 3401   3.976   0.712   9.588 -0.1628  0.0056  0.0256
  273POPC   GL2 3402   3.715   0.846   9.634  0.2156  0.0253 -0.2307
  273POPC   C1A 3403   3.831   0.852   9.144 -0.3570 -0.1720 -0.3379
  273POPC   D2A 3404   3.802   0.756   8.767  0.1707 -0.2994  0.1513
  273POPC   C3A 3405   3.995   0.569   8.418 -0.3408 -0.0453 -0.0103
  273POPC   C4A 3406   3.867   0.546   8.045 -0.1382  0.0884  0.0028
  273POPC   C1B 3407   3.361   0.832   9.346  0.3054  0.2289 -0.5094
  273POPC   C2B 3408   3.432   1.046   9.010  0.1305 -0.2277 -0.1849
  273POPC   C3B 3409   3.478   1.187   8.563 -0.0047 -0.0059 -0.0541
  273POPC   C4B 3410   3.438   1.409   8.213 -0.0807 -0.3375  0.3310
  274POPC   NC3 3411   8.082  10.115  10.828  0.0299  0.1880 -0.1065
  274POPC   PO4 3412   7.842  10.427  10.732  0.3373  0.1250 -0.1989
  274POPC   GL1 3413   8.205  10.457  10.376 -0.0529 -0.3324 -0.0241
  274POPC   GL2 3414   8.133  10.764  10.099  0.0324  0.0370  0.2204
  274POPC   C1A 3415   8.329   9.980  10.216  0.0235  0.1865  0.2514
  274POPC   D2A 3416   8.514   9.948   9.761  0.0416 -0.2622  0.0378
  274POPC   C3A 3417   8.361   9.865   9.422 -0.0475 -0.0478  0.1135
  274POPC   C4A 3418   8.242   9.500   9.117  0.3901  0.2754 -0.1377
  274POPC   C1B 3419   8.195  10.413   9.841 -0.0061 -0.1255  0.1238
  274POPC   C2B 3420   8.174  10.390   9.362  0.0494 -0.4552  0.0588
  274POPC   C3B 3421   7.912  10.474   9.052 -0.2959 -0.0363  0.0522
  274POPC   C4B 3422   7.744  10.356   8.691 -0.1024 -0.1873 -0.0791
  275POPC   NC3 3423   9.758  13.370  11.126  0.2029  0.1014 -0.1044
  275POPC   PO4 3424   9.898  13.741  10.957  0.0845 -0.1082 -0.1633
  275POPC   GL1 3425  10.114  13.670  10.601  0.1956  0.0718 -0.3143
  275POPC   GL2 3426   9.779  13.657  10.398  0.1844 -0.0069 -0.3720
  275POPC   C1A 3427  10.214  13.747  10.238  0.4236  0.0530 -0.1863
  275POPC   D2A 3428  10.268  13.902   9.834 -0.1247 -0.2116  0.2244
  275POPC   C3A 3429  10.598  13.730   9.576  0.0837  0.1651 -0.1427
  275POPC   C4A 3430  10.900  13.373   9.583 -0.0226  0.0800  0.1984
  275POPC   C1B 3431   9.840  13.495   9.999  0.3019  0.1311 -0.0866
  275POPC   C2B 3432   9.736  13.331   9.521 -0.2361 -0.2244 -0.1035
  275POPC   C3B 3433   9.607  13.550   9.157 -0.0513 -0.1783  0.0852
  275POPC   C4B 3434   9.614  13.971   9.237 -0.0719  0.2312  0.2674
  276POPC   NC3 3435  15.068  16.510  11.137  0.2395 -0.0029  0.2711
  276POPC   PO4 3436  14.878  16.058  11.049  0.0167 -0.0210  0.0021
  276POPC   GL1 3437  15.009  16.118  10.620  0.0515  0.2869 -0.1005
  276POPC   GL2 3438  15.364  16.008  10.428  0.1074  0.0888  0.0122
  276POPC   C1A 3439  14.832  15.978  10.236 -0.1258  0.2832  0.0836
  276POPC   D2A 3440  14.734  15.787   9.867  0.0298 -0.1072 -0.1928
  276POPC   C3A 3441  14.344  15.698   9.735  0.3068  0.0710 -0.0314
  276POPC   C4A 3442  14.194  15.761   9.325 -0.1341 -0.0709  0.4788
  276POPC   C1B 3443  15.626  16.295  10.367 -0.0288 -0.3018  0.0697
  276POPC   C2B 3444  15.583  16.529   9.971  0.1249  0.0301 -0.0860
  276POPC   C3B 3445  15.491  16.541   9.506 -0.0571 -0.0464 -0.1468
  276POPC   C4B 3446  15.451  16.202   9.112  0.1207 -0.1990  0.2841
  277POPC   NC3 3447   2.591   6.164  11.045 -0.0593 -0.0507 -0.1105
  277POPC   PO4 3448   2.240   6.248  10.837 -0.0226  0.0516  0.2430
  277POPC   GL1 3449   2.445   6.421  10.440  0.2108 -0.2186 -0.2979
  277POPC   GL2 3450   2.205   6.526  10.218 -0.3496 -0.3152  0.1488
  277POPC   C1A 3451   2.776   6.482  10.139 -0.2544  0.0990 -0.0119
  277POPC   D2A 3452   3.172   6.509   9.895 -0.2090  0.1200  0.2192
  277POPC   C3A 3453   3.149   6.581   9.485 -0.0379 -0.3544 -0.1614
  277POPC   C4A 3454   3.273   6.716   9.118  0.0472 -0.0604 -0.0606
  277POPC   C1B 3455   2.400   6.408   9.782  0.0090  0.1245 -0.0435
  277POPC   C2B 3456   2.751   6.321   9.657 -0.1151 -0.0337 -0.2134
  277POPC   C3B 3457   2.874   6.099   9.269  0.2089  0.0512 -0.0881
  277POPC   C4B 3458   2.923   6.349   8.933  0.0622  0.0223  0.1098
  278POPC   NC3 3459   8.968  14.555  10.963  0.2821 -0.1867 -0.1957
  278POPC   PO4 3460   9.347  14.523  11.075 -0.0789  0.2233  0.2220
  278POPC   GL1 3461   9.566  14.643  10.779 -0.1731  0.0795  0.2237
  278POPC   GL2 3462   9.885  14.762  10.925  0.1571  0.0598 -0.0434
  278POPC   C1A 3463   9.661  14.688  10.393  0.1537 -0.0886 -0.0939
  278POPC   D2A 3464   9.449  14.868  10.086 -0.1301 -0.2240  0.0853
  278POPC   C3A 3465   9.549  14.909   9.755  0.0702 -0.1889 -0.1770
  278POPC   C4A 3466   9.505  14.867   9.350  0.1409  0.1504  0.0403
  278POPC   C1B 3467  10.148  14.860  10.559 -0.1275 -0.2316 -0.1878
  278POPC   C2B 3468  10.130  14.945  10.145  0.1842 -0.0674  0.1209
  278POPC   C3B 3469  10.042  14.892   9.656 -0.0271 -0.1732 -0.1507
  278POPC   C4B 3470   9.929  15.069   9.247  0.1302  0.0158  0.1698
  279POPC   NC3 3471   2.885  15.949  10.377 -0.0402  0.1040 -0.0838
  279POPC   PO4 3472   3.067  16.089   9.997 -0.1286  0.0017 -0.0791
  279POPC   GL1 3473   3.088  16.090   9.624  0.2742  0.1972  0.0106
  279POPC   GL2 3474   2.682  16.211   9.610  0.0386  0.0805 -0.0303
  279POPC   C1A 3475   3.108  16.352   9.295  0.0882 -0.2578 -0.1984
  279POPC   D2A 3476   3.005  16.296   8.942 -0.0077 -0.0910  0.0611
  279POPC   C3A 3477   3.279  16.341   8.605 -0.4272  0.0925  0.1316
  279POPC   C4A 3478   3.456  16.353   8.211 -0.0194  0.0204 -0.1225
  279POPC   C1B 3479   2.483  15.968   9.302  0.2043  0.1596  0.2407
  279POPC   C2B 3480   2.535  16.069   8.840 -0.1150  0.1917  0.3532
  279POPC   C3B 3481   2.630  16.269   8.490  0.2190  0.3611  0.0716
  279POPC   C4B 3482   2.878  16.358   8.248 -0.1818  0.2879 -0.0309
  280POPC   NC3 3483   0.479  14.586   9.983  0.1049 -0.0129  0.1282
  280POPC   PO4 3484   0.848  14.778  10.215  0.1139  0.3187 -0.1263
  280POPC   GL1 3485   0.868  14.681   9.682 -0.0369 -0.1148 -0.2299
  280POPC   GL2 3486   0.855  14.364   9.478  0.2047  0.0742  0.0103
  280POPC   C1A 3487   1.114  14.883   9.301  0.2192  0.2135  0.0339
  280POPC   D2A 3488   1.076  14.789   8.854 -0.2964 -0.0494  0.0691
  280POPC   C3A 3489   1.107  14.956   8.493 -0.4565  0.1115 -0.2846
  280POPC   C4A 3490   1.148  15.003   8.109 -0.1542  0.0114  0.0461
  280POPC   C1B 3491   0.933  14.331   8.996  0.2026 -0.3663  0.0845
  280POPC   C2B 3492   1.134  14.331   8.594  0.0423  0.2351  0.0267
  280POPC   C3B 3493   1.350  14.241   8.122 -0.0881  0.1074 -0.0860
  280POPC   C4B 3494   1.639  14.252   7.684  0.1891  0.3202 -0.0501
  281POPC   NC3 3495  16.210   7.388  10.576 -0.1079 -0.0962 -0.0386
  281POPC   PO4 3496  16.531   7.613  10.494 -0.3280 -0.1249 -0.0058
  281POPC   GL1 3497  16.431   7.430  10.054 -0.0925  0.0507 -0.2946
  281POPC   GL2 3498  16.648   7.156   9.922 -0.0624  0.3208  0.2761
  281POPC   C1A 3499  16.270   7.752   9.762  0.1174  0.1676  0.0924
  281POPC   D2A 3500  16.115   8.126   9.478 -0.0061  0.3038 -0.1033
  281POPC   C3A 3501  16.047   8.225   9.109 -0.1151 -0.4458  0.2356
  281POPC   C4A 3502  15.951   8.245   8.633  0.0155 -0.0540  0.1172
  281POPC   C1B 3503  16.575   7.009   9.580 -0.2723  0.1999  0.4033
  281POPC   C2B 3504  16.764   6.986   9.245 -0.2082  0.4392  0.1172
  281POPC   C3B 3505  16.917   6.707   8.910 -0.2003 -0.2427  0.1682
  281POPC   C4B 3506  16.766   6.383   8.788 -0.3129  0.1353  0.0235
  282POPC   NC3 3507   6.151  11.913  11.092 -0.0934 -0.0782 -0.0470
  282POPC   PO4 3508   6.598  12.103  11.203 -0.3203 -0.1044  0.1289
  282POPC   GL1 3509   6.561  12.003  10.763  0.1529  0.0659 -0.4539
  282POPC   GL2 3510   6.806  12.235  10.523 -0.0601  0.1857 -0.5305
  282POPC   C1A 3511   6.499  11.830  10.329 -0.0699 -0.2010  0.0554
  282POPC   D2A 3512   6.529  11.495  10.009  0.2039 -0.0650 -0.3355
  282POPC   C3A 3513   6.629  11.485   9.502 -0.1223  0.2083 -0.0917
  282POPC   C4A 3514   6.622  11.417   8.965  0.3881 -0.1075  0.3179
  282POPC   C1B 3515   6.751  12.207  10.043 -0.1920 -0.0291 -0.0552
  282POPC   C2B 3516   6.602  12.409   9.693 -0.1177 -0.1280  0.0359
  282POPC   C3B 3517   6.568  12.666   9.345 -0.0426  0.1142 -0.0510
  282POPC   C4B 3518   6.880  12.401   9.150  0.2457  0.1946  0.3796
  283POPC   NC3 3519   9.398  12.535  11.068 -0.0176 -0.1452 -0.0434
  283POPC   PO4 3520   9.795  12.213  11.007 -0.2126 -0.0590 -0.0328
  283POPC   GL1 3521   9.930  12.369  10.628  0.1790 -0.1182  0.0397
  283POPC   GL2 3522  10.093  12.671  10.604  0.0963  0.0379  0.1304
  283POPC   C1A 3523   9.862  12.458  10.223  0.0343 -0.2532 -0.0984
  283POPC   D2A 3524  10.092  12.432   9.811  0.1227 -0.1206 -0.0888
  283POPC   C3A 3525   9.907  12.381   9.414  0.0385  0.1609 -0.2404
  283POPC   C4A 3526   9.787  12.407   9.008 -0.1178 -0.0024  0.0633
  283POPC   C1B 3527  10.309  12.705  10.208 -0.2398 -0.0884 -0.0453
  283POPC   C2B 3528  10.454  12.853   9.824 -0.0016 -0.0316 -0.0886
  283POPC   C3B 3529  10.652  12.875   9.396  0.2058  0.1073 -0.2143
  283POPC   C4B 3530  10.726  12.636   9.069 -0.2008 -0.5276 -0.0541
  284POPC   NC3 3531   0.554  11.675  10.631 -0.0099 -0.1728  0.0201
  284POPC   PO4 3532   0.551  11.462  10.208 -0.1762 -0.0946 -0.1592
  284POPC   GL1 3533   0.705  11.264   9.888 -0.0868  0.0470 -0.3750
  284POPC   GL2 3534   0.753  10.951   9.951  0.0111  0.2639 -0.3856
  284POPC   C1A 3535   0.782  11.219   9.426 -0.0075  0.0280  0.0004
  284POPC   D2A 3536   0.847  10.924   9.044  0.3368 -0.0866  0.0707
  284POPC   C3A 3537   0.930  11.012   8.685  0.0609  0.2706 -0.2448
  284POPC   C4A 3538   1.222  10.870   8.286 -0.2250 -0.2582  0.0872
  284POPC   C1B 3539   0.716  10.733   9.578 -0.0635 -0.1319  0.2931
  284POPC   C2B 3540   0.668  10.488   9.335 -0.0371 -0.1728  0.0069
  284POPC   C3B 3541   0.728  10.124   9.147  0.0321 -0.3002  0.3817
  284POPC   C4B 3542   0.862  10.142   8.688  0.0310 -0.1945  0.0218
  285POPC   NC3 3543   5.921  15.141  10.303  0.1483 -0.0499 -0.0957
  285POPC   PO4 3544   5.897  15.663  10.354  0.1191  0.2088 -0.1286
  285POPC   GL1 3545   5.759  15.732   9.929  0.0133 -0.1703  0.0346
  285POPC   GL2 3546   5.746  15.492   9.822 -0.0555 -0.0877 -0.0991
  285POPC   C1A 3547   5.689  15.881   9.419 -0.1154 -0.1010  0.0351
  285POPC   D2A 3548   5.688  15.997   9.037  0.1918 -0.3380 -0.2128
  285POPC   C3A 3549   5.926  16.106   8.738 -0.1718 -0.0650 -0.0699
  285POPC   C4A 3550   6.288  16.449   8.792 -0.0404  0.1547  0.1394
  285POPC   C1B 3551   6.105  15.252   9.672 -0.4619 -0.2372 -0.0933
  285POPC   C2B 3552   6.320  15.071   9.404 -0.0502  0.1619  0.2123
  285POPC   C3B 3553   6.448  14.732   9.096 -0.0962 -0.0289  0.0375
  285POPC   C4B 3554   6.423  14.643   8.776 -0.0141  0.1388 -0.0882
  286POPC   NC3 3555  10.330   4.211  10.431  0.0144  0.3146  0.1555
  286POPC   PO4 3556  10.273   4.557  10.186 -0.0981  0.2832 -0.0451
  286POPC   GL1 3557  10.241   4.416   9.786  0.0653  0.1025  0.1152
  286POPC   GL2 3558  10.482   4.209   9.624 -0.0004  0.0437  0.0149
  286POPC   C1A 3559  10.304   4.628   9.394 -0.1117  0.0203 -0.0450
  286POPC   D2A 3560  10.321   4.912   9.068  0.1830  0.3120  0.1137
  286POPC   C3A 3561  10.791   5.053   9.012 -0.0478 -0.1313 -0.0997
  286POPC   C4A 3562  10.840   5.479   9.118  0.0420 -0.0437  0.0704
  286POPC   C1B 3563  10.389   4.096   9.237  0.1059 -0.1932 -0.1205
  286POPC   C2B 3564  10.255   4.327   8.937  0.1886 -0.0894 -0.3687
  286POPC   C3B 3565  10.209   4.654   8.670 -0.1074 -0.0502  0.3186
  286POPC   C4B 3566  10.564   4.887   8.622  0.2390  0.1572  0.2106
  287POPC   NC3 3567   9.283  15.015  11.081 -0.2056 -0.1559 -0.0507
  287POPC   PO4 3568   9.313  15.447  11.119  0.0215 -0.4006 -0.0610
  287POPC   GL1 3569   9.557  15.477  10.788 -0.1674  0.0874 -0.0192
  287POPC   GL2 3570   9.621  15.166  10.631  0.0258  0.2282 -0.0883
  287POPC   C1A 3571   9.531  15.638  10.341  0.0711 -0.0780  0.0992
  287POPC   D2A 3572   9.220  15.745  10.088  0.1196  0.2425  0.0541
  287POPC   C3A 3573   9.192  15.863   9.667  0.3144 -0.0613  0.0976
  287POPC   C4A 3574   8.770  15.919   9.423  0.0806  0.0394  0.0766
  287POPC   C1B 3575   9.746  15.250  10.120  0.0350  0.1154 -0.0287
  287POPC   C2B 3576   9.655  15.591   9.781  0.1934  0.1501 -0.0271
  287POPC   C3B 3577   9.700  15.557   9.369  0.1638  0.1117  0.1111
  287POPC   C4B 3578   9.427  15.270   9.066 -0.4272 -0.1360 -0.0857
  288POPC   NC3 3579   0.469   9.820  10.928  0.0911  0.2503  0.0363
  288POPC   PO4 3580   0.652   9.490  10.593  0.2044  0.1166 -0.1031
  288POPC   GL1 3581   0.451   9.551  10.150 -0.2604  0.3237 -0.0110
  288POPC   GL2 3582   0.695   9.729   9.914 -0.0449 -0.2920 -0.0257
  288POPC   C1A 3583   0.356   9.433   9.685  0.0195  0.1103  0.0119
  288POPC   D2A 3584   0.389   9.621   9.296 -0.1868 -0.1682 -0.3331
  288POPC   C3A 3585   0.319   9.518   8.939  0.2937 -0.1814 -0.2761
  288POPC   C4A 3586   0.235   9.627   8.526 -0.1755 -0.0509  0.3169
  288POPC   C1B 3587   0.946   9.680   9.488  0.0277  0.0286  0.0589
  288POPC   C2B 3588   0.848   9.657   9.038  0.0379  0.0717 -0.2196
  288POPC   C3B 3589   0.754   9.679   8.580  0.0594  0.3212 -0.0492
  288POPC   C4B 3590   0.519   9.471   8.180 -0.0367 -0.2527 -0.0727
  289POPC   NC3 3591  15.151   6.372  10.893  0.0376 -0.3046 -0.1818
  289POPC   PO4 3592  15.182   5.916  10.837  0.1925  0.0279 -0.0618
  289POPC   GL1 3593  15.207   5.991  10.426  0.0274 -0.3280 -0.0238
  289POPC   GL2 3594  15.504   5.933  10.206  0.0532  0.0228 -0.0792
  289POPC   C1A 3595  14.964   5.917  10.070 -0.0402  0.0694  0.0205
  289POPC   D2A 3596  14.786   5.607   9.953 -0.0391  0.5000 -0.1504
  289POPC   C3A 3597  14.527   5.632   9.595  0.1404  0.1646  0.2827
  289POPC   C4A 3598  14.283   5.397   9.250  0.3148 -0.2095  0.0928
  289POPC   C1B 3599  15.309   5.754   9.800  0.3428  0.1217 -0.0375
  289POPC   C2B 3600  14.994   5.864   9.523 -0.2736 -0.0582  0.0938
  289POPC   C3B 3601  14.728   5.901   9.098  0.2869  0.1999 -0.0538
  289POPC   C4B 3602  14.557   5.989   8.694  0.0237 -0.2028 -0.0184
  290POPC   NC3 3603   0.896  10.629  10.690 -0.1637 -0.0846 -0.0023
  290POPC   PO4 3604   0.652  10.566  10.307  0.0072  0.2577 -0.1011
  290POPC   GL1 3605   0.381  10.450  10.064 -0.2327  0.2848 -0.1657
  290POPC   GL2 3606   0.316  10.070  10.090 -0.1020  0.4526 -0.1502
  290POPC   C1A 3607   0.277  10.505   9.673 -0.0146 -0.1099 -0.2784
  290POPC   D2A 3608   0.230  10.537   9.073  0.2561  0.1241 -0.0420
  290POPC   C3A 3609   0.573  10.557   8.796  0.2953  0.1322 -0.4565
  290POPC   C4A 3610   0.493  10.788   8.426  0.0430  0.0987  0.0268
  290POPC   C1B 3611   0.089  10.127   9.899  0.2927 -0.1063  0.1749
  290POPC   C2B 3612  -0.295  10.234   9.686  0.0448 -0.1360  0.1695
  290POPC   C3B 3613  -0.348  10.348   9.335 -0.2268 -0.1708  0.1215
  290POPC   C4B 3614  -0.251  10.325   9.052  0.1292 -0.4502  0.0940
  291POPC   NC3 3615   5.492  12.088  10.597 -0.0115  0.3473  0.0075
  291POPC   PO4 3616   5.091  12.013  10.454 -0.0431 -0.1486 -0.1550
  291POPC   GL1 3617   4.975  12.034  10.057 -0.4504  0.1463  0.2468
  291POPC   GL2 3618   5.139  11.861  10.000  0.0373  0.2834  0.3188
  291POPC   C1A 3619   4.890  12.185   9.643  0.0084  0.1002 -0.0774
  291POPC   D2A 3620   5.069  12.095   9.270  0.0805 -0.1444  0.1930
  291POPC   C3A 3621   5.060  11.743   9.010 -0.0358 -0.2892  0.2299
  291POPC   C4A 3622   4.904  11.459   8.664  0.3216  0.0298 -0.0479
  291POPC   C1B 3623   5.395  12.037   9.639  0.0810  0.2893 -0.0260
  291POPC   C2B 3624   5.493  11.753   9.304  0.0158  0.0542 -0.1471
  291POPC   C3B 3625   5.693  11.570   8.875 -0.0449 -0.1710 -0.1885
  291POPC   C4B 3626   5.670  11.525   8.512 -0.0454  0.3262  0.0247
  292POPC   NC3 3627  14.040   2.770  10.090  0.2598 -0.2088  0.0374
  292POPC   PO4 3628  14.437   2.954   9.972  0.2387 -0.1181  0.3588
  292POPC   GL1 3629  14.324   3.145   9.548  0.1428  0.1690  0.1559
  292POPC   GL2 3630  14.099   2.907   9.523 -0.3603 -0.2438  0.2550
  292POPC   C1A 3631  14.281   3.217   9.102 -0.0266  0.0621 -0.1604
  292POPC   D2A 3632  14.112   3.364   8.790 -0.0690  0.0214 -0.1415
  292POPC   C3A 3633  13.820   3.739   8.750 -0.0380  0.1768  0.0503
  292POPC   C4A 3634  13.420   3.880   8.708  0.0770 -0.5053 -0.0722
  292POPC   C1B 3635  14.232   2.719   9.227 -0.0497 -0.0516  0.0460
  292POPC   C2B 3636  14.462   2.357   9.111  0.0129  0.0595  0.1581
  292POPC   C3B 3637  14.821   2.097   8.966  0.1210  0.5190  0.1631
  292POPC   C4B 3638  15.042   2.127   8.546 -0.0008  0.2056 -0.1215
  293POPC   NC3 3639   5.334  16.323  10.064  0.2272  0.2338 -0.0024
  293POPC   PO4 3640   5.262  15.917  10.058 -0.1075  0.0496 -0.0231
  293POPC   GL1 3641   5.135  16.071   9.681 -0.0122  0.1436  0.0584
  293POPC   GL2 3642   4.998  15.978   9.381  0.3014  0.0636 -0.0613
  293POPC   C1A 3643   5.048  16.447   9.456 -0.1070  0.3713 -0.2227
  293POPC   D2A 3644   5.152  16.693   9.276  0.2033 -0.3611  0.1396
  293POPC   C3A 3645   5.314  16.551   8.937 -0.1262 -0.1524 -0.0616
  293POPC   C4A 3646   5.619  16.566   8.506  0.0694  0.1035  0.2355
  293POPC   C1B 3647   5.200  16.127   9.084  0.1702  0.4039  0.0163
  293POPC   C2B 3648   5.338  16.136   8.649  0.1600 -0.0922 -0.1574
  293POPC   C3B 3649   5.402  16.236   8.198 -0.2345 -0.0359 -0.2284
  293POPC   C4B 3650   5.567  16.567   7.857 -0.1249 -0.3737  0.1105
  294POPC   NC3 3651   1.366   5.303  10.492  0.1087  0.2023  0.1835
  294POPC   PO4 3652   1.847   5.215  10.506  0.1428  0.2685 -0.0557
  294POPC   GL1 3653   1.923   5.124  10.091 -0.0418 -0.0108  0.0321
  294POPC   GL2 3654   1.596   5.242  10.037  0.1129  0.5430 -0.2419
  294POPC   C1A 3655   2.344   5.139   9.893  0.1715  0.1552 -0.2124
  294POPC   D2A 3656   2.690   5.230   9.645 -0.2057 -0.2350 -0.0080
  294POPC   C3A 3657   2.736   5.030   9.197 -0.0250 -0.2632  0.1892
  294POPC   C4A 3658   2.913   4.844   8.861  0.1006  0.0200  0.1345
  294POPC   C1B 3659   1.373   5.160   9.598  0.1550 -0.3077  0.3128
  294POPC   C2B 3660   1.391   5.113   9.174  0.0286  0.0428 -0.0709
  294POPC   C3B 3661   1.125   5.094   8.739 -0.2789  0.2311 -0.0830
  294POPC   C4B 3662   1.052   5.172   8.296  0.0236 -0.0017 -0.1471
  295POPC   NC3 3663  12.850  14.152  10.868 -0.1006  0.1277  0.0982
  295POPC   PO4 3664  13.325  14.329  10.891  0.1818  0.3392 -0.1895
  295POPC   GL1 3665  13.570  14.050  10.699 -0.0932  0.0738  0.5224
  295POPC   GL2 3666  13.342  13.842  10.649  0.1332  0.0582 -0.1812
  295POPC   C1A 3667  13.637  13.956  10.187 -0.1305  0.3163  0.0777
  295POPC   D2A 3668  13.712  13.988   9.747 -0.1753  0.0573 -0.1152
  295POPC   C3A 3669  13.458  13.859   9.450  0.1813  0.2089  0.0228
  295POPC   C4A 3670  13.255  13.720   9.168  0.0237  0.0968 -0.0061
  295POPC   C1B 3671  13.187  13.659  10.277 -0.1901 -0.0682  0.2839
  295POPC   C2B 3672  13.067  13.704   9.818 -0.1452  0.2432  0.2213
  295POPC   C3B 3673  13.010  13.415   9.470  0.0113  0.0141  0.0287
  295POPC   C4B 3674  12.914  12.948   9.197 -0.2881 -0.2150  0.3220
  296POPC   NC3 3675   4.272   6.575  11.244 -0.3082  0.1102  0.3480
  296POPC   PO4 3676   4.378   6.365  10.834 -0.1051  0.0963  0.0576
  296POPC   GL1 3677   4.219   6.372  10.320 -0.0448  0.3619 -0.0753
  296POPC   GL2 3678   4.198   6.071  10.279  0.1315 -0.3959  0.0311
  296POPC   C1A 3679   4.225   6.594   9.984  0.0147  0.2994 -0.2268
  296POPC   D2A 3680   4.167   6.869   9.762  0.1170  0.1304 -0.1790
  296POPC   C3A 3681   4.062   6.883   9.446  0.4537  0.1691  0.0427
  296POPC   C4A 3682   4.076   6.867   9.048 -0.3369 -0.2260 -0.0352
  296POPC   C1B 3683   4.312   6.139   9.877  0.1490 -0.1489 -0.0669
  296POPC   C2B 3684   4.151   6.128   9.491 -0.0934  0.0396  0.0253
  296POPC   C3B 3685   4.132   6.378   9.104  0.2941 -0.3990  0.2482
  296POPC   C4B 3686   4.301   6.549   8.641  0.0429  0.1594  0.1899
  297POPC   NC3 3687  13.507  16.336  10.989 -0.0576 -0.0353 -0.0260
  297POPC   PO4 3688  13.729  16.491  10.552 -0.0313 -0.1636  0.0317
  297POPC   GL1 3689  13.637  16.315  10.237 -0.1751  0.0210  0.1746
  297POPC   GL2 3690  13.485  16.608  10.026  0.0888 -0.1862 -0.0941
  297POPC   C1A 3691  13.600  16.212   9.759  0.1354  0.2049 -0.1197
  297POPC   D2A 3692  13.726  15.969   9.424  0.0585 -0.1148 -0.1080
  297POPC   C3A 3693  13.817  16.061   9.044  0.0199  0.0067 -0.2072
  297POPC   C4A 3694  14.108  15.915   8.765  0.0077 -0.0155  0.2026
  297POPC   C1B 3695  13.507  16.693   9.612  0.1313 -0.0593 -0.1343
  297POPC   C2B 3696  13.630  16.522   9.253 -0.1416 -0.0767 -0.3568
  297POPC   C3B 3697  13.646  16.464   8.799 -0.1872  0.0849  0.1571
  297POPC   C4B 3698  13.460  16.468   8.425  0.1079 -0.1696 -0.2241
  298POPC   NC3 3699  10.681  11.801  10.915  0.0882 -0.1682 -0.1175
  298POPC   PO4 3700  11.135  11.676  10.845 -0.0702  0.1262 -0.0495
  298POPC   GL1 3701  11.224  11.786  10.454  0.2396  0.1462 -0.2571
  298POPC   GL2 3702  10.900  11.934  10.448 -0.1291  0.1608 -0.1564
  298POPC   C1A 3703  11.375  11.586  10.058  0.0083  0.1110 -0.1086
  298POPC   D2A 3704  11.392  11.562   9.655  0.3256  0.0537  0.2591
  298POPC   C3A 3705  11.627  11.657   9.329  0.0690  0.0877  0.1131
  298POPC   C4A 3706  11.771  11.977   9.014 -0.0933 -0.0962  0.0083
  298POPC   C1B 3707  10.884  11.919  10.019  0.0571 -0.2058  0.3863
  298POPC   C2B 3708  11.048  11.974   9.626 -0.0433  0.1632  0.1449
  298POPC   C3B 3709  11.197  11.830   9.207 -0.2368  0.0063  0.1176
  298POPC   C4B 3710  11.383  11.693   8.862 -0.2907 -0.1243  0.0621
  299POPC   NC3 3711  11.081  12.758  10.919  0.0800  0.1785 -0.0500
  299POPC   PO4 3712  11.501  12.559  10.779 -0.3236  0.0689  0.1121
  299POPC   GL1 3713  11.192  12.571  10.353  0.2004  0.1472 -0.3948
  299POPC   GL2 3714  11.299  12.228  10.326  0.0250  0.0268  0.4015
  299POPC   C1A 3715  11.300  12.552   9.890 -0.0792 -0.0613  0.0318
  299POPC   D2A 3716  11.114  12.522   9.446 -0.1327 -0.3397  0.3103
  299POPC   C3A 3717  11.302  12.313   9.121 -0.1234 -0.0498 -0.3054
  299POPC   C4A 3718  11.088  12.209   8.781 -0.2305 -0.0066  0.1501
  299POPC   C1B 3719  11.362  12.061   9.967 -0.0990 -0.2832 -0.2964
  299POPC   C2B 3720  11.555  12.079   9.565  0.4217  0.2039  0.2071
  299POPC   C3B 3721  11.840  12.402   9.277  0.1106  0.0908  0.0471
  299POPC   C4B 3722  12.104  12.605   8.864  0.0025  0.0836 -0.0157
  300POPC   NC3 3723  11.419  15.982  11.477 -0.2929  0.0014  0.1495
  300POPC   PO4 3724  11.096  16.155  11.246  0.0052  0.0934 -0.0161
  300POPC   GL1 3725  10.993  15.842  10.978 -0.0248  0.0195 -0.2472
  300POPC   GL2 3726  11.173  15.805  10.699  0.0121 -0.0895  0.1763
  300POPC   C1A 3727  10.900  15.418  10.609  0.0050  0.0370 -0.0695
  300POPC   D2A 3728  10.596  15.079  10.441  0.1050 -0.2691  0.0288
  300POPC   C3A 3729  10.531  14.611  10.363 -0.0075 -0.0595  0.2255
  300POPC   C4A 3730  10.539  14.152  10.287 -0.1574  0.1096 -0.0523
  300POPC   C1B 3731  11.380  15.823  10.246 -0.3098 -0.0659  0.3726
  300POPC   C2B 3732  11.183  15.736   9.814 -0.0081  0.0049  0.2387
  300POPC   C3B 3733  11.104  15.669   9.427 -0.0484  0.3202 -0.1112
  300POPC   C4B 3734  10.725  15.619   9.179  0.2189 -0.1838 -0.0346
  301POPC   NC3 3735   6.855  16.000  10.612  0.1775  0.3347 -0.0353
  301POPC   PO4 3736   6.697  15.702  10.439  0.0942 -0.1320 -0.0720
  301POPC   GL1 3737   6.648  15.871  10.068 -0.5136  0.1735  0.0844
  301POPC   GL2 3738   6.286  15.957   9.991 -0.0651  0.0168 -0.0652
  301POPC   C1A 3739   6.728  15.920   9.619 -0.1392  0.1772  0.1508
  301POPC   D2A 3740   6.888  16.200   9.382 -0.1381 -0.1323  0.0634
  301POPC   C3A 3741   6.859  16.285   9.016  0.0974  0.1148  0.2066
  301POPC   C4A 3742   6.961  16.037   8.677  0.3573 -0.1712  0.1079
  301POPC   C1B 3743   6.206  15.804   9.624 -0.2264 -0.1032  0.0725
  301POPC   C2B 3744   6.032  15.585   9.252 -0.3692 -0.0697 -0.1744
  301POPC   C3B 3745   6.053  15.577   8.876 -0.1071 -0.0611 -0.2058
  301POPC   C4B 3746   6.151  15.396   8.502  0.2333 -0.2481 -0.1244
  302POPC   NC3 3747   8.095  14.682  11.234  0.1606 -0.0945  0.0567
  302POPC   PO4 3748   7.821  14.777  10.864 -0.1976  0.3640 -0.0710
  302POPC   GL1 3749   7.755  14.688  10.444  0.0379 -0.1646  0.1057
  302POPC   GL2 3750   7.794  14.970  10.314  0.2450  0.3517 -0.0179
  302POPC   C1A 3751   8.032  14.408  10.049  0.0451 -0.1056  0.0530
  302POPC   D2A 3752   8.371  14.220   9.925 -0.2070 -0.0898 -0.2995
  302POPC   C3A 3753   8.306  13.739   9.934 -0.2629  0.1419 -0.0859
  302POPC   C4A 3754   8.281  13.302   9.822 -0.0061  0.0382  0.1435
  302POPC   C1B 3755   7.903  14.930   9.907 -0.0345  0.0753  0.1046
  302POPC   C2B 3756   7.970  15.043   9.476  0.1948 -0.1619  0.0305
  302POPC   C3B 3757   8.000  15.363   9.100 -0.1026 -0.2333 -0.2251
  302POPC   C4B 3758   7.874  15.430   8.773 -0.3326  0.0553  0.0763
  303POPC   NC3 3759  10.767  10.230  11.013 -0.1004 -0.3370  0.0369
  303POPC   PO4 3760  10.521  10.560  10.903 -0.0283  0.1943 -0.1313
  303POPC   GL1 3761  10.638  10.452  10.521 -0.0766  0.0303 -0.0313
  303POPC   GL2 3762  10.909  10.474  10.329  0.1408 -0.0919  0.1460
  303POPC   C1A 3763  10.411  10.412  10.134 -0.1435  0.2067  0.0260
  303POPC   D2A 3764  10.456  10.376   9.722  0.2174  0.1554 -0.1486
  303POPC   C3A 3765  10.134  10.419   9.445 -0.0155  0.1526  0.0651
  303POPC   C4A 3766  10.079  10.424   8.971 -0.3002 -0.3117  0.1238
  303POPC   C1B 3767  11.077  10.635   9.890 -0.0147  0.0100 -0.3028
  303POPC   C2B 3768  11.158  10.581   9.466  0.2759  0.0462 -0.3751
  303POPC   C3B 3769  11.135  10.344   9.095 -0.2688 -0.0270 -0.0331
  303POPC   C4B 3770  11.262  10.053   8.842 -0.1288  0.0588 -0.1798
  304POPC   NC3 3771  14.203  10.300  11.269  0.1099 -0.3514  0.1857
  304POPC   PO4 3772  14.311  10.672  11.301  0.1082  0.1120  0.1535
  304POPC   GL1 3773  14.346  10.532  10.850 -0.1239  0.4424 -0.0582
  304POPC   GL2 3774  14.609  10.351  10.675 -0.2290 -0.1145  0.3083
  304POPC   C1A 3775  14.269  10.715  10.456 -0.0617 -0.0494  0.0661
  304POPC   D2A 3776  14.287  10.825  10.108  0.4348 -0.1530 -0.0317
  304POPC   C3A 3777  14.061  10.773   9.686 -0.5574  0.0256  0.1597
  304POPC   C4A 3778  13.711  11.013   9.541 -0.1661 -0.0757  0.1300
  304POPC   C1B 3779  14.436  10.327  10.232 -0.2290  0.4344 -0.0174
  304POPC   C2B 3780  14.357  10.396   9.784  0.1786 -0.1140 -0.0990
  304POPC   C3B 3781  14.087  10.290   9.408 -0.0565  0.1874  0.2943
  304POPC   C4B 3782  13.798  10.113   9.315  0.2860 -0.3643  0.0510
  305POPC   NC3 3783  15.297   7.650  10.731  0.1494  0.3385  0.1633
  305POPC   PO4 3784  15.739   7.617  10.551  0.1173  0.1571  0.2413
  305POPC   GL1 3785  15.685   7.907  10.155 -0.4672 -0.0006 -0.0365
  305POPC   GL2 3786  15.324   7.835  10.205  0.1218 -0.1068 -0.1275
  305POPC   C1A 3787  15.736   7.826   9.726  0.1878 -0.3547 -0.2183
  305POPC   D2A 3788  15.767   7.841   9.220  0.1160  0.2651 -0.1552
  305POPC   C3A 3789  15.473   8.030   8.898  0.0969  0.0050  0.1599
  305POPC   C4A 3790  15.352   8.329   8.620 -0.1028 -0.1097 -0.0500
  305POPC   C1B 3791  15.298   7.944   9.799  0.0445 -0.2848  0.1383
  305POPC   C2B 3792  15.214   7.757   9.349  0.3125 -0.0148 -0.2110
  305POPC   C3B 3793  15.082   7.692   8.921  0.0401  0.0877 -0.1057
  305POPC   C4B 3794  15.116   7.828   8.445 -0.1154 -0.4304  0.1702
  306POPC   NC3 3795   9.034   1.570  10.690 -0.1759  0.0796 -0.2903
  306POPC   PO4 3796   9.024   1.492  10.343 -0.0307 -0.0237  0.0707
  306POPC   GL1 3797   9.291   1.473   9.925 -0.1240 -0.2901  0.1437
  306POPC   GL2 3798   9.313   1.245   9.664 -0.0846 -0.1152 -0.0881
  306POPC   C1A 3799   9.596   1.677   9.787  0.3758 -0.0963  0.2239
  306POPC   D2A 3800   9.938   1.596   9.510 -0.1703  0.1690  0.1921
  306POPC   C3A 3801   9.840   1.267   9.150  0.0105  0.2728  0.0466
  306POPC   C4A 3802   9.820   0.904   8.756  0.0409 -0.0841 -0.3974
  306POPC   C1B 3803   9.346   1.249   9.298 -0.0562  0.2277  0.3626
  306POPC   C2B 3804   9.376   1.181   8.841 -0.0581  0.1567 -0.1522
  306POPC   C3B 3805   9.038   0.969   8.539  0.0206  0.1207  0.0189
  306POPC   C4B 3806   9.100   0.762   8.166 -0.0312 -0.1022 -0.0871
  307POPC   NC3 3807  11.762   5.029  10.874  0.1524  0.0457 -0.0295
  307POPC   PO4 3808  12.171   4.967  10.493  0.1786  0.0459 -0.0887
  307POPC   GL1 3809  12.387   5.191  10.258  0.1659  0.1406  0.2682
  307POPC   GL2 3810  12.251   5.442  10.191 -0.1127 -0.2110  0.1521
  307POPC   C1A 3811  12.573   5.221   9.894 -0.1431  0.0775 -0.1306
  307POPC   D2A 3812  12.663   5.504   9.504  0.0971  0.0257 -0.0557
  307POPC   C3A 3813  12.734   5.310   9.119  0.0453  0.0758  0.2632
  307POPC   C4A 3814  12.647   4.843   8.954 -0.2872  0.2046 -0.0386
  307POPC   C1B 3815  11.860   5.659   9.903 -0.0649  0.1509  0.0165
  307POPC   C2B 3816  11.848   5.620   9.523  0.0634 -0.1060  0.1346
  307POPC   C3B 3817  11.839   5.661   9.111 -0.1051 -0.1015  0.0782
  307POPC   C4B 3818  12.039   5.760   8.644 -0.1176 -0.0364  0.4513
  308YOPC   NC3 3819   9.164   9.258  10.850  0.2477  0.0401 -0.1529
  308YOPC   PO4 3820   8.751   9.296  10.964  0.1659 -0.2298  0.0946
  308YOPC   GL1 3821   8.509   8.999  10.709  0.3204  0.1062 -0.2114
  308YOPC   GL2 3822   8.218   9.264  10.606  0.4528 -0.1405  0.1322
  308YOPC   C1A 3823   8.371   8.942  10.237  0.2573 -0.3530 -0.3588
  308YOPC   D2A 3824   8.068   8.977   9.858 -0.2271 -0.1130 -0.0604
  308YOPC   C3A 3825   7.634   9.201   9.880 -0.1056 -0.1395  0.0994
  308YOPC   C4A 3826   7.394   9.216   9.632 -0.0520 -0.4308 -0.0360
  308YOPC   C1B 3827   8.485   9.503  10.297  0.1082  0.1964  0.2140
  308YOPC   C2B 3828   8.838   9.575   9.896 -0.1259 -0.2306  0.1193
  308YOPC   D3B 3829   8.752   9.507   9.515 -0.0167  0.1928  0.3886
  308YOPC   C4B 3830   8.728   9.380   9.177  0.1381  0.1670  0.1310
  309YOPC   NC3 3831   0.668  13.707  10.114 -0.0410 -0.1693  0.0251
  309YOPC   PO4 3832   0.298  13.555  10.146  0.2379  0.1914 -0.1208
  309YOPC   GL1 3833   0.285  13.600   9.758  0.2028  0.2576  0.0155
  309YOPC   GL2 3834   0.514  13.694   9.615 -0.2651 -0.0986 -0.0385
  309YOPC   C1A 3835   0.025  13.610   9.477 -0.1398  0.0723 -0.0721
  309YOPC   D2A 3836   0.032  13.525   9.003  0.1073  0.2296 -0.0492
  309YOPC   C3A 3837  -0.281  13.552   8.606 -0.4301 -0.1336 -0.0374
  309YOPC   C4A 3838  -0.226  13.449   8.145 -0.3480  0.0315 -0.0291
  309YOPC   C1B 3839   0.560  13.443   9.308  0.1538 -0.1699  0.0032
  309YOPC   C2B 3840   0.497  13.478   8.927  0.0292  0.1676  0.0683
  309YOPC   D3B 3841   0.696  13.507   8.599  0.0089 -0.0141 -0.0467
  309YOPC   C4B 3842   0.823  13.198   8.367 -0.3457 -0.0774 -0.1646
  310YOPC   NC3 3843   7.303  11.675  11.069  0.0399  0.3206  0.2545
  310YOPC   PO4 3844   7.703  11.944  11.075 -0.1052 -0.0075 -0.2171
  310YOPC   GL1 3845   7.948  11.997  10.690  0.2625 -0.0965  0.0606
  310YOPC   GL2 3846   7.699  12.223  10.544 -0.0965 -0.0317  0.0016
  310YOPC   C1A 3847   7.928  11.939  10.191  0.1783 -0.2017  0.0100
  310YOPC   D2A 3848   7.946  11.982   9.787  0.2289  0.2999 -0.4128
  310YOPC   C3A 3849   7.762  12.005   9.346 -0.1974 -0.1762  0.0477
  310YOPC   C4A 3850   7.529  11.751   9.168  0.2965  0.1498  0.0558
  310YOPC   C1B 3851   7.502  12.233  10.165 -0.2796  0.1465 -0.0190
  310YOPC   C2B 3852   7.208  12.154   9.794 -0.0395  0.0839 -0.4003
  310YOPC   D3B 3853   7.344  12.346   9.404  0.1328 -0.0538 -0.0373
  310YOPC   C4B 3854   7.346  12.260   8.978  0.2621 -0.0607  0.0411
  311YOPC   NC3 3855   6.525   8.429  10.787  0.1897 -0.0705 -0.0490
  311YOPC   PO4 3856   6.908   8.256  10.604  0.0043  0.1079  0.1238
  311YOPC   GL1 3857   6.859   8.336  10.236 -0.0974 -0.0165 -0.0236
  311YOPC   GL2 3858   6.575   8.389  10.237 -0.0149  0.1249 -0.1127
  311YOPC   C1A 3859   6.953   8.718  10.018 -0.0121 -0.0515  0.0814
  311YOPC   D2A 3860   6.999   8.898   9.543  0.0340 -0.1373  0.1671
  311YOPC   C3A 3861   7.187   8.847   9.204 -0.0363 -0.1875 -0.0269
  311YOPC   C4A 3862   7.471   8.893   8.854  0.2332 -0.0641 -0.0098
  311YOPC   C1B 3863   6.486   8.516   9.817  0.1209  0.2016  0.2822
  311YOPC   C2B 3864   6.636   8.575   9.431  0.2476  0.2854 -0.0175
  311YOPC   D3B 3865   6.642   8.823   9.137 -0.0011  0.2310  0.0241
  311YOPC   C4B 3866   6.899   8.742   8.815 -0.0189 -0.2449 -0.0247
  312YOPC   NC3 3867   1.174   7.497  10.354 -0.0193  0.1808 -0.3521
  312YOPC   PO4 3868   0.866   7.721  10.077  0.1454  0.3470 -0.1749
  312YOPC   GL1 3869   0.565   8.023   9.829 -0.3149  0.0987 -0.1052
  312YOPC   GL2 3870   0.209   8.184   9.805 -0.3122  0.0401  0.1414
  312YOPC   C1A 3871   0.393   8.132   9.371 -0.1317 -0.0739 -0.1133
  312YOPC   D2A 3872   0.322   8.240   9.013 -0.2017  0.1211  0.0168
  312YOPC   C3A 3873   0.614   8.138   8.663  0.3214 -0.3606  0.0756
  312YOPC   C4A 3874   0.634   8.325   8.295 -0.2151  0.3177  0.4390
  312YOPC   C1B 3875  -0.089   8.254   9.478  0.2762 -0.1485 -0.3068
  312YOPC   C2B 3876  -0.192   8.552   9.189  0.3822 -0.1549  0.0506
  312YOPC   D3B 3877  -0.148   8.937   9.216  0.1293  0.1332 -0.2708
  312YOPC   C4B 3878   0.070   9.272   9.251 -0.2863  0.0054  0.4037
  313YOPC   NC3 3879   2.434   2.986  10.683  0.2418 -0.1715  0.0741
  313YOPC   PO4 3880   2.194   3.181  10.282  0.0193 -0.0592  0.0366
  313YOPC   GL1 3881   2.219   3.050   9.825  0.1364 -0.0172 -0.0184
  313YOPC   GL2 3882   2.511   2.840   9.725  0.0973  0.1998  0.0306
  313YOPC   C1A 3883   2.264   3.054   9.365 -0.3441  0.1114  0.1314
  313YOPC   D2A 3884   2.159   3.150   9.016  0.2422 -0.0439 -0.0615
  313YOPC   C3A 3885   2.082   3.472   8.729  0.0475  0.3793 -0.0517
  313YOPC   C4A 3886   2.317   3.571   8.318 -0.1991 -0.2828 -0.4907
  313YOPC   C1B 3887   2.753   2.791   9.406  0.1866  0.0305 -0.1419
  313YOPC   C2B 3888   2.729   2.939   9.003 -0.0532  0.2773  0.1844
  313YOPC   D3B 3889   2.965   2.790   8.618  0.2108 -0.2560  0.0591
  313YOPC   C4B 3890   2.724   2.661   8.225 -0.2981 -0.0403  0.3266
  314YOPC   NC3 3891  17.492  13.413  10.240  0.2720 -0.0934 -0.1552
  314YOPC   PO4 3892  17.451  13.833  10.247  0.2001  0.0830  0.3300
  314YOPC   GL1 3893  17.178  13.913   9.877 -0.0595  0.1031  0.2509
  314YOPC   GL2 3894  17.218  14.128   9.691 -0.3238  0.1003 -0.2036
  314YOPC   C1A 3895  16.995  13.744   9.555  0.1553  0.0645  0.0461
  314YOPC   D2A 3896  17.221  13.572   9.194 -0.0011  0.0323  0.1886
  314YOPC   C3A 3897  17.219  13.684   8.791 -0.1666 -0.0935  0.0520
  314YOPC   C4A 3898  17.073  13.816   8.407 -0.0086  0.2595  0.0335
  314YOPC   C1B 3899  17.210  14.129   9.236 -0.0884 -0.0164 -0.1021
  314YOPC   C2B 3900  17.198  14.208   8.765 -0.0590  0.1179  0.1917
  314YOPC   D3B 3901  16.743  14.354   8.546  0.0743 -0.2221 -0.2083
  314YOPC   C4B 3902  16.205  14.247   8.692 -0.1675  0.0864  0.0496
  315YOPC   NC3 3903  11.627  10.795  10.973 -0.2393  0.0199  0.0541
  315YOPC   PO4 3904  12.000  10.714  10.722 -0.0347 -0.0587  0.0918
  315YOPC   GL1 3905  12.149  10.472  10.277  0.1399  0.3406  0.2066
  315YOPC   GL2 3906  12.405  10.337  10.400  0.1363 -0.2984 -0.0624
  315YOPC   C1A 3907  12.263  10.455   9.848 -0.3170  0.0073  0.0526
  315YOPC   D2A 3908  12.411  10.376   9.554  0.2262 -0.1772 -0.0836
  315YOPC   C3A 3909  12.539  10.472   9.145 -0.2535 -0.3370 -0.1772
  315YOPC   C4A 3910  12.608  10.698   8.791  0.0495  0.0031 -0.0239
  315YOPC   C1B 3911  12.217   9.912  10.179 -0.0600  0.1198 -0.2689
  315YOPC   C2B 3912  12.171   9.650   9.872  0.0323  0.0586 -0.4141
  315YOPC   D3B 3913  12.041   9.586   9.384  0.1838 -0.0159 -0.0263
  315YOPC   C4B 3914  12.199   9.532   8.974  0.1893 -0.2473 -0.1408
  316YOPC   NC3 3915   3.956  16.251  10.214  0.0392 -0.0610 -0.1353
  316YOPC   PO4 3916   3.981  16.344   9.841  0.2513 -0.1860  0.2123
  316YOPC   GL1 3917   4.095  16.298   9.480 -0.0044  0.0783  0.0171
  316YOPC   GL2 3918   4.029  16.022   9.401 -0.0551 -0.3108  0.0409
  316YOPC   C1A 3919   4.116  16.526   9.122 -0.2787 -0.2611  0.0656
  316YOPC   D2A 3920   4.235  16.512   8.768 -0.0016  0.2293  0.0680
  316YOPC   C3A 3921   3.936  16.273   8.414  0.0849  0.2515  0.1292
  316YOPC   C4A 3922   3.981  16.395   7.998  0.0452  0.1867 -0.2744
  316YOPC   C1B 3923   3.939  16.038   8.916  0.0236 -0.0980 -0.2072
  316YOPC   C2B 3924   4.353  16.038   8.809  0.1552  0.0428 -0.1605
  316YOPC   D3B 3925   4.437  15.935   8.466  0.2674 -0.0342 -0.1610
  316YOPC   C4B 3926   4.491  16.084   8.118 -0.1567  0.0302  0.1533
  317YOPC   NC3 3927   3.014  15.551   9.805  0.1262 -0.2810 -0.1463
  317YOPC   PO4 3928   3.431  15.402   9.749  0.2652 -0.1237  0.2926
  317YOPC   GL1 3929   3.304  15.691   9.414 -0.1607  0.1574  0.1199
  317YOPC   GL2 3930   3.530  15.877   9.431  0.1386 -0.0294 -0.1286
  317YOPC   C1A 3931   2.941  15.851   9.069 -0.2429  0.0186  0.0415
  317YOPC   D2A 3932   2.988  15.902   8.594  0.0464 -0.1049  0.0961
  317YOPC   C3A 3933   2.862  15.821   8.188 -0.2955  0.0882  0.1493
  317YOPC   C4A 3934   2.955  15.702   7.789 -0.0489 -0.0191  0.1250
  317YOPC   C1B 3935   3.387  15.939   8.966  0.2565  0.0619  0.3710
  317YOPC   C2B 3936   3.529  15.928   8.515 -0.1793 -0.1643 -0.3220
  317YOPC   D3B 3937   3.340  15.844   8.118  0.0640  0.1326 -0.0448
  317YOPC   C4B 3938   3.430  15.866   7.680  0.1149 -0.2015  0.0667
  318YOPC   NC3 3939   6.785  13.736  11.150  0.0817 -0.2508 -0.1139
  318YOPC   PO4 3940   7.253  13.613  11.023  0.0894 -0.0811 -0.2287
  318YOPC   GL1 3941   7.377  13.422  10.643  0.3813 -0.0605  0.2281
  318YOPC   GL2 3942   7.489  13.065  10.486  0.3667 -0.0485 -0.0736
  318YOPC   C1A 3943   7.385  13.635  10.346 -0.1267 -0.1762 -0.0027
  318YOPC   D2A 3944   7.395  13.860   9.964 -0.3514  0.1637 -0.0756
  318YOPC   C3A 3945   7.387  14.238   9.605  0.0168 -0.1428 -0.0657
  318YOPC   C4A 3946   7.397  14.542   9.137 -0.0301 -0.2873  0.0772
  318YOPC   C1B 3947   7.301  13.207  10.074  0.0816  0.2103  0.0708
  318YOPC   C2B 3948   7.176  13.391   9.774 -0.1521  0.3256  0.1095
  318YOPC   D3B 3949   6.924  13.182   9.455  0.1346 -0.1515 -0.2342
  318YOPC   C4B 3950   6.741  13.136   9.011 -0.1799  0.1324 -0.1620
  319YOPC   NC3 3951  17.349   6.414  10.922 -0.3200 -0.0279 -0.2457
  319YOPC   PO4 3952  17.321   6.190  10.591  0.2207  0.0758 -0.1638
  319YOPC   GL1 3953  17.373   6.271  10.104  0.1523  0.0884 -0.0618
  319YOPC   GL2 3954  17.648   6.422   9.893 -0.0936 -0.1744 -0.1813
  319YOPC   C1A 3955  17.355   6.058   9.672  0.0180  0.0812 -0.2098
  319YOPC   D2A 3956  17.453   5.911   9.237  0.1997 -0.0710  0.0587
  319YOPC   C3A 3957  17.763   5.931   8.896 -0.2161  0.0580 -0.4099
  319YOPC   C4A 3958  17.587   5.980   8.536 -0.3762  0.2662 -0.1713
  319YOPC   C1B 3959  17.670   6.399   9.471  0.1563  0.0128  0.2069
  319YOPC   C2B 3960  17.925   6.285   9.209  0.0350  0.1288 -0.0582
  319YOPC   D3B 3961  18.007   6.410   8.788  0.2106 -0.0703  0.0855
  319YOPC   C4B 3962  18.111   6.230   8.407  0.0329  0.0225 -0.0810
  320YOPC   NC3 3963  14.541  16.466  11.115  0.1183  0.0574 -0.1046
  320YOPC   PO4 3964  14.720  16.712  10.745 -0.0923  0.2072  0.1716
  320YOPC   GL1 3965  14.559  16.631  10.303 -0.3370 -0.1261  0.0759
  320YOPC   GL2 3966  14.414  16.897  10.251 -0.3651 -0.2396 -0.2394
  320YOPC   C1A 3967  14.495  16.453   9.936  0.1442 -0.1290 -0.0550
  320YOPC   D2A 3968  14.448  16.157   9.730  0.3463 -0.3158  0.0657
  320YOPC   C3A 3969  14.563  16.145   9.341 -0.2186 -0.0363  0.2003
  320YOPC   C4A 3970  14.490  16.031   8.995 -0.0349  0.3135 -0.2259
  320YOPC   C1B 3971  14.359  16.952   9.788 -0.3337  0.1192 -0.1989
  320YOPC   C2B 3972  14.357  16.951   9.340 -0.1409  0.0369 -0.3761
  320YOPC   D3B 3973  14.255  17.083   8.982  0.1312  0.1219  0.1181
  320YOPC   C4B 3974  14.037  17.080   8.592 -0.0038 -0.0798  0.1189
  321YOPC   NC3 3975  16.988   3.176  10.425 -0.1150 -0.1190  0.0487
  321YOPC   PO4 3976  16.886   2.791  10.305 -0.0100  0.0208 -0.0328
  321YOPC   GL1 3977  16.998   2.626   9.912 -0.3175 -0.0448  0.1868
  321YOPC   GL2 3978  17.221   2.355   9.829 -0.1761 -0.0148  0.1003
  321YOPC   C1A 3979  16.968   2.497   9.457  0.2517  0.0201  0.0735
  321YOPC   D2A 3980  16.933   2.449   9.061  0.1383 -0.0614 -0.1893
  321YOPC   C3A 3981  16.949   2.792   8.634  0.2704 -0.3723  0.1565
  321YOPC   C4A 3982  16.760   2.661   8.243 -0.0249  0.1712 -0.1437
  321YOPC   C1B 3983  17.334   2.077   9.498 -0.0388 -0.3567  0.0605
  321YOPC   C2B 3984  17.655   2.074   9.090 -0.0710 -0.1237  0.0703
  321YOPC   D3B 3985  17.667   1.703   8.898  0.1783 -0.1302 -0.0105
  321YOPC   C4B 3986  17.787   1.716   8.461  0.2223  0.2289 -0.1584
  322YOPC   NC3 3987   4.994  14.914  10.108  0.1215  0.1600 -0.0908
  322YOPC   PO4 3988   4.673  14.822   9.944  0.0241 -0.0563 -0.0373
  322YOPC   GL1 3989   4.719  14.770   9.527  0.3876 -0.0407 -0.1044
  322YOPC   GL2 3990   4.722  14.473   9.383 -0.0788  0.0624 -0.0163
  322YOPC   C1A 3991   4.889  14.832   9.093  0.2400 -0.2226  0.0854
  322YOPC   D2A 3992   5.058  14.546   8.760  0.0693 -0.1716  0.0502
  322YOPC   C3A 3993   4.844  14.219   8.619 -0.0206  0.1405 -0.1699
  322YOPC   C4A 3994   4.615  13.755   8.521 -0.2014  0.2514 -0.2042
  322YOPC   C1B 3995   4.856  14.257   9.101 -0.0297 -0.0122  0.1219
  322YOPC   C2B 3996   4.910  13.838   8.984  0.5238 -0.1414 -0.0275
  322YOPC   D3B 3997   5.155  13.793   8.630 -0.4683 -0.1915 -0.0724
  322YOPC   C4B 3998   5.604  13.654   8.632  0.1024 -0.0230  0.0717
  323YOPC   NC3 3999   3.365   5.021  11.162 -0.1389 -0.1143 -0.0488
  323YOPC   PO4 4000   3.009   5.073  10.930 -0.1381 -0.1466 -0.0926
  323YOPC   GL1 4001   3.021   5.190  10.551  0.1319 -0.0549 -0.0214
  323YOPC   GL2 4002   3.261   5.493  10.433 -0.2420  0.0709  0.1810
  323YOPC   C1A 4003   2.831   5.554  10.314 -0.1848  0.2134 -0.0482
  323YOPC   D2A 4004   2.766   5.966  10.071  0.0191 -0.3722 -0.3545
  323YOPC   C3A 4005   2.686   5.750   9.655  0.1524 -0.0465  0.2349
  323YOPC   C4A 4006   2.764   5.558   9.208 -0.3303  0.1359 -0.2926
  323YOPC   C1B 4007   3.271   5.776  10.123  0.0832 -0.1373  0.2249
  323YOPC   C2B 4008   3.170   6.047   9.810 -0.0145  0.3188 -0.0415
  323YOPC   D3B 4009   3.378   6.109   9.352 -0.4935  0.4478  0.2413
  323YOPC   C4B 4010   3.400   6.186   8.960 -0.1927  0.0887  0.0072
  324YOPC   NC3 4011   4.231   4.253  10.314 -0.1394  0.1441  0.2265
  324YOPC   PO4 4012   4.436   4.662  10.354  0.2506  0.0809 -0.0543
  324YOPC   GL1 4013   4.292   4.844  10.006  0.2183  0.0650  0.0967
  324YOPC   GL2 4014   4.271   5.127  10.126  0.1691  0.4153 -0.2271
  324YOPC   C1A 4015   4.059   4.800   9.633 -0.0410  0.0939  0.2169
  324YOPC   D2A 4016   4.113   4.753   9.157 -0.0345 -0.1564 -0.0093
  324YOPC   C3A 4017   3.816   4.941   8.922  0.0912  0.2222  0.0549
  324YOPC   C4A 4018   3.444   5.112   8.819  0.1464 -0.1165 -0.1981
  324YOPC   C1B 4019   4.313   5.246   9.715 -0.0752  0.1555  0.0019
  324YOPC   C2B 4020   4.238   5.566   9.460  0.1721 -0.0906  0.1798
  324YOPC   D3B 4021   4.268   5.695   9.036 -0.0677 -0.0079 -0.0670
  324YOPC   C4B 4022   4.115   6.085   8.680  0.1573 -0.0097  0.1392
  325YOPC   NC3 4023   1.647  12.202  10.478  0.0208 -0.2129  0.0483
  325YOPC   PO4 4024   1.386  12.064  10.130 -0.1189 -0.1121 -0.2586
  325YOPC   GL1 4025   1.320  11.844   9.761 -0.1789  0.1207 -0.2199
  325YOPC   GL2 4026   1.060  11.733   9.791 -0.0937 -0.0565 -0.2685
  325YOPC   C1A 4027   1.283  11.953   9.329  0.0364 -0.0988 -0.0486
  325YOPC   D2A 4028   1.172  11.855   8.998 -0.1274  0.1364 -0.0216
  325YOPC   C3A 4029   1.016  12.089   8.623 -0.1902  0.2051 -0.1785
  325YOPC   C4A 4030   1.308  12.296   8.279 -0.1940  0.0075 -0.1816
  325YOPC   C1B 4031   1.203  11.435   9.462 -0.0147  0.0601  0.0998
  325YOPC   C2B 4032   1.232  11.311   9.138 -0.1689 -0.2871 -0.0448
  325YOPC   D3B 4033   1.404  11.492   8.749 -0.1155 -0.1119 -0.1187
  325YOPC   C4B 4034   1.488  11.797   8.394 -0.1830 -0.0028 -0.4939
  326YOPC   NC3 4035   2.529  10.880  10.090  0.0487  0.0603 -0.0253
  326YOPC   PO4 4036   2.520  10.446  10.147 -0.2038  0.1671 -0.2801
  326YOPC   GL1 4037   2.264  10.501   9.862  0.1578 -0.1248  0.0905
  326YOPC   GL2 4038   2.059  10.312   9.836  0.1475  0.1114 -0.0028
  326YOPC   C1A 4039   2.345  10.439   9.466 -0.2692  0.0885 -0.1678
  326YOPC   D2A 4040   2.347  10.269   9.048 -0.4461 -0.3203  0.0312
  326YOPC   C3A 4041   2.663  10.396   8.665 -0.0865  0.1044 -0.0987
  326YOPC   C4A 4042   2.774  10.443   8.166 -0.0706  0.0595  0.4389
  326YOPC   C1B 4043   2.070   9.996   9.514  0.0222  0.0230 -0.0151
  326YOPC   C2B 4044   1.904   9.968   9.128  0.0465 -0.2353  0.1859
  326YOPC   D3B 4045   2.142   9.983   8.722  0.1585 -0.3007  0.2677
  326YOPC   C4B 4046   2.087   9.693   8.378 -0.0002 -0.1756 -0.3866
  327YOPC   NC3 4047  12.175   2.670  10.599 -0.1428 -0.0931 -0.0209
  327YOPC   PO4 4048  12.052   2.285  10.369 -0.0966 -0.0460 -0.1423
  327YOPC   GL1 4049  11.897   2.213  10.050 -0.3372  0.1958  0.0903
  327YOPC   GL2 4050  12.005   2.427   9.680 -0.1297  0.0590  0.0258
  327YOPC   C1A 4051  11.818   1.811   9.770  0.1274  0.1802  0.2035
  327YOPC   D2A 4052  11.995   1.419   9.594 -0.1274  0.2989 -0.0999
  327YOPC   C3A 4053  11.966   1.046   9.926 -0.1804  0.2567  0.0266
  327YOPC   C4A 4054  11.958   0.631  10.075  0.0315 -0.2737 -0.0219
  327YOPC   C1B 4055  11.991   2.154   9.418 -0.0955 -0.1043  0.0572
  327YOPC   C2B 4056  11.860   1.785   9.205 -0.1776  0.3944 -0.1574
  327YOPC   D3B 4057  12.123   1.758   8.804  0.1788 -0.1723 -0.0819
  327YOPC   C4B 4058  12.422   1.772   8.525  0.0420  0.1578  0.1117
  328YOPC   NC3 4059   9.391  16.937  10.751 -0.1855 -0.1753  0.1011
  328YOPC   PO4 4060   9.238  17.255  10.550 -0.2809  0.1170  0.1147
  328YOPC   GL1 4061   9.258  16.969  10.216  0.1870  0.0498 -0.0732
  328YOPC   GL2 4062   9.013  17.128  10.134  0.2259 -0.0927  0.0056
  328YOPC   C1A 4063   9.369  16.803   9.818 -0.0988  0.6401 -0.2051
  328YOPC   D2A 4064   9.605  16.646   9.415  0.0759  0.1043 -0.3095
  328YOPC   C3A 4065   9.576  16.702   8.993  0.0955  0.0293  0.1855
  328YOPC   C4A 4066   9.819  16.677   8.595  0.0036  0.0256 -0.2014
  328YOPC   C1B 4067   8.835  16.694  10.004 -0.0575  0.1787 -0.1626
  328YOPC   C2B 4068   8.678  16.455   9.651 -0.1331 -0.0631  0.2074
  328YOPC   D3B 4069   8.744  16.451   9.250 -0.0691 -0.2438 -0.0963
  328YOPC   C4B 4070   8.805  16.537   8.784 -0.0416  0.0711 -0.0648
  329YOPC   NC3 4071   2.906   1.975  10.018 -0.0483 -0.0180 -0.1708
  329YOPC   PO4 4072   2.746   1.578  10.158  0.1613  0.1779  0.1019
  329YOPC   GL1 4073   2.634   1.655   9.737  0.2061 -0.0990  0.2312
  329YOPC   GL2 4074   2.294   1.764   9.638 -0.0042  0.1450 -0.2443
  329YOPC   C1A 4075   2.750   1.801   9.321 -0.0657 -0.2698  0.0924
  329YOPC   D2A 4076   2.872   1.741   8.884 -0.2274  0.2080  0.0626
  329YOPC   C3A 4077   3.090   2.012   8.724  0.1618  0.0921 -0.1628
  329YOPC   C4A 4078   3.224   2.393   8.490 -0.1835  0.2305  0.1907
  329YOPC   C1B 4079   2.227   1.781   9.176 -0.0449 -0.0636 -0.0290
  329YOPC   C2B 4080   2.340   2.054   8.796  0.1511 -0.0539  0.0496
  329YOPC   D3B 4081   2.180   1.763   8.453 -0.2385  0.2415  0.0227
  329YOPC   C4B 4082   2.309   1.880   8.024  0.1627  0.0838 -0.1950
  330YOPC   NC3 4083  11.200   3.415  10.336  0.2538  0.0208 -0.0188
  330YOPC   PO4 4084  11.545   3.267  10.302  0.0957  0.0508 -0.0613
  330YOPC   GL1 4085  11.687   3.352   9.832  0.1822 -0.1336  0.0670
  330YOPC   GL2 4086  11.301   3.333   9.789 -0.1690  0.1955 -0.0870
  330YOPC   C1A 4087  11.678   3.383   9.393 -0.1116 -0.3257  0.1175
  330YOPC   D2A 4088  11.583   3.230   9.014  0.1833  0.0647 -0.1892
  330YOPC   C3A 4089  11.432   3.381   8.597 -0.1647 -0.1486 -0.0798
  330YOPC   C4A 4090  11.396   3.302   8.163  0.1012 -0.1624 -0.1870
  330YOPC   C1B 4091  11.191   3.205   9.362 -0.0791 -0.0154  0.1595
  330YOPC   C2B 4092  11.083   3.261   9.014 -0.2731  0.0771 -0.1438
  330YOPC   D3B 4093  11.064   3.032   8.652 -0.0140  0.1599 -0.0604
  330YOPC   C4B 4094  10.666   2.895   8.488 -0.0011 -0.0387 -0.0600
  331YOPC   NC3 4095  13.956  10.976  11.400  0.3638 -0.1443  0.0404
  331YOPC   PO4 4096  13.524  10.980  11.073 -0.2590  0.1660 -0.0635
  331YOPC   GL1 4097  13.487  11.229  10.646  0.0926  0.1218  0.2592
  331YOPC   GL2 4098  13.157  11.014  10.555 -0.0389 -0.3542  0.0677
  331YOPC   C1A 4099  13.564  11.422  10.251 -0.0520 -0.0798  0.0669
  331YOPC   D2A 4100  13.853  11.312   9.905 -0.1944  0.1342  0.1825
  331YOPC   C3A 4101  13.940  11.486   9.522 -0.1037  0.0488 -0.2878
  331YOPC   C4A 4102  14.207  11.603   9.055 -0.0904  0.0195 -0.0801
  331YOPC   C1B 4103  13.324  10.708  10.324  0.2154 -0.0452  0.0856
  331YOPC   C2B 4104  13.162  10.508   9.934 -0.0606  0.2680 -0.3307
  331YOPC   D3B 4105  13.240  10.640   9.583  0.0390  0.1684  0.2929
  331YOPC   C4B 4106  13.299  10.938   9.217 -0.1008 -0.2745 -0.1777
  332YOPC   NC3 4107   7.477   8.092  10.578 -0.1178  0.0929  0.2052
  332YOPC   PO4 4108   7.859   8.307  10.768 -0.2112 -0.1706  0.5427
  332YOPC   GL1 4109   7.848   8.200  10.229  0.2197  0.1427 -0.2863
  332YOPC   GL2 4110   7.788   8.519  10.265  0.1868  0.0704 -0.1132
  332YOPC   C1A 4111   8.006   8.033   9.815 -0.0190 -0.2425  0.1540
  332YOPC   D2A 4112   8.138   7.943   9.396 -0.0516 -0.0675 -0.0824
  332YOPC   C3A 4113   7.966   7.725   9.109  0.1651  0.1706 -0.1856
  332YOPC   C4A 4114   7.801   7.710   8.715 -0.1757  0.1474 -0.0265
  332YOPC   C1B 4115   7.853   8.498   9.841  0.4018 -0.1105 -0.0245
  332YOPC   C2B 4116   8.128   8.420   9.529 -0.1418 -0.0905 -0.1474
  332YOPC   D3B 4117   8.068   8.387   9.084 -0.0261 -0.1842 -0.1395
  332YOPC   C4B 4118   7.874   8.611   8.703 -0.1520 -0.0038 -0.0806
  333YOPC   NC3 4119  10.221   1.853  10.441  0.0644  0.0231 -0.0726
  333YOPC   PO4 4120   9.925   1.939  10.371  0.2005 -0.2711 -0.4521
  333YOPC   GL1 4121   9.912   2.036  10.047  0.1028  0.1520  0.1277
  333YOPC   GL2 4122  10.249   1.966   9.948 -0.1580 -0.1224 -0.0079
  333YOPC   C1A 4123   9.841   2.103   9.582  0.1158  0.2015  0.0858
  333YOPC   D2A 4124   9.978   2.002   9.192  0.0441 -0.2820  0.2475
  333YOPC   C3A 4125  10.096   1.630   8.933  0.0312 -0.2515 -0.0133
  333YOPC   C4A 4126  10.552   1.670   8.736 -0.0753  0.1471  0.1402
  333YOPC   C1B 4127  10.428   2.015   9.557 -0.0422 -0.0794  0.0671
  333YOPC   C2B 4128  10.519   2.048   9.193 -0.1077  0.1108  0.2375
  333YOPC   D3B 4129  10.784   2.301   9.111 -0.0272 -0.0072  0.0821
  333YOPC   C4B 4130  10.866   2.546   8.718  0.0737  0.5843  0.0735
  334YOPC   NC3 4131  15.913   8.279  11.010 -0.0925 -0.0654  0.0387
  334YOPC   PO4 4132  15.761   8.569  10.701  0.0477 -0.3864 -0.1835
  334YOPC   GL1 4133  15.778   8.611  10.306 -0.0243  0.0279  0.1554
  334YOPC   GL2 4134  15.584   8.464  10.173  0.3713  0.0739  0.0204
  334YOPC   C1A 4135  15.915   8.827   9.871  0.0847  0.2990 -0.2086
  334YOPC   D2A 4136  16.070   8.666   9.466 -0.1848  0.0785 -0.0147
  334YOPC   C3A 4137  16.161   8.768   9.060 -0.1180  0.2377  0.0833
  334YOPC   C4A 4138  16.354   8.715   8.646 -0.0221 -0.4674  0.0162
  334YOPC   C1B 4139  15.710   8.391   9.776  0.3981 -0.0795  0.1493
  334YOPC   C2B 4140  15.586   8.251   9.409  0.0965  0.0181  0.0531
  334YOPC   D3B 4141  15.551   8.510   9.073 -0.1449  0.2820 -0.0991
  334YOPC   C4B 4142  15.744   8.716   8.772 -0.0555 -0.0725  0.0063
  335YOPC   NC3 4143  17.958  12.230  10.189  0.0747  0.0267 -0.1585
  335YOPC   PO4 4144  18.256  11.853  10.267 -0.0636  0.3975 -0.1638
  335YOPC   GL1 4145  18.172  11.640   9.911  0.1742 -0.1146  0.2140
  335YOPC   GL2 4146  18.028  11.909   9.795  0.2436 -0.2071 -0.1407
  335YOPC   C1A 4147  18.004  11.477   9.530 -0.2522  0.1199  0.2229
  335YOPC   D2A 4148  17.782  11.238   9.301 -0.0976 -0.0719 -0.2670
  335YOPC   C3A 4149  17.888  11.237   8.848  0.1643  0.1028  0.0417
  335YOPC   C4A 4150  17.979  11.143   8.455 -0.0653  0.1390  0.4030
  335YOPC   C1B 4151  18.227  11.977   9.399 -0.0763 -0.2597  0.0789
  335YOPC   C2B 4152  18.298  11.694   9.124  0.0679  0.1184  0.0534
  335YOPC   D3B 4153  18.520  11.864   8.706  0.0063  0.2252  0.0176
  335YOPC   C4B 4154  18.537  11.918   8.343  0.0657 -0.3012 -0.3575
  336YOPC   NC3 4155   8.782   3.447  10.413  0.0339 -0.2643 -0.0715
  336YOPC   PO4 4156   9.204   3.583  10.183  0.0742  0.1063 -0.1525
  336YOPC   GL1 4157   9.163   3.389   9.765  0.1328 -0.0449 -0.1565
  336YOPC   GL2 4158   8.874   3.514   9.579  0.1766  0.0315 -0.0377
  336YOPC   C1A 4159   9.333   3.064   9.409  0.1222 -0.2329 -0.0145
  336YOPC   D2A 4160   9.600   2.998   9.074  0.1895 -0.2476  0.1228
  336YOPC   C3A 4161   9.629   3.061   8.557  0.0701 -0.2647 -0.1373
  336YOPC   C4A 4162   9.495   2.932   8.274  0.0029  0.1401 -0.1425
  336YOPC   C1B 4163   8.863   3.195   9.332 -0.3753  0.2237 -0.1979
  336YOPC   C2B 4164   8.992   2.972   9.041 -0.0794  0.1451  0.0271
  336YOPC   D3B 4165   9.068   3.122   8.635 -0.0726  0.4226  0.1447
  336YOPC   C4B 4166   8.945   3.283   8.313 -0.1132 -0.0412  0.3902
  337YOPC   NC3 4167  14.890  12.546  11.246 -0.0790 -0.0764 -0.2858
  337YOPC   PO4 4168  15.335  12.346  11.122  0.3241 -0.3699  0.1756
  337YOPC   GL1 4169  15.172  12.274  10.683 -0.1127  0.1115  0.5187
  337YOPC   GL2 4170  14.911  12.483  10.581  0.1888 -0.1182 -0.3154
  337YOPC   C1A 4171  15.038  12.251  10.163 -0.2389 -0.0072  0.0633
  337YOPC   D2A 4172  15.004  12.196   9.684  0.1901 -0.2247  0.1205
  337YOPC   C3A 4173  14.780  12.107   9.340  0.0452  0.1155  0.1932
  337YOPC   C4A 4174  14.642  11.906   9.009  0.1247 -0.1696 -0.0745
  337YOPC   C1B 4175  14.731  12.659  10.251 -0.0277 -0.1863  0.0241
  337YOPC   C2B 4176  14.854  12.949  10.025 -0.0208 -0.1689 -0.2981
  337YOPC   D3B 4177  14.710  12.964   9.623 -0.1222 -0.2688 -0.1891
  337YOPC   C4B 4178  14.547  12.874   9.232  0.0253  0.0591 -0.1447
  338YOPC   NC3 4179   5.297   6.442  10.859  0.0930 -0.0981 -0.0289
  338YOPC   PO4 4180   5.009   6.766  10.562 -0.0670 -0.0974 -0.2808
  338YOPC   GL1 4181   4.904   7.063  10.239 -0.1904  0.0278  0.0978
  338YOPC   GL2 4182   4.774   7.322  10.275  0.1079  0.0417 -0.1406
  338YOPC   C1A 4183   4.629   7.004   9.904 -0.1616  0.0895 -0.0383
  338YOPC   D2A 4184   4.461   7.230   9.540 -0.2954  0.1976 -0.2048
  338YOPC   C3A 4185   4.540   7.010   9.222  0.2117 -0.1666 -0.1701
  338YOPC   C4A 4186   4.598   6.529   9.046 -0.0358  0.0286 -0.1319
  338YOPC   C1B 4187   4.831   7.472   9.889  0.0811 -0.2930  0.0425
  338YOPC   C2B 4188   4.959   7.630   9.525 -0.1066 -0.3590 -0.0370
  338YOPC   D3B 4189   4.763   7.460   9.206  0.1524 -0.2140 -0.1974
  338YOPC   C4B 4190   4.452   7.290   8.828 -0.0200  0.0121 -0.1297
  339YOPC   NC3 4191  12.383  15.754  11.023 -0.2021 -0.2971 -0.0768
  339YOPC   PO4 4192  12.367  16.117  10.769 -0.2263 -0.0712  0.0517
  339YOPC   GL1 4193  12.223  16.295  10.354 -0.0028 -0.0196 -0.1447
  339YOPC   GL2 4194  11.957  16.446  10.278 -0.3758 -0.2407 -0.3036
  339YOPC   C1A 4195  12.151  16.146   9.976  0.1137  0.1667 -0.2567
  339YOPC   D2A 4196  12.198  16.068   9.477  0.0590 -0.2252  0.1367
  339YOPC   C3A 4197  11.830  16.027   9.197 -0.3051  0.4441 -0.0524
  339YOPC   C4A 4198  11.482  15.907   9.041  0.0719 -0.0119  0.2771
  339YOPC   C1B 4199  11.728  16.183  10.139  0.0812 -0.2413  0.1035
  339YOPC   C2B 4200  11.747  15.948   9.881  0.0956  0.0745 -0.2335
  339YOPC   D3B 4201  11.477  16.060   9.589 -0.2161 -0.0178 -0.0064
  339YOPC   C4B 4202  11.471  16.421   9.312 -0.0883 -0.3910  0.1569
  340YOPC   NC3 4203  17.454   8.958  10.169  0.0988 -0.0667 -0.1279
  340YOPC   PO4 4204  17.283   8.504  10.209 -0.1018  0.1268  0.2797
  340YOPC   GL1 4205  17.050   8.564   9.803 -0.1853 -0.0529 -0.0261
  340YOPC   GL2 4206  16.991   8.834   9.874  0.1348 -0.0796 -0.1265
  340YOPC   C1A 4207  16.946   8.528   9.271 -0.1296  0.1258  0.0654
  340YOPC   D2A 4208  16.704   8.726   9.000  0.0589 -0.0826 -0.0257
  340YOPC   C3A 4209  16.918   8.849   8.574 -0.2427 -0.0300 -0.0429
  340YOPC   C4A 4210  16.979   8.752   8.146 -0.0543  0.0950 -0.1837
  340YOPC   C1B 4211  17.257   8.885   9.489  0.3602 -0.2571  0.0771
  340YOPC   C2B 4212  17.417   9.230   9.331 -0.2010 -0.2572 -0.0757
  340YOPC   D3B 4213  17.643   9.232   8.928  0.3658  0.0930 -0.1569
  340YOPC   C4B 4214  17.800   9.401   8.611 -0.2649 -0.0054  0.0575
  341YOPC   NC3 4215  17.846  15.101  10.156 -0.0307 -0.0524 -0.2616
  341YOPC   PO4 4216  17.997  14.599  10.140 -0.3079 -0.2805  0.0961
  341YOPC   GL1 4217  17.933  14.714   9.696  0.2031  0.4626  0.0164
  341YOPC   GL2 4218  18.275  14.775   9.592 -0.0576 -0.0407 -0.0084
  341YOPC   C1A 4219  17.926  14.577   9.255  0.0667 -0.1580  0.3293
  341YOPC   D2A 4220  17.995  14.469   8.907  0.1255 -0.0511 -0.3039
  341YOPC   C3A 4221  18.209  14.264   8.619  0.0943 -0.3354 -0.0266
  341YOPC   C4A 4222  18.202  13.815   8.604 -0.0019  0.3783  0.1340
  341YOPC   C1B 4223  18.537  14.686   9.280 -0.1645 -0.1177 -0.2093
  341YOPC   C2B 4224  18.483  14.555   8.949  0.0854  0.0353  0.6145
  341YOPC   D3B 4225  18.700  14.583   8.569  0.1371  0.3351 -0.1405
  341YOPC   C4B 4226  18.983  14.535   8.180  0.0702 -0.0962  0.1180
  342YOPC   NC3 4227   4.481  16.776  10.150 -0.0199 -0.0071 -0.3025
  342YOPC   PO4 4228   4.781  17.038   9.965  0.3084 -0.1377  0.2776
  342YOPC   GL1 4229   4.837  16.926   9.583 -0.2637  0.6129  0.0408
  342YOPC   GL2 4230   4.877  17.240   9.426 -0.1261 -0.0098 -0.1726
  342YOPC   C1A 4231   4.487  16.877   9.271  0.1647 -0.1619 -0.2208
  342YOPC   D2A 4232   4.480  16.961   8.817 -0.0176 -0.0702  0.2774
  342YOPC   C3A 4233   4.582  16.778   8.446 -0.5353 -0.2280  0.1116
  342YOPC   C4A 4234   4.532  16.521   8.249  0.0663  0.2473 -0.3013
  342YOPC   C1B 4235   4.898  17.099   9.075 -0.1212  0.0215 -0.2250
  342YOPC   C2B 4236   5.033  17.068   8.664  0.3761 -0.1940 -0.2283
  342YOPC   D3B 4237   4.951  17.180   8.283 -0.0240 -0.2409  0.0874
  342YOPC   C4B 4238   4.800  17.491   8.081  0.2760  0.0341 -0.2490
  343YOPC   NC3 4239  11.113   5.366  10.362 -0.2122  0.1900 -0.1468
  343YOPC   PO4 4240  11.098   4.893  10.308 -0.3825  0.1573 -0.0101
  343YOPC   GL1 4241  10.846   5.064  10.003  0.3652  0.2490 -0.2749
  343YOPC   GL2 4242  10.604   5.366   9.877 -0.1576 -0.1921  0.2693
  343YOPC   C1A 4243  11.021   5.076   9.561 -0.0654 -0.2171  0.1682
  343YOPC   D2A 4244  11.216   5.106   9.200 -0.0004 -0.0261 -0.1737
  343YOPC   C3A 4245  11.203   4.824   8.851 -0.1112 -0.0622 -0.1012
  343YOPC   C4A 4246  11.037   4.718   8.428  0.4309 -0.0315  0.2017
  343YOPC   C1B 4247  10.860   5.498   9.670 -0.0059 -0.1158 -0.4831
  343YOPC   C2B 4248  10.935   5.937   9.477 -0.0129 -0.0679  0.0957
  343YOPC   D3B 4249  11.014   5.943   9.125  0.0264 -0.4206  0.1632
  343YOPC   C4B 4250  11.187   6.045   8.744  0.0425 -0.1543  0.0486
  344YOPC   NC3 4251   2.033  14.821  10.151  0.0883  0.1514  0.0753
  344YOPC   PO4 4252   2.294  14.922   9.854 -0.0989 -0.0368  0.0239
  344YOPC   GL1 4253   2.252  15.200   9.544 -0.0734  0.1108  0.3719
  344YOPC   GL2 4254   2.521  15.483   9.519 -0.0083 -0.1307  0.1052
  344YOPC   C1A 4255   2.131  15.299   9.187 -0.0303  0.2319  0.0502
  344YOPC   D2A 4256   2.096  15.448   8.738 -0.3514  0.5178  0.0952
  344YOPC   C3A 4257   1.927  15.631   8.344 -0.1332 -0.1309 -0.0565
  344YOPC   C4A 4258   1.742  15.809   7.967 -0.5585 -0.2871  0.0826
  344YOPC   C1B 4259   2.580  15.527   9.017 -0.0347 -0.1414 -0.5456
  344YOPC   C2B 4260   2.539  15.642   8.586  0.0821 -0.0322  0.0643
  344YOPC   D3B 4261   2.384  15.430   8.202  0.0258  0.0872  0.0928
  344YOPC   C4B 4262   2.014  15.331   7.975  0.1829  0.0765  0.1005
  345YOPC   NC3 4263  13.969   0.918  10.794  0.0522 -0.0758  0.1171
  345YOPC   PO4 4264  13.644   1.045  10.431 -0.2949  0.0346 -0.0162
  345YOPC   GL1 4265  13.542   0.835  10.100 -0.1192  0.1330 -0.2514
  345YOPC   GL2 4266  13.309   0.658  10.326  0.1299  0.2242  0.2048
  345YOPC   C1A 4267  13.475   0.902   9.669  0.0516 -0.2992 -0.1222
  345YOPC   D2A 4268  13.586   0.626   9.392  0.0432  0.1121  0.3533
  345YOPC   C3A 4269  13.357   0.697   9.026  0.0773 -0.0053 -0.1986
  345YOPC   C4A 4270  13.283   0.397   8.728 -0.0433 -0.3497 -0.1612
  345YOPC   C1B 4271  13.321   0.363   9.960 -0.2160 -0.2173  0.0656
  345YOPC   C2B 4272  13.543   0.163   9.542  0.0782  0.2604  0.0437
  345YOPC   D3B 4273  13.565   0.186   9.077  0.0970 -0.1154 -0.1464
  345YOPC   C4B 4274  13.825  -0.026   8.689 -0.0023  0.0224 -0.0214
  346YOPC   NC3 4275  16.577   1.384  10.354 -0.4276  0.0146 -0.0493
  346YOPC   PO4 4276  16.918   1.634  10.214  0.1583 -0.0545  0.1209
  346YOPC   GL1 4277  16.984   1.897   9.927  0.0113 -0.0903  0.0733
  346YOPC   GL2 4278  16.889   1.808   9.578 -0.1460  0.0519  0.1850
  346YOPC   C1A 4279  16.662   2.184   9.781  0.0449  0.1886  0.0645
  346YOPC   D2A 4280  16.227   2.412   9.688  0.4275  0.0122  0.1349
  346YOPC   C3A 4281  16.007   2.269   9.340 -0.0621 -0.1182  0.2791
  346YOPC   C4A 4282  15.899   2.214   8.964  0.0895  0.2783 -0.0437
  346YOPC   C1B 4283  16.826   1.927   9.155  0.1588 -0.2377  0.1135
  346YOPC   C2B 4284  16.718   2.013   8.762 -0.1941  0.0714  0.0947
  346YOPC   D3B 4285  16.928   2.300   8.513 -0.0424 -0.2219  0.0081
  346YOPC   C4B 4286  17.192   2.475   8.187 -0.2155 -0.2320 -0.0224
  347YOPC   NC3 4287  17.003  13.903  10.430  0.1784  0.2358 -0.4312
  347YOPC   PO4 4288  16.999  13.445  10.352  0.0959 -0.1175  0.3313
  347YOPC   GL1 4289  16.788  13.505   9.959 -0.0756 -0.3983  0.4182
  347YOPC   GL2 4290  16.686  13.813  10.038  0.0222  0.1945  0.0924
  347YOPC   C1A 4291  16.492  13.598   9.644 -0.0128 -0.1263 -0.2223
  347YOPC   D2A 4292  16.227  13.487   9.260  0.0600 -0.2168  0.2870
  347YOPC   C3A 4293  16.237  13.092   9.160  0.1746  0.1397 -0.0763
  347YOPC   C4A 4294  15.892  12.790   9.030 -0.2435  0.1388  0.0069
  347YOPC   C1B 4295  16.691  14.107   9.765 -0.3017 -0.1712 -0.0793
  347YOPC   C2B 4296  16.813  14.369   9.457  0.2586 -0.2604  0.3157
  347YOPC   D3B 4297  16.584  14.453   9.051  0.0187 -0.0643 -0.1245
  347YOPC   C4B 4298  16.519  14.735   8.784 -0.1959 -0.0264  0.0997
  348YOPC   NC3 4299   6.118  12.852  10.574 -0.0886  0.2417  0.0498
  348YOPC   PO4 4300   6.424  12.534  10.616  0.1269  0.2600  0.3227
  348YOPC   GL1 4301   6.352  12.647  10.174  0.1121 -0.0535  0.0686
  348YOPC   GL2 4302   6.618  12.768  10.168  0.2106  0.1820 -0.1467
  348YOPC   C1A 4303   6.210  12.669   9.761 -0.0393  0.0260  0.0417
  348YOPC   D2A 4304   6.149  12.398   9.500 -0.1608  0.2531 -0.1393
  348YOPC   C3A 4305   6.165  12.384   8.994 -0.2091 -0.0142 -0.1495
  348YOPC   C4A 4306   6.464  12.245   8.785 -0.0429  0.2127  0.2844
  348YOPC   C1B 4307   6.540  13.019   9.779  0.1420 -0.0010 -0.1518
  348YOPC   C2B 4308   6.412  13.157   9.421 -0.1759  0.3950  0.4369
  348YOPC   D3B 4309   6.297  13.384   9.034  0.1260 -0.0222 -0.1267
  348YOPC   C4B 4310   6.168  13.482   8.628  0.1567 -0.0857  0.1620
  349YOPC   NC3 4311  12.708  12.168  10.973 -0.0286 -0.0002 -0.1657
  349YOPC   PO4 4312  12.776  11.803  11.115  0.1043  0.1858  0.1665
  349YOPC   GL1 4313  12.806  11.784  10.629  0.1417 -0.2679  0.0254
  349YOPC   GL2 4314  12.811  12.017  10.455  0.0315 -0.0842  0.0262
  349YOPC   C1A 4315  13.160  11.570  10.422 -0.0161 -0.1397 -0.1186
  349YOPC   D2A 4316  13.509  11.729  10.646  0.1072 -0.5189  0.2940
  349YOPC   C3A 4317  13.926  11.470  10.580  0.3472  0.0791 -0.0569
  349YOPC   C4A 4318  14.031  11.140  10.361 -0.0916  0.1429 -0.1404
  349YOPC   C1B 4319  12.810  11.763  10.120 -0.1460  0.0845  0.0280
  349YOPC   C2B 4320  13.217  11.592   9.905 -0.1765  0.0043 -0.0228
  349YOPC   D3B 4321  13.319  11.389   9.537 -0.1152 -0.1606 -0.0306
  349YOPC   C4B 4322  13.593  11.353   9.126  0.0906 -0.0900  0.4066
  350YOPC   NC3 4323  16.212  13.830  10.980  0.1080  0.0164  0.2634
  350YOPC   PO4 4324  16.024  13.940  10.691 -0.0084 -0.0111  0.3623
  350YOPC   GL1 4325  15.883  14.230  10.338  0.1783  0.0617 -0.2354
  350YOPC   GL2 4326  15.595  14.055  10.201  0.0428  0.1033  0.0867
  350YOPC   C1A 4327  15.901  14.396   9.970  0.1135 -0.2211  0.0342
  350YOPC   D2A 4328  16.269  14.345   9.708 -0.1184  0.0781 -0.1068
  350YOPC   C3A 4329  16.313  14.062   9.321  0.0087  0.0847  0.0449
  350YOPC   C4A 4330  16.651  13.807   9.220  0.0398  0.0029 -0.0633
  350YOPC   C1B 4331  15.440  14.146   9.757 -0.0718  0.0245  0.0276
  350YOPC   C2B 4332  15.417  14.067   9.335 -0.1510 -0.1066 -0.0282
  350YOPC   D3B 4333  15.827  13.867   9.113  0.0363  0.2455  0.0224
  350YOPC   C4B 4334  15.898  13.846   8.601 -0.0842  0.0562  0.1504
  351YOPC   NC3 4335   0.390   0.305  10.013  0.1680 -0.0529 -0.2064
  351YOPC   PO4 4336   0.261   0.693   9.801  0.1897  0.1785  0.2052
  351YOPC   GL1 4337   0.245   0.810   9.436  0.0927 -0.2263  0.1554
  351YOPC   GL2 4338   0.486   1.013   9.335 -0.0613 -0.0290 -0.2736
  351YOPC   C1A 4339   0.061   0.802   9.057  0.2296  0.1850 -0.3111
  351YOPC   D2A 4340   0.300   0.872   8.703  0.0410  0.0420  0.0319
  351YOPC   C3A 4341   0.330   0.667   8.302 -0.0995 -0.0767  0.3767
  351YOPC   C4A 4342   0.233   0.606   7.803  0.0819 -0.0015 -0.2950
  351YOPC   C1B 4343   0.504   0.490   9.103 -0.0680 -0.1675 -0.1559
  351YOPC   C2B 4344   0.525   0.421   8.691 -0.0049  0.1759  0.2660
  351YOPC   D3B 4345   0.370   0.149   8.384  0.1339 -0.1288 -0.2431
  351YOPC   C4B 4346   0.481   0.096   7.894  0.2438 -0.1692  0.0112
  352YOPC   NC3 4347   8.281   0.247  10.548  0.2349 -0.2385  0.0197
  352YOPC   PO4 4348   8.474   0.303  10.168 -0.1533 -0.0564 -0.0031
  352YOPC   GL1 4349   8.717   0.524   9.786 -0.1598 -0.0924 -0.0521
  352YOPC   GL2 4350   8.951   0.817   9.692  0.0778 -0.2300 -0.0311
  352YOPC   C1A 4351   8.749   0.549   9.301  0.3150  0.0361 -0.0977
  352YOPC   D2A 4352   8.661   0.424   8.892  0.0380  0.0042 -0.0316
  352YOPC   C3A 4353   8.602   0.586   8.448 -0.1975  0.0840 -0.2435
  352YOPC   C4A 4354   8.583   0.947   8.269 -0.0375 -0.2824  0.0721
  352YOPC   C1B 4355   8.857   1.076   9.392  0.1401 -0.0325  0.1483
  352YOPC   C2B 4356   8.829   0.994   8.952  0.0310  0.0154 -0.0429
  352YOPC   D3B 4357   8.557   1.199   8.742  0.1472 -0.0815  0.3271
  352YOPC   C4B 4358   8.257   1.290   8.471 -0.1279  0.0694 -0.1292
  353YOPC   NC3 4359  10.554   2.843  10.295  0.2367  0.0521 -0.0039
  353YOPC   PO4 4360  10.513   2.333  10.421  0.0842 -0.1282  0.0930
  353YOPC   GL1 4361  10.548   2.415   9.990 -0.2437 -0.0463  0.0983
  353YOPC   GL2 4362  10.832   2.560  10.037 -0.0694  0.0743 -0.1390
  353YOPC   C1A 4363  10.832   2.340   9.566 -0.0629  0.1218 -0.1675
  353YOPC   D2A 4364  10.944   1.956   9.454  0.1335 -0.0387  0.0084
  353YOPC   C3A 4365  10.965   1.695   9.067 -0.1197 -0.1549 -0.1566
  353YOPC   C4A 4366  11.015   1.851   8.645 -0.0481  0.1357  0.2198
  353YOPC   C1B 4367  10.900   2.832   9.690  0.0849 -0.1303  0.0287
  353YOPC   C2B 4368  10.896   2.810   9.254 -0.1045 -0.3194 -0.0072
  353YOPC   D3B 4369  11.276   2.782   9.044 -0.3121  0.0635 -0.0622
  353YOPC   C4B 4370  11.574   2.841   8.714 -0.1932 -0.0725 -0.0712
  354YOPC   NC3 4371  12.136   4.283  10.823 -0.0073  0.2875 -0.0920
  354YOPC   PO4 4372  11.781   4.065  10.514 -0.1151  0.2056  0.0521
  354YOPC   GL1 4373  11.727   4.080  10.114  0.1802 -0.0216 -0.2405
  354YOPC   GL2 4374  11.609   3.828  10.036  0.2181  0.3699 -0.1051
  354YOPC   C1A 4375  11.669   4.229   9.743  0.2647  0.0935 -0.0695
  354YOPC   D2A 4376  11.715   4.676   9.816  0.1629  0.0918  0.1175
  354YOPC   C3A 4377  11.877   4.735   9.459 -0.3707  0.0581 -0.1976
  354YOPC   C4A 4378  12.050   4.695   9.122 -0.1028 -0.0939  0.0519
  354YOPC   C1B 4379  11.399   3.794   9.663 -0.2279 -0.0972 -0.0003
  354YOPC   C2B 4380  11.378   3.650   9.193 -0.1054 -0.4092  0.1820
  354YOPC   D3B 4381  11.365   3.800   8.826  0.3064 -0.3101  0.1218
  354YOPC   C4B 4382  11.436   3.889   8.369  0.0715  0.1191 -0.1483
  355YOPC   NC3 4383  14.555  15.569  11.714 -0.1746 -0.1272 -0.0458
  355YOPC   PO4 4384  14.551  15.571  11.294 -0.0728  0.2847 -0.0396
  355YOPC   GL1 4385  14.535  15.548  10.827 -0.0244 -0.0071  0.1671
  355YOPC   GL2 4386  14.765  15.651  10.628 -0.1890 -0.4590 -0.2720
  355YOPC   C1A 4387  14.743  15.323  10.315  0.0407  0.0857 -0.0834
  355YOPC   D2A 4388  14.613  15.257   9.909  0.0187 -0.0439 -0.2987
  355YOPC   C3A 4389  14.643  15.394   9.502  0.2189 -0.0757 -0.0276
  355YOPC   C4A 4390  14.622  15.551   9.155 -0.1812  0.0884 -0.1145
  355YOPC   C1B 4391  14.410  15.775  10.339  0.2963  0.1104 -0.0949
  355YOPC   C2B 4392  14.213  15.387  10.130  0.0912  0.2348 -0.0021
  355YOPC   D3B 4393  13.836  15.311  10.190 -0.1761  0.1123 -0.1314
  355YOPC   C4B 4394  13.400  15.371  10.110  0.0132 -0.1281 -0.0872
  356YOPC   NC3 4395   2.248   6.879  10.720  0.0464  0.0702 -0.1384
  356YOPC   PO4 4396   2.640   6.780  10.731  0.1648 -0.0255 -0.1317
  356YOPC   GL1 4397   2.561   6.918  10.294 -0.0977  0.4180 -0.1395
  356YOPC   GL2 4398   2.736   7.165  10.231 -0.0425  0.0364  0.3868
  356YOPC   C1A 4399   2.357   6.869   9.897 -0.0238  0.0744 -0.0180
  356YOPC   D2A 4400   2.038   6.798   9.713  0.1303 -0.0949 -0.0372
  356YOPC   C3A 4401   2.209   6.796   9.385 -0.1713 -0.1840 -0.2059
  356YOPC   C4A 4402   2.312   6.911   8.949  0.0595 -0.0928 -0.1715
  356YOPC   C1B 4403   2.867   6.914   9.892  0.0259 -0.2425 -0.3361
  356YOPC   C2B 4404   2.685   6.767   9.498  0.4794 -0.2611 -0.0821
  356YOPC   D3B 4405   2.800   6.775   9.101  0.1922  0.0803 -0.1184
  356YOPC   C4B 4406   2.834   6.776   8.676  0.1475 -0.0997  0.0694
  357YOPC   NC3 4407   6.018   1.467   9.946  0.3479  0.0711 -0.1553
  357YOPC   PO4 4408   6.261   1.161  10.002 -0.1109  0.0786 -0.1657
  357YOPC   GL1 4409   6.517   0.921   9.714 -0.1657 -0.2407  0.2166
  357YOPC   GL2 4410   6.788   0.941   9.644  0.1171  0.1324 -0.1639
  357YOPC   C1A 4411   6.384   0.756   9.330 -0.1173  0.2353  0.2203
  357YOPC   D2A 4412   6.618   0.697   9.026 -0.0984  0.2752 -0.0693
  357YOPC   C3A 4413   6.420   0.918   8.733  0.1669 -0.0228 -0.0407
  357YOPC   C4A 4414   6.250   1.310   8.689 -0.0925  0.2245  0.2640
  357YOPC   C1B 4415   6.869   0.953   9.320 -0.0218 -0.1549  0.1935
  357YOPC   C2B 4416   6.676   1.185   9.081 -0.2318  0.1240 -0.0377
  357YOPC   D3B 4417   6.289   1.243   9.210  0.0948 -0.2684  0.0739
  357YOPC   C4B 4418   5.967   1.548   9.287 -0.2059 -0.0496 -0.1213
  358YOPC   NC3 4419   8.205   9.306  11.117  0.0678 -0.0555  0.3890
  358YOPC   PO4 4420   8.035   9.655  11.022 -0.0454 -0.0985  0.2129
  358YOPC   GL1 4421   7.872   9.697  10.535 -0.1937 -0.1596 -0.1406
  358YOPC   GL2 4422   7.706   9.960  10.546 -0.0018 -0.0477 -0.0553
  358YOPC   C1A 4423   7.990   9.442  10.138  0.1302 -0.1118 -0.0090
  358YOPC   D2A 4424   8.250   9.479   9.780 -0.0650 -0.1507  0.2145
  358YOPC   C3A 4425   7.909   9.423   9.478  0.2062  0.1653 -0.1050
  358YOPC   C4A 4426   7.515   9.271   9.191  0.2614  0.2727 -0.1057
  358YOPC   C1B 4427   7.856  10.016  10.179  0.0092 -0.0436 -0.0822
  358YOPC   C2B 4428   8.007   9.974   9.825 -0.3308 -0.1350  0.2697
  358YOPC   D3B 4429   7.864   9.963   9.425 -0.3428  0.4091  0.1146
  358YOPC   C4B 4430   7.790   9.705   9.053 -0.4304 -0.0888  0.0273
  359YOPC   NC3 4431   2.256  10.834  10.551 -0.3242 -0.1433  0.4624
  359YOPC   PO4 4432   2.020  10.881  10.085  0.0919 -0.1637 -0.0653
  359YOPC   GL1 4433   2.114  10.955   9.688 -0.0669  0.1909 -0.1325
  359YOPC   GL2 4434   2.408  11.128   9.640 -0.0872 -0.4888  0.1501
  359YOPC   C1A 4435   2.218  10.892   9.186 -0.2357 -0.0354  0.1286
  359YOPC   D2A 4436   2.529  10.732   8.976 -0.0066 -0.1748 -0.1703
  359YOPC   C3A 4437   2.572  10.916   8.634  0.1487 -0.0192  0.1750
  359YOPC   C4A 4438   2.523  11.236   8.304  0.1094  0.0509  0.0348
  359YOPC   C1B 4439   2.628  11.187   9.252 -0.1745 -0.0066  0.3303
  359YOPC   C2B 4440   2.937  11.028   8.981  0.3470  0.3878 -0.0743
  359YOPC   D3B 4441   3.089  10.742   8.622 -0.1834  0.2645  0.0489
  359YOPC   C4B 4442   3.076  10.846   8.237 -0.2532  0.1023  0.0646
  360YOPC   NC3 4443   8.615  13.442  11.434 -0.2973  0.0428 -0.0653
  360YOPC   PO4 4444   8.648  13.818  11.123 -0.3123 -0.1809 -0.1995
  360YOPC   GL1 4445   8.760  13.657  10.766 -0.0151  0.0866  0.1116
  360YOPC   GL2 4446   8.974  13.790  10.554  0.0355 -0.1033  0.0740
  360YOPC   C1A 4447   8.886  13.322  10.495 -0.0587  0.0382 -0.0435
  360YOPC   D2A 4448   8.814  12.991  10.267 -0.3873  0.1027 -0.0190
  360YOPC   C3A 4449   8.734  13.063   9.908  0.0866 -0.3346  0.1269
  360YOPC   C4A 4450   8.569  12.998   9.563 -0.1718 -0.0881 -0.2301
  360YOPC   C1B 4451   9.280  13.687  10.191  0.2589 -0.0927  0.2739
  360YOPC   C2B 4452   9.427  13.791   9.822 -0.2291 -0.0633  0.0246
  360YOPC   D3B 4453   9.146  13.748   9.441  0.0582  0.1563 -0.0729
  360YOPC   C4B 4454   9.018  13.986   9.217 -0.2584  0.2023 -0.3829
  361YOPC   NC3 4455  17.438  15.686  10.362  0.3218  0.0346  0.1291
  361YOPC   PO4 4456  17.391  15.291  10.236 -0.2166  0.0037 -0.0786
  361YOPC   GL1 4457  17.158  15.217   9.951  0.2052 -0.2254 -0.1481
  361YOPC   GL2 4458  16.832  15.268  10.078  0.0094  0.1106  0.1330
  361YOPC   C1A 4459  17.163  15.389   9.554 -0.1464  0.1111 -0.1641
  361YOPC   D2A 4460  17.112  15.603   9.169 -0.0267  0.0361 -0.0276
  361YOPC   C3A 4461  17.027  15.248   8.826  0.0044 -0.0490 -0.0533
  361YOPC   C4A 4462  17.253  15.080   8.468  0.2626  0.2245 -0.0956
  361YOPC   C1B 4463  16.719  15.112   9.697 -0.1170 -0.1237  0.0847
  361YOPC   C2B 4464  16.805  15.197   9.310 -0.0975  0.2312 -0.1087
  361YOPC   D3B 4465  16.558  15.165   9.013  0.2447 -0.0872 -0.1740
  361YOPC   C4B 4466  16.238  15.228   8.674  0.0451 -0.1345 -0.0236
  362YOPC   NC3 4467   0.309  10.912  10.266 -0.1333  0.4675  0.0411
  362YOPC   PO4 4468   0.030  10.512  10.446  0.2246  0.0433 -0.0769
  362YOPC   GL1 4469  -0.135  10.573   9.960  0.0908 -0.0092 -0.3763
  362YOPC   GL2 4470  -0.153  10.881  10.110 -0.2281 -0.1377  0.3595
  362YOPC   C1A 4471  -0.116  10.724   9.543  0.0806 -0.1293  0.0342
  362YOPC   D2A 4472  -0.177  10.787   9.053 -0.3101  0.1654  0.2752
  362YOPC   C3A 4473  -0.025  10.563   8.616  0.1853  0.0189 -0.1341
  362YOPC   C4A 4474  -0.003  10.467   8.228 -0.2680 -0.0230  0.1465
  362YOPC   C1B 4475  -0.325  11.162   9.801  0.0168  0.2435 -0.0322
  362YOPC   C2B 4476  -0.557  11.483   9.943 -0.4701  0.3092 -0.0471
  362YOPC   D3B 4477  -0.912  11.614   9.836 -0.0580 -0.0343  0.0678
  362YOPC   C4B 4478  -1.025  11.878   9.488 -0.0416 -0.0773 -0.2321
  363YOPC   NC3 4479  17.008  15.061  10.655 -0.2080  0.0705  0.0099
  363YOPC   PO4 4480  16.962  15.549  10.479 -0.3526  0.0377 -0.0505
  363YOPC   GL1 4481  16.540  15.668  10.189 -0.0452  0.0773 -0.2534
  363YOPC   GL2 4482  16.559  15.978  10.168 -0.0802  0.0217 -0.0458
  363YOPC   C1A 4483  16.289  15.563   9.874 -0.0682 -0.2697  0.1594
  363YOPC   D2A 4484  16.291  15.242   9.540 -0.2269 -0.0684  0.0643
  363YOPC   C3A 4485  16.130  15.032   9.197  0.1293  0.1164  0.2276
  363YOPC   C4A 4486  15.951  14.773   8.790  0.4512 -0.0665  0.3313
  363YOPC   C1B 4487  16.546  16.180   9.625 -0.1768 -0.1579 -0.0932
  363YOPC   C2B 4488  16.305  16.138   9.275 -0.3789  0.1227  0.1168
  363YOPC   D3B 4489  16.351  16.069   8.827 -0.1000 -0.0689 -0.1575
  363YOPC   C4B 4490  16.520  16.100   8.508 -0.0415  0.0314 -0.2443
  364YOPC   NC3 4491  14.290  15.181  11.072  0.1503 -0.4036  0.0078
  364YOPC   PO4 4492  13.895  15.041  10.848  0.1306 -0.0608 -0.1559
  364YOPC   GL1 4493  13.721  14.812  10.494 -0.0359  0.1962  0.3481
  364YOPC   GL2 4494  13.445  14.557  10.453  0.0032 -0.0520  0.1591
  364YOPC   C1A 4495  13.698  14.842  10.042  0.1904 -0.3226  0.0140
  364YOPC   D2A 4496  13.540  14.844   9.631  0.0510 -0.0895  0.1549
  364YOPC   C3A 4497  13.596  15.075   9.272 -0.0108 -0.0201  0.2952
  364YOPC   C4A 4498  13.829  15.135   8.812 -0.0316  0.1257  0.0054
  364YOPC   C1B 4499  13.178  14.913  10.302 -0.0230  0.2129  0.0708
  364YOPC   C2B 4500  13.081  14.963   9.851  0.2559 -0.1809 -0.1426
  364YOPC   D3B 4501  12.890  14.710   9.420 -0.1257 -0.1174 -0.1547
  364YOPC   C4B 4502  12.623  14.689   9.028  0.0408  0.1694 -0.0595
  365YOPC   NC3 4503   4.817   3.572  10.158  0.1292  0.0034 -0.0604
  365YOPC   PO4 4504   5.318   3.576  10.046  0.0741  0.1632 -0.4653
  365YOPC   GL1 4505   5.363   3.713   9.679  0.2405  0.1669 -0.2941
  365YOPC   GL2 4506   5.140   3.519   9.488 -0.0008 -0.1128  0.0122
  365YOPC   C1A 4507   5.205   4.024   9.427  0.0593  0.0182 -0.0342
  365YOPC   D2A 4508   4.888   4.395   9.462  0.2428  0.2181  0.0174
  365YOPC   C3A 4509   4.697   4.469   9.067  0.1838  0.2290 -0.3257
  365YOPC   C4A 4510   4.826   4.464   8.684  0.1527 -0.1620 -0.1649
  365YOPC   C1B 4511   5.030   3.450   9.075 -0.3355  0.1909 -0.0421
  365YOPC   C2B 4512   4.649   3.436   8.885 -0.2670 -0.3597 -0.1092
  365YOPC   D3B 4513   4.577   3.326   8.508  0.0505 -0.2262  0.0115
  365YOPC   C4B 4514   4.721   3.160   8.172 -0.0006  0.0381  0.0964
  366YOPC   NC3 4515  12.906   0.518  10.765 -0.0253 -0.3346  0.2922
  366YOPC   PO4 4516  13.075   0.211  10.598  0.1054  0.1654  0.2333
  366YOPC   GL1 4517  12.867   0.470  10.244  0.0657  0.2383 -0.1277
  366YOPC   GL2 4518  12.632   0.587  10.325  0.1098  0.0826 -0.0317
  366YOPC   C1A 4519  12.840   0.604   9.813  0.1886 -0.1908 -0.0790
  366YOPC   D2A 4520  13.071   0.517   9.457 -0.0123 -0.1730  0.1626
  366YOPC   C3A 4521  12.949   0.392   9.092 -0.0169 -0.0519  0.0586
  366YOPC   C4A 4522  12.817   0.552   8.762  0.0189  0.0384  0.0675
  366YOPC   C1B 4523  12.367   0.320  10.024  0.0275 -0.3348 -0.1399
  366YOPC   C2B 4524  11.936   0.131   9.835 -0.1070 -0.1365 -0.0826
  366YOPC   D3B 4525  11.991   0.398   9.533  0.0122  0.1182 -0.0113
  366YOPC   C4B 4526  12.232   0.381   9.118 -0.0469 -0.1463 -0.0853
  367YOPC   NC3 4527   0.782   8.252  10.272 -0.3349  0.0374  0.2086
  367YOPC   PO4 4528   0.646   8.626  10.518  0.2564 -0.2288 -0.1251
  367YOPC   GL1 4529   0.655   8.688  10.020  0.0655  0.2577 -0.1419
  367YOPC   GL2 4530   0.467   8.907   9.933 -0.2589 -0.0505 -0.2720
  367YOPC   C1A 4531   0.790   8.488   9.617  0.0088 -0.3317  0.1574
  367YOPC   D2A 4532   0.699   8.540   9.136 -0.3084  0.1134 -0.1819
  367YOPC   C3A 4533   0.661   8.604   8.730 -0.0704  0.0130 -0.1475
  367YOPC   C4A 4534   0.279   8.636   8.468  0.2100  0.1085 -0.1786
  367YOPC   C1B 4535   0.179   8.955   9.587  0.1010 -0.1705 -0.1101
  367YOPC   C2B 4536   0.297   8.618   9.385 -0.0842  0.1944  0.1089
  367YOPC   D3B 4537   0.200   8.753   8.915 -0.1807  0.0073 -0.2100
  367YOPC   C4B 4538   0.172   9.118   8.736  0.1290  0.1284  0.3350
  368YOPC   NC3 4539  15.870   1.795  10.399 -0.2083 -0.0038 -0.1762
  368YOPC   PO4 4540  16.005   1.419  10.132 -0.1791 -0.1971  0.3254
  368YOPC   GL1 4541  16.030   1.372   9.746 -0.2224  0.0395 -0.0601
  368YOPC   GL2 4542  15.719   1.261   9.726 -0.2003  0.0848  0.0340
  368YOPC   C1A 4543  16.165   1.409   9.339  0.1405  0.0676  0.1187
  368YOPC   D2A 4544  16.277   1.795   9.258 -0.2114 -0.0402 -0.0559
  368YOPC   C3A 4545  16.231   1.958   8.726  0.0772 -0.0704 -0.0563
  368YOPC   C4A 4546  16.079   2.311   8.489 -0.0811  0.1934  0.1168
  368YOPC   C1B 4547  15.780   1.153   9.316  0.1195 -0.1298 -0.0926
  368YOPC   C2B 4548  15.937   1.144   8.864  0.1813  0.1036  0.1547
  368YOPC   D3B 4549  15.511   1.211   8.581 -0.0860 -0.1201  0.1495
  368YOPC   C4B 4550  15.533   1.211   8.190 -0.0114  0.2226  0.1109
  369YOPC   NC3 4551   8.587   6.775  10.969  0.1889  0.2568  0.1658
  369YOPC   PO4 4552   8.735   6.503  10.489 -0.0599  0.2460  0.2952
  369YOPC   GL1 4553   8.674   6.553  10.058 -0.0110 -0.0287  0.1029
  369YOPC   GL2 4554   8.478   6.697   9.919  0.2380 -0.2024  0.1242
  369YOPC   C1A 4555   8.800   6.391   9.697  0.3403  0.2408 -0.0079
  369YOPC   D2A 4556   8.864   6.417   9.227 -0.0567  0.0114  0.2858
  369YOPC   C3A 4557   9.256   6.550   9.205 -0.0404  0.1737 -0.1697
  369YOPC   C4A 4558   9.649   6.502   9.405  0.1720  0.0236 -0.0690
  369YOPC   C1B 4559   8.534   6.792   9.463 -0.0248  0.0595 -0.2737
  369YOPC   C2B 4560   8.787   6.958   9.291  0.1722 -0.0519 -0.1260
  369YOPC   D3B 4561   8.803   6.801   8.901 -0.2041 -0.2835 -0.1948
  369YOPC   C4B 4562   8.915   6.362   8.709  0.0808 -0.0734  0.0178
  370YOPC   NC3 4563   8.537   7.621  10.780  0.0844  0.0474 -0.0814
  370YOPC   PO4 4564   8.454   8.005  10.827  0.1941 -0.0328 -0.3662
  370YOPC   GL1 4565   8.282   8.128  10.446 -0.2122 -0.0375 -0.1074
  370YOPC   GL2 4566   8.358   7.864  10.263  0.2892 -0.0810 -0.0599
  370YOPC   C1A 4567   8.311   8.391  10.030  0.2958  0.0914 -0.2396
  370YOPC   D2A 4568   8.490   8.655   9.806  0.0584  0.0422  0.1468
  370YOPC   C3A 4569   8.898   8.559   9.653 -0.0426  0.0710 -0.1141
  370YOPC   C4A 4570   9.117   8.503   9.219 -0.2373 -0.0014 -0.0893
  370YOPC   C1B 4571   8.579   7.663   9.989  0.0099  0.2328  0.2295
  370YOPC   C2B 4572   8.618   7.207   9.726 -0.2602  0.0906 -0.0133
  370YOPC   D3B 4573   8.936   6.870   9.799  0.0389  0.4705 -0.2276
  370YOPC   C4B 4574   9.270   6.499   9.758  0.1280 -0.0872 -0.0354
  371YOPC   NC3 4575  16.374  12.142  10.546 -0.1449 -0.2671 -0.0877
  371YOPC   PO4 4576  16.603  11.709  10.484 -0.1751 -0.3111 -0.3276
  371YOPC   GL1 4577  16.554  11.878  10.176 -0.0112 -0.3814 -0.2616
  371YOPC   GL2 4578  16.217  12.128  10.084 -0.2831 -0.2503  0.2117
  371YOPC   C1A 4579  16.593  11.742   9.745 -0.1684 -0.0535  0.1260
  371YOPC   D2A 4580  16.453  11.754   9.432 -0.0833 -0.0111  0.1479
  371YOPC   C3A 4581  16.724  11.717   9.083  0.1284  0.1201 -0.0582
  371YOPC   C4A 4582  17.138  11.717   9.025 -0.0695 -0.0631  0.0132
  371YOPC   C1B 4583  16.004  11.818   9.755 -0.1063  0.0083  0.2464
  371YOPC   C2B 4584  15.914  11.858   9.329  0.2007  0.0214 -0.1985
  371YOPC   D3B 4585  16.048  11.643   8.936 -0.0810 -0.0650  0.1251
  371YOPC   C4B 4586  16.355  11.396   8.860 -0.1584 -0.0991  0.4337
  372YOPC   NC3 4587   0.777  16.559   9.998  0.0629  0.2141 -0.0113
  372YOPC   PO4 4588   0.640  16.072   9.985 -0.0747 -0.2094 -0.0915
  372YOPC   GL1 4589   0.259  16.084   9.786 -0.0783  0.4284  0.0884
  372YOPC   GL2 4590   0.002  16.205   9.908  0.2694  0.0743 -0.0242
  372YOPC   C1A 4591   0.141  16.201   9.358 -0.1881 -0.1619 -0.2026
  372YOPC   D2A 4592   0.017  15.997   8.999  0.4072  0.1190  0.0065
  372YOPC   C3A 4593  -0.258  16.154   8.650 -0.1468  0.1991  0.0512
  372YOPC   C4A 4594  -0.535  15.955   8.341  0.1594 -0.0341 -0.2301
  372YOPC   C1B 4595  -0.240  15.915   9.597 -0.0086 -0.0831  0.1554
  372YOPC   C2B 4596  -0.399  15.580   9.353  0.1701  0.0058 -0.0219
  372YOPC   D3B 4597  -0.507  15.609   8.934 -0.0840  0.0681 -0.1232
  372YOPC   C4B 4598  -0.900  15.767   8.637 -0.0032  0.0429  0.0018
  373YOPC   NC3 4599   5.222   2.251  10.411 -0.0337  0.0960  0.1228
  373YOPC   PO4 4600   5.413   2.114  10.086  0.2077  0.2156 -0.1278
  373YOPC   GL1 4601   5.106   2.212   9.639  0.0569 -0.2181  0.1166
  373YOPC   GL2 4602   5.405   2.180   9.453 -0.2035  0.5335  0.1578
  373YOPC   C1A 4603   4.727   2.392   9.311 -0.1102 -0.2266 -0.3549
  373YOPC   D2A 4604   4.718   2.569   8.989  0.0652 -0.3257 -0.1026
  373YOPC   C3A 4605   4.520   2.868   8.567 -0.1044  0.1223 -0.0753
  373YOPC   C4A 4606   4.173   2.936   8.264 -0.0352 -0.1913 -0.0533
  373YOPC   C1B 4607   5.529   1.850   9.097 -0.0992 -0.1397  0.1568
  373YOPC   C2B 4608   5.743   1.551   8.740 -0.3138 -0.2249 -0.1233
  373YOPC   D3B 4609   5.448   1.406   8.442 -0.3046  0.1876  0.0848
  373YOPC   C4B 4610   5.039   1.466   8.383  0.1430  0.2316  0.0290
  374YOPC   NC3 4611  17.044  11.465  10.419  0.0100  0.0680 -0.2843
  374YOPC   PO4 4612  17.152  11.116  10.603  0.1447  0.1371  0.2728
  374YOPC   GL1 4613  17.168  11.044  10.166  0.2329 -0.0618  0.1506
  374YOPC   GL2 4614  16.917  10.818   9.935 -0.1060 -0.1064  0.1331
  374YOPC   C1A 4615  17.221  11.134   9.678 -0.0487  0.0338 -0.2188
  374YOPC   D2A 4616  17.303  11.472   9.402  0.1584  0.0762  0.1218
  374YOPC   C3A 4617  17.421  11.284   8.994 -0.2812  0.0335  0.0985
  374YOPC   C4A 4618  17.440  11.226   8.567  0.0452  0.1624  0.3307
  374YOPC   C1B 4619  16.876  10.718   9.494  0.0244 -0.0812 -0.1144
  374YOPC   C2B 4620  16.857  10.781   9.014  0.1678  0.0329 -0.0203
  374YOPC   D3B 4621  16.936  10.474   8.687 -0.1973  0.0200 -0.1158
  374YOPC   C4B 4622  17.068  10.678   8.285  0.2445 -0.4538 -0.1932
  375YOPC   NC3 4623  15.776   2.392  10.355  0.0976 -0.3279  0.1951
  375YOPC   PO4 4624  16.001   2.165  10.032  0.2606  0.3465 -0.0386
  375YOPC   GL1 4625  15.711   2.407   9.743  0.1381  0.3971  0.0560
  375YOPC   GL2 4626  15.456   2.543   9.904 -0.1197 -0.2318 -0.0274
  375YOPC   C1A 4627  15.500   2.263   9.317 -0.1117 -0.1963  0.0368
  375YOPC   D2A 4628  15.309   2.256   8.942 -0.0091  0.0575 -0.0307
  375YOPC   C3A 4629  15.559   2.070   8.629  0.0737 -0.4223 -0.0913
  375YOPC   C4A 4630  15.390   1.710   8.375  0.1275  0.1458  0.0711
  375YOPC   C1B 4631  15.353   2.756   9.560 -0.1269  0.0891  0.0755
  375YOPC   C2B 4632  15.290   2.792   9.168 -0.1543 -0.0920 -0.0833
  375YOPC   D3B 4633  15.495   3.026   8.892  0.1491 -0.1379 -0.0848
  375YOPC   C4B 4634  15.488   3.143   8.381 -0.1144  0.1848  0.1498
  376YOPC   NC3 4635   2.249   8.563  10.615 -0.0357 -0.1069  0.1489
  376YOPC   PO4 4636   2.493   8.231  10.716  0.1809  0.3444  0.0068
  376YOPC   GL1 4637   2.450   8.031  10.373 -0.2443  0.0622  0.2110
  376YOPC   GL2 4638   2.242   8.274  10.177  0.0152 -0.0322  0.2724
  376YOPC   C1A 4639   2.639   7.825   9.972 -0.2069 -0.0527 -0.0789
  376YOPC   D2A 4640   2.844   7.793   9.600 -0.1216 -0.2303  0.1794
  376YOPC   C3A 4641   2.934   7.433   9.466 -0.0265 -0.0441  0.2073
  376YOPC   C4A 4642   3.079   7.124   9.358 -0.1032 -0.0194 -0.1536
  376YOPC   C1B 4643   2.082   8.252   9.780  0.0207  0.3402 -0.0768
  376YOPC   C2B 4644   2.132   8.189   9.380  0.0143 -0.2509 -0.0734
  376YOPC   D3B 4645   1.975   7.926   9.124  0.1121  0.1865  0.0190
  376YOPC   C4B 4646   1.625   7.957   8.831 -0.2366  0.2066  0.2831
  377YOPC   NC3 4647   6.110   0.734  10.233 -0.0580  0.0373 -0.1813
  377YOPC   PO4 4648   5.762   0.984  10.048  0.0049  0.0719 -0.2327
  377YOPC   GL1 4649   5.458   1.118   9.770 -0.0731 -0.0571 -0.0862
  377YOPC   GL2 4650   5.439   0.941   9.640  0.0659  0.0745 -0.0216
  377YOPC   C1A 4651   5.503   1.416   9.422 -0.2795 -0.1318  0.1599
  377YOPC   D2A 4652   5.362   1.416   8.979 -0.0659  0.0397 -0.1865
  377YOPC   C3A 4653   5.303   1.889   8.664  0.0216 -0.0678 -0.0896
  377YOPC   C4A 4654   5.104   1.935   8.258  0.1666  0.0074  0.2824
  377YOPC   C1B 4655   5.349   0.895   9.248 -0.2662 -0.0227 -0.0242
  377YOPC   C2B 4656   5.382   0.733   8.823  0.1976  0.4909 -0.0256
  377YOPC   D3B 4657   5.417   0.909   8.441  0.0693  0.3249  0.1170
  377YOPC   C4B 4658   5.508   1.020   7.937 -0.0389  0.0367 -0.2091
  378YOPC   NC3 4659  14.056   1.935  10.318 -0.1341 -0.0242 -0.0393
  378YOPC   PO4 4660  14.378   1.691  10.569 -0.4204  0.3146 -0.0823
  378YOPC   GL1 4661  14.535   1.541  10.199 -0.0948 -0.0945 -0.2785
  378YOPC   GL2 4662  14.399   1.663   9.889 -0.3689 -0.0789  0.1850
  378YOPC   C1A 4663  14.803   1.374   9.872  0.1025 -0.0653  0.2882
  378YOPC   D2A 4664  15.210   1.347   9.644  0.0215 -0.3080  0.0413
  378YOPC   C3A 4665  15.239   1.356   9.197 -0.2854 -0.0282  0.0427
  378YOPC   C4A 4666  15.382   1.051   9.012 -0.1544 -0.1383  0.3210
  378YOPC   C1B 4667  14.168   1.506   9.518  0.2734 -0.0777  0.1350
  378YOPC   C2B 4668  14.106   1.396   9.125  0.0453  0.0446  0.0974
  378YOPC   D3B 4669  14.195   1.554   8.732 -0.1778 -0.4346  0.0826
  378YOPC   C4B 4670  14.201   1.500   8.382  0.2417  0.0128 -0.2132
  379YOPC   NC3 4671  11.885  16.498  10.804 -0.3604 -0.0822  0.0544
  379YOPC   PO4 4672  11.918  16.863  10.554 -0.3743 -0.0986 -0.0734
  379YOPC   GL1 4673  12.036  16.978  10.132  0.0766 -0.3862 -0.3657
  379YOPC   GL2 4674  12.255  17.244  10.165 -0.3743 -0.1649  0.1348
  379YOPC   C1A 4675  11.980  17.004   9.697  0.0942  0.0872  0.0109
  379YOPC   D2A 4676  12.059  17.050   9.298 -0.0790  0.1140  0.0506
  379YOPC   C3A 4677  12.052  17.261   8.978  0.0310 -0.1546  0.0825
  379YOPC   C4A 4678  12.296  17.280   8.590  0.1253  0.1726 -0.1170
  379YOPC   C1B 4679  12.354  17.337   9.763  0.0541  0.0885 -0.1374
  379YOPC   C2B 4680  12.356  17.456   9.304 -0.1318  0.3146 -0.3261
  379YOPC   D3B 4681  12.649  17.847   9.175 -0.0349  0.2416  0.1756
  379YOPC   C4B 4682  12.571  18.129   8.860 -0.2891  0.0408 -0.0292
  380YOPC   NC3 4683  14.395  13.756  11.051 -0.3287 -0.0459  0.1529
  380YOPC   PO4 4684  14.800  13.548  10.882  0.1027 -0.1572  0.0796
  380YOPC   GL1 4685  14.454  13.595  10.572 -0.2119 -0.2139 -0.1005
  380YOPC   GL2 4686  14.531  13.869  10.375 -0.2069 -0.1473 -0.2693
  380YOPC   C1A 4687  14.159  13.491  10.326 -0.0533 -0.3352 -0.1419
  380YOPC   D2A 4688  14.040  13.401   9.849  0.0166 -0.1071  0.2302
  380YOPC   C3A 4689  13.960  13.666   9.396  0.0524  0.0203 -0.1452
  380YOPC   C4A 4690  14.073  14.103   9.144  0.0112 -0.2660 -0.1532
  380YOPC   C1B 4691  14.640  14.009   9.978 -0.2219  0.0282  0.0744
  380YOPC   C2B 4692  14.989  14.232   9.910 -0.0534 -0.0103 -0.1808
  380YOPC   D3B 4693  14.994  14.567  10.214 -0.0186  0.0318  0.0534
  380YOPC   C4B 4694  14.715  14.843  10.355  0.2460  0.2907  0.2703
  381YOPC   NC3 4695   9.343  10.763  10.960 -0.1707 -0.0103 -0.0666
  381YOPC   PO4 4696   9.524  10.363  11.041  0.0627  0.1524 -0.1417
  381YOPC   GL1 4697   9.641  10.504  10.498 -0.0858 -0.0894 -0.0037
  381YOPC   GL2 4698   9.965  10.380  10.412 -0.0879  0.2455  0.0212
  381YOPC   C1A 4699   9.785  10.731  10.123  0.0863 -0.1411 -0.0935
  381YOPC   D2A 4700   9.803  10.743   9.798 -0.1356  0.2988 -0.1065
  381YOPC   C3A 4701   9.652  10.723   9.409  0.2902  0.2583 -0.2097
  381YOPC   C4A 4702   9.690  10.984   9.065 -0.2010 -0.2859  0.2445
  381YOPC   C1B 4703   9.992  10.302   9.921 -0.2148  0.2049  0.1312
  381YOPC   C2B 4704  10.122   9.923   9.641 -0.0220  0.1396  0.0797
  381YOPC   D3B 4705  10.198   9.922   9.154  0.2656  0.1713  0.0604
  381YOPC   C4B 4706   9.960   9.907   8.797 -0.2196  0.3531  0.2329
  382YOPC   NC3 4707   5.831   9.243  11.111 -0.1943  0.0768  0.1808
  382YOPC   PO4 4708   5.594   8.933  10.866 -0.2433 -0.1028  0.0928
  382YOPC   GL1 4709   5.512   9.107  10.456 -0.1687  0.1581  0.1947
  382YOPC   GL2 4710   5.570   9.516  10.403  0.1667  0.2858  0.0132
  382YOPC   C1A 4711   5.528   8.926  10.003  0.0580 -0.2068 -0.1819
  382YOPC   D2A 4712   5.693   8.796   9.541 -0.1979  0.0207  0.1467
  382YOPC   C3A 4713   5.779   9.077   9.221  0.3235  0.0915 -0.1758
  382YOPC   C4A 4714   5.964   9.340   8.905  0.2570 -0.0432  0.1590
  382YOPC   C1B 4715   5.370   9.408   9.969 -0.0701 -0.1149  0.0162
  382YOPC   C2B 4716   5.417   9.223   9.613 -0.0120  0.0466 -0.1462
  382YOPC   D3B 4717   5.196   9.227   9.177 -0.0296  0.0659 -0.0806
  382YOPC   C4B 4718   4.849   8.979   9.245  0.1486 -0.3083 -0.0471
  383YOPC   NC3 4719  14.353   9.685  11.858  0.0499  0.2041  0.0198
  383YOPC   PO4 4720  14.057   9.799  11.323 -0.2977 -0.2605  0.1433
  383YOPC   GL1 4721  13.974  10.042  10.912 -0.2987  0.3609  0.0677
  383YOPC   GL2 4722  13.599  10.120  10.796 -0.1525  0.0545  0.0063
  383YOPC   C1A 4723  14.064  10.257  10.491  0.1160 -0.4044  0.1868
  383YOPC   D2A 4724  13.829  10.476  10.200  0.0807  0.1013  0.2382
  383YOPC   C3A 4725  13.712  10.846  10.072  0.0080  0.0001  0.0996
  383YOPC   C4A 4726  13.370  11.022   9.904 -0.1622 -0.1515  0.0455
  383YOPC   C1B 4727  13.400  10.215  10.393 -0.0752 -0.1174 -0.0747
  383YOPC   C2B 4728  13.221   9.993  10.025  0.2078  0.0838 -0.1336
  383YOPC   D3B 4729  13.366  10.131   9.631  0.0024  0.3742  0.0351
  383YOPC   C4B 4730  13.340   9.894   9.329  0.1226 -0.3073 -0.2973
  384YOPC   NC3 4731   8.555  12.322  10.868 -0.2884 -0.2192  0.2210
  384YOPC   PO4 4732   8.376  12.617  11.062  0.2394 -0.0809  0.0881
  384YOPC   GL1 4733   8.284  12.781  10.593  0.2888 -0.0571  0.2040
  384YOPC   GL2 4734   7.906  12.767  10.517  0.0239  0.0591  0.0348
  384YOPC   C1A 4735   8.216  12.950  10.173  0.4010  0.0673  0.1255
  384YOPC   D2A 4736   8.057  12.861   9.761  0.0668  0.2091 -0.0280
  384YOPC   C3A 4737   7.996  13.103   9.425  0.1683  0.1955  0.0589
  384YOPC   C4A 4738   7.925  13.388   9.200 -0.1747 -0.3045  0.2130
  384YOPC   C1B 4739   7.636  12.832  10.056 -0.1915 -0.2681 -0.0697
  384YOPC   C2B 4740   7.543  12.888   9.628  0.2078 -0.0333  0.1853
  384YOPC   D3B 4741   7.445  13.211   9.262 -0.3518  0.1188  0.1553
  384YOPC   C4B 4742   7.414  13.341   8.941 -0.0753 -0.0973 -0.0142
  385YOPC   NC3 4743  16.022  17.273  10.427 -0.0268  0.5681  0.0638
  385YOPC   PO4 4744  15.757  17.636  10.426 -0.0865 -0.0370  0.2114
  385YOPC   GL1 4745  15.710  17.764  10.054 -0.0905 -0.0636 -0.0191
  385YOPC   GL2 4746  15.817  17.745   9.755 -0.0855  0.0519  0.1553
  385YOPC   C1A 4747  15.370  17.541   9.744  0.3212 -0.0112  0.3574
  385YOPC   D2A 4748  15.482  17.557   9.302 -0.0360  0.0945 -0.3672
  385YOPC   C3A 4749  15.467  17.174   9.001  0.0221  0.2392 -0.0134
  385YOPC   C4A 4750  15.472  17.065   8.605  0.2097 -0.0305  0.1197
  385YOPC   C1B 4751  16.128  17.525   9.566  0.1698 -0.0555 -0.1625
  385YOPC   C2B 4752  16.108  17.559   9.022 -0.0963  0.1195 -0.0526
  385YOPC   D3B 4753  15.692  17.548   8.821 -0.1133 -0.0808  0.0724
  385YOPC   C4B 4754  15.215  17.461   8.662 -0.1156  0.2526  0.0285
  386YOPC   NC3 4755   7.028   7.220  10.580  0.0505  0.0360  0.1898
  386YOPC   PO4 4756   6.683   7.475  10.602  0.1579 -0.3870  0.2873
  386YOPC   GL1 4757   6.622   7.543  10.151  0.1293 -0.0222 -0.0582
  386YOPC   GL2 4758   6.285   7.626   9.978 -0.2178 -0.0434  0.0504
  386YOPC   C1A 4759   6.595   7.995   9.931 -0.2060  0.0650  0.0942
  386YOPC   D2A 4760   6.526   8.116   9.460 -0.0331 -0.1300  0.2129
  386YOPC   C3A 4761   6.657   8.291   9.051 -0.1202 -0.0213  0.0115
  386YOPC   C4A 4762   6.891   8.263   8.647 -0.0610 -0.2305 -0.0251
  386YOPC   C1B 4763   6.170   7.690   9.584 -0.0170 -0.1195  0.1276
  386YOPC   C2B 4764   5.890   7.837   9.200 -0.0651 -0.1090  0.1194
  386YOPC   D3B 4765   6.232   7.984   9.045  0.3308  0.0687  0.2229
  386YOPC   C4B 4766   6.359   8.166   8.625  0.1051  0.1036 -0.0572
  387YOPC   NC3 4767  10.799  14.685  11.335  0.0095 -0.1461 -0.0954
  387YOPC   PO4 4768  10.671  14.263  11.289 -0.0437  0.0458  0.0898
  387YOPC   GL1 4769  10.908  14.360  10.907 -0.0088 -0.1813 -0.0249
  387YOPC   GL2 4770  10.859  14.544  10.732 -0.0499 -0.0470  0.0489
  387YOPC   C1A 4771  11.032  14.123  10.461  0.2023 -0.1956 -0.0467
  387YOPC   D2A 4772  11.300  14.165  10.116  0.0831 -0.2137  0.4418
  387YOPC   C3A 4773  11.310  14.243   9.689 -0.1125 -0.1014 -0.0046
  387YOPC   C4A 4774  11.284  14.225   9.226  0.0036 -0.0567 -0.3403
  387YOPC   C1B 4775  10.995  14.586  10.173  0.0197  0.2967  0.1513
  387YOPC   C2B 4776  11.005  14.636   9.726 -0.0183 -0.0677 -0.2148
  387YOPC   D3B 4777  10.702  14.690   9.345 -0.1917  0.1983 -0.0179
  387YOPC   C4B 4778  10.349  14.850   9.222  0.1383  0.1035  0.0719
  388YOPC   NC3 4779  16.382  16.239  11.326  0.0923 -0.0307 -0.2643
  388YOPC   PO4 4780  16.263  16.100  10.917  0.0198  0.0329 -0.0378
  388YOPC   GL1 4781  16.098  15.966  10.418  0.2619 -0.0252  0.0830
  388YOPC   GL2 4782  15.792  15.853  10.322 -0.0851  0.2366  0.1639
  388YOPC   C1A 4783  16.097  16.041   9.904  0.1182  0.0422 -0.0650
  388YOPC   D2A 4784  16.000  15.791   9.507 -0.1258  0.1484 -0.1177
  388YOPC   C3A 4785  15.926  15.962   9.077  0.1641 -0.2080  0.0549
  388YOPC   C4A 4786  15.768  16.202   8.668  0.2979 -0.1180  0.2504
  388YOPC   C1B 4787  15.499  16.011   9.963 -0.1608 -0.0124  0.1749
  388YOPC   C2B 4788  15.519  15.996   9.516  0.1273  0.2897 -0.1440
  388YOPC   D3B 4789  15.593  15.659   9.223  0.1474  0.1813 -0.0047
  388YOPC   C4B 4790  15.539  15.695   8.806 -0.3837 -0.0627 -0.3078
  389YOPC   NC3 4791  10.319   9.558  11.302 -0.0262 -0.0655  0.1811
  389YOPC   PO4 4792  10.083   9.705  10.969 -0.1155 -0.1514  0.3841
  389YOPC   GL1 4793  10.027   9.655  10.529  0.1352  0.0152  0.2030
  389YOPC   GL2 4794   9.746   9.597  10.311 -0.1809  0.1383 -0.0327
  389YOPC   C1A 4795  10.260   9.874  10.222 -0.0739  0.2033  0.2168
  389YOPC   D2A 4796  10.548   9.775   9.851  0.0966  0.0047  0.1888
  389YOPC   C3A 4797  10.613   9.724   9.450 -0.0138  0.1770  0.2637
  389YOPC   C4A 4798  10.646   9.829   8.945 -0.0723 -0.2182  0.1401
  389YOPC   C1B 4799   9.808   9.628   9.884  0.1103  0.0430 -0.1982
  389YOPC   C2B 4800   9.763   9.630   9.500 -0.1037 -0.1614  0.1559
  389YOPC   D3B 4801   9.845   9.475   9.158  0.0768  0.0790 -0.2069
  389YOPC   C4B 4802  10.091   9.454   8.802 -0.0704  0.1471  0.0930
  390YOPC   NC3 4803   5.784   3.608   9.895 -0.1799  0.1487  0.1092
  390YOPC   PO4 4804   6.078   3.348   9.623  0.1144  0.1151 -0.0847
  390YOPC   GL1 4805   5.878   3.510   9.397  0.1754  0.1257  0.1719
  390YOPC   GL2 4806   6.002   3.589   9.110  0.3620  0.0466  0.1794
  390YOPC   C1A 4807   5.532   3.573   9.211 -0.1994 -0.1769 -0.0732
  390YOPC   D2A 4808   5.274   3.845   8.873 -0.1019 -0.1013  0.0920
  390YOPC   C3A 4809   5.320   3.892   8.407 -0.0421  0.1694  0.0102
  390YOPC   C4A 4810   5.488   3.859   7.985 -0.1891 -0.0055 -0.0550
  390YOPC   C1B 4811   5.761   3.690   8.760 -0.0998  0.0736 -0.2998
  390YOPC   C2B 4812   5.662   3.418   8.384 -0.1107 -0.2717 -0.1967
  390YOPC   D3B 4813   5.896   3.263   8.117 -0.2165  0.0808  0.4716
  390YOPC   C4B 4814   6.116   2.784   8.133 -0.3072  0.1447 -0.0155
  391YOPC   NC3 4815   6.904   4.776  10.136  0.1870 -0.0706 -0.0177
  391YOPC   PO4 4816   6.623   4.538   9.979 -0.0327  0.0753 -0.0177
  391YOPC   GL1 4817   6.377   4.865   9.729  0.2404  0.0105  0.0771
  391YOPC   GL2 4818   6.192   5.178   9.844  0.0879 -0.0799  0.0394
  391YOPC   C1A 4819   6.177   4.956   9.415  0.1366  0.1898  0.1114
  391YOPC   D2A 4820   6.098   5.119   9.003  0.1384  0.0677 -0.0567
  391YOPC   C3A 4821   6.133   4.976   8.603  0.0542 -0.1756  0.4984
  391YOPC   C4A 4822   5.973   5.022   8.177 -0.1327  0.0956 -0.0475
  391YOPC   C1B 4823   6.010   5.441   9.492  0.0499  0.0601  0.1788
  391YOPC   C2B 4824   6.030   5.664   9.066  0.1514 -0.1500 -0.1211
  391YOPC   D3B 4825   5.786   5.519   8.792  0.2297  0.0970  0.1807
  391YOPC   C4B 4826   5.652   5.159   8.529  0.3822 -0.2103  0.1452
  392YOPC   NC3 4827   8.312  14.204  11.205 -0.3110  0.2686  0.1289
  392YOPC   PO4 4828   8.172  13.992  10.882  0.0843 -0.1680 -0.0877
  392YOPC   GL1 4829   8.254  13.833  10.599  0.1685  0.0931 -0.0593
  392YOPC   GL2 4830   8.447  13.922  10.446  0.1284 -0.1291  0.0393
  392YOPC   C1A 4831   8.433  13.447  10.352 -0.0677  0.0271  0.1221
  392YOPC   D2A 4832   8.749  13.548  10.049 -0.1225 -0.0271 -0.0633
  392YOPC   C3A 4833   8.711  13.505   9.598 -0.0871  0.1566  0.0975
  392YOPC   C4A 4834   8.395  13.458   9.349  0.0597  0.0734  0.3870
  392YOPC   C1B 4835   8.776  14.093  10.222 -0.1540  0.1713  0.0829
  392YOPC   C2B 4836   8.866  14.033   9.755  0.0503  0.1112  0.2143
  392YOPC   D3B 4837   8.562  13.993   9.506 -0.0306  0.0710  0.0491
  392YOPC   C4B 4838   8.562  13.846   9.105 -0.3283  0.0038  0.0539
  393YOPC   NC3 4839  15.914  10.723  10.754 -0.1523 -0.1504 -0.0430
  393YOPC   PO4 4840  15.562  10.885  11.027 -0.0649  0.0842 -0.1408
  393YOPC   GL1 4841  15.403  11.122  10.697 -0.1387 -0.0866  0.1660
  393YOPC   GL2 4842  15.209  10.869  10.575  0.2582 -0.1537 -0.0334
  393YOPC   C1A 4843  15.365  11.253  10.242 -0.1657 -0.0583 -0.1178
  393YOPC   D2A 4844  15.247  11.308   9.787  0.3054 -0.0702 -0.1213
  393YOPC   C3A 4845  15.030  11.142   9.495  0.1822 -0.2198  0.0251
  393YOPC   C4A 4846  15.072  11.202   9.095  0.1140  0.1338  0.0516
  393YOPC   C1B 4847  15.302  10.815  10.074  0.0494 -0.0036 -0.3835
  393YOPC   C2B 4848  15.199  10.729   9.687 -0.2214  0.1664  0.0005
  393YOPC   D3B 4849  15.058  10.643   9.251  0.2647 -0.0778  0.0823
  393YOPC   C4B 4850  14.938  10.563   8.931 -0.1836  0.1858  0.0616
  394YOPC   NC3 4851  17.419   7.531  10.530 -0.1623  0.1799 -0.1187
  394YOPC   PO4 4852  17.399   7.575  10.180 -0.3536  0.1007  0.2470
  394YOPC   GL1 4853  17.210   7.617   9.770  0.0356  0.0094  0.2271
  394YOPC   GL2 4854  16.816   7.566   9.685  0.0481  0.0950 -0.1921
  394YOPC   C1A 4855  17.231   7.757   9.366 -0.0021  0.1110  0.2798
  394YOPC   D2A 4856  17.328   7.788   8.953 -0.2694  0.2125  0.0816
  394YOPC   C3A 4857  17.248   7.516   8.627 -0.3052  0.0199  0.1910
  394YOPC   C4A 4858  17.176   7.259   8.330  0.4122 -0.0895  0.1921
  394YOPC   C1B 4859  16.517   7.675   9.342 -0.0952 -0.0124  0.0750
  394YOPC   C2B 4860  16.289   7.777   8.902 -0.1510 -0.0367  0.1646
  394YOPC   D3B 4861  16.483   7.886   8.557 -0.0396 -0.2765 -0.1084
  394YOPC   C4B 4862  16.897   7.956   8.580 -0.1025 -0.0658  0.0480
  395YOPC   NC3 4863   8.420   8.516  10.999  0.0482  0.1064 -0.1029
  395YOPC   PO4 4864   8.659   8.497  10.641 -0.0001  0.0178 -0.0157
  395YOPC   GL1 4865   8.718   8.522  10.250 -0.2377  0.1892 -0.0949
  395YOPC   GL2 4866   9.050   8.449  10.175  0.1644 -0.1171  0.0733
  395YOPC   C1A 4867   8.702   8.138  10.018 -0.3073  0.0409 -0.0147
  395YOPC   D2A 4868   8.538   8.112   9.640  0.3211  0.0562 -0.0609
  395YOPC   C3A 4869   8.661   8.318   9.256 -0.0626  0.0198  0.0985
  395YOPC   C4A 4870   8.518   8.513   8.843 -0.0029 -0.0128 -0.0039
  395YOPC   C1B 4871   9.274   8.360   9.872 -0.0037  0.2798 -0.1636
  395YOPC   C2B 4872   9.526   8.088   9.603  0.1282 -0.1893  0.2055
  395YOPC   D3B 4873   9.428   8.140   9.129 -0.1644  0.0641  0.0658
  395YOPC   C4B 4874   9.540   8.485   8.875 -0.0894  0.2205 -0.2356
  396YOPC   NC3 4875  15.172  14.761  10.988  0.2732  0.0893  0.0118
  396YOPC   PO4 4876  15.423  14.500  11.092  0.0028 -0.2070  0.2912
  396YOPC   GL1 4877  15.655  14.638  10.635 -0.2581 -0.0029  0.0517
  396YOPC   GL2 4878  15.937  14.636  10.630 -0.4145 -0.0102  0.1847
  396YOPC   C1A 4879  15.456  14.552  10.285  0.2087  0.3693 -0.2526
  396YOPC   D2A 4880  15.494  14.610   9.864  0.4257  0.2840  0.1561
  396YOPC   C3A 4881  15.195  14.568   9.514  0.0061  0.0564 -0.1887
  396YOPC   C4A 4882  15.097  14.771   9.109 -0.0149 -0.1925  0.0846
  396YOPC   C1B 4883  15.950  14.863  10.263 -0.0719  0.0138  0.0284
  396YOPC   C2B 4884  16.099  14.907   9.923  0.1109 -0.3874  0.2790
  396YOPC   D3B 4885  15.864  14.738   9.569  0.1194 -0.1112  0.1138
  396YOPC   C4B 4886  15.626  14.666   9.235  0.0895 -0.1204  0.2412
  397YOPC   NC3 4887  10.577   7.342  11.116 -0.2446 -0.0942  0.1255
  397YOPC   PO4 4888  10.337   7.136  10.796 -0.0566  0.1751 -0.0951
  397YOPC   GL1 4889  10.287   7.037  10.380 -0.1468 -0.1398  0.2485
  397YOPC   GL2 4890  10.362   6.743  10.251  0.0839  0.0326  0.1327
  397YOPC   C1A 4891  10.233   7.381  10.056  0.1426  0.3166  0.3369
  397YOPC   D2A 4892   9.971   7.200   9.688 -0.2324 -0.0744 -0.1042
  397YOPC   C3A 4893   9.924   7.348   9.270  0.2667 -0.1204 -0.1554
  397YOPC   C4A 4894  10.074   7.559   8.940  0.1560 -0.0418  0.2457
  397YOPC   C1B 4895  10.617   6.840   9.874 -0.2746  0.0852  0.5454
  397YOPC   C2B 4896  10.823   6.860   9.466 -0.4049 -0.1088 -0.1505
  397YOPC   D3B 4897  10.521   7.109   9.211  0.1259  0.3849  0.1801
  397YOPC   C4B 4898  10.293   7.122   8.837 -0.0807  0.0073 -0.0758
  398YOPC   NC3 4899   4.440  12.304  10.740 -0.0890 -0.0894  0.3656
  398YOPC   PO4 4900   4.531  11.877  10.523  0.0805  0.0812  0.0455
  398YOPC   GL1 4901   4.397  11.915  10.065  0.1437 -0.0183  0.1386
  398YOPC   GL2 4902   4.453  12.195   9.928  0.0076  0.2350 -0.1520
  398YOPC   C1A 4903   4.653  11.740   9.773 -0.1198 -0.1152  0.0494
  398YOPC   D2A 4904   4.648  11.862   9.342 -0.0925 -0.1435  0.0709
  398YOPC   C3A 4905   4.528  11.654   9.033  0.1164 -0.0164  0.2552
  398YOPC   C4A 4906   4.431  11.356   8.642 -0.0911  0.1331 -0.3769
  398YOPC   C1B 4907   4.252  12.130   9.535  0.0530  0.1864  0.1267
  398YOPC   C2B 4908   4.178  12.058   9.059 -0.3093  0.3599 -0.1290
  398YOPC   D3B 4909   3.966  12.151   8.669 -0.2346 -0.0867  0.2082
  398YOPC   C4B 4910   3.866  12.405   8.293 -0.0330 -0.5959 -0.0859
  399YOPC   NC3 4911   4.748  12.329  10.359 -0.0104 -0.1107 -0.1402
  399YOPC   PO4 4912   4.340  12.633  10.348  0.0629 -0.1305 -0.0445
  399YOPC   GL1 4913   4.112  12.626  10.065  0.2609  0.2922 -0.2925
  399YOPC   GL2 4914   4.110  12.640   9.685 -0.0678 -0.0004  0.0325
  399YOPC   C1A 4915   3.851  12.206   9.855  0.1267 -0.1322 -0.0833
  399YOPC   D2A 4916   3.739  12.082   9.477  0.3299  0.0721  0.0965
  399YOPC   C3A 4917   3.710  12.267   9.071 -0.0023 -0.1191  0.2045
  399YOPC   C4A 4918   3.645  12.566   8.693  0.1163 -0.0607  0.0969
  399YOPC   C1B 4919   4.112  12.594   9.227 -0.1895 -0.1949  0.0433
  399YOPC   C2B 4920   4.133  12.648   8.774  0.0458 -0.3166 -0.0984
  399YOPC   D3B 4921   4.399  12.398   8.464  0.2192 -0.0487  0.0043
  399YOPC   C4B 4922   4.875  12.446   8.455 -0.2382 -0.0228  0.0521
  400YOPC   NC3 4923   4.207   6.912  10.809  0.0867 -0.2876 -0.1747
  400YOPC   PO4 4924   4.196   7.279  11.017 -0.1102  0.0111 -0.1526
  400YOPC   GL1 4925   4.257   7.412  10.515 -0.3416  0.3130 -0.3880
  400YOPC   GL2 4926   4.440   7.653  10.356  0.0645 -0.0900  0.1211
  400YOPC   C1A 4927   3.967   7.139  10.219 -0.0702 -0.1007  0.1310
  400YOPC   D2A 4928   3.730   6.779  10.103 -0.1394 -0.1866  0.0123
  400YOPC   C3A 4929   3.398   6.588  10.359  0.0372  0.0984 -0.1646
  400YOPC   C4A 4930   3.162   6.214  10.286 -0.2893  0.2894 -0.1194
  400YOPC   C1B 4931   4.337   7.396  10.004 -0.0242 -0.1647 -0.1482
  400YOPC   C2B 4932   3.981   7.357   9.723  0.0758  0.0731  0.0472
  400YOPC   D3B 4933   3.994   7.386   9.241 -0.1213  0.1569  0.2451
  400YOPC   C4B 4934   3.884   7.512   8.720  0.0460 -0.2204  0.2576
  401YOPC   NC3 4935   9.022   4.746  10.317 -0.1250  0.1459 -0.2807
  401YOPC   PO4 4936   8.633   4.498  10.281 -0.0453  0.1304 -0.0656
  401YOPC   GL1 4937   8.537   4.326   9.812  0.1251 -0.0294 -0.1755
  401YOPC   GL2 4938   8.185   4.294   9.717 -0.3519  0.1738 -0.1560
  401YOPC   C1A 4939   8.557   3.914   9.501  0.0665 -0.3855  0.1456
  401YOPC   D2A 4940   8.595   3.626   9.139  0.1025  0.3870  0.0007
  401YOPC   C3A 4941   8.973   3.568   8.975 -0.2429  0.0093 -0.1710
  401YOPC   C4A 4942   9.170   3.599   8.661 -0.0038 -0.0048  0.1502
  401YOPC   C1B 4943   8.330   4.546   9.348  0.0461  0.1777  0.0106
  401YOPC   C2B 4944   8.187   4.811   8.952  0.2017  0.1952 -0.1440
  401YOPC   D3B 4945   8.222   4.812   8.488  0.0997  0.0807  0.1214
  401YOPC   C4B 4946   8.295   4.930   8.012  0.0730 -0.1510  0.2450
  402YOPC   NC3 4947   6.234  10.611  10.896  0.0558  0.2610 -0.2922
  402YOPC   PO4 4948   6.053  10.095  10.894  0.2056 -0.0466 -0.1834
  402YOPC   GL1 4949   6.021  10.247  10.557  0.2230 -0.0214 -0.4786
  402YOPC   GL2 4950   6.299  10.300  10.546 -0.1019  0.1045  0.1860
  402YOPC   C1A 4951   5.835  10.341  10.199  0.2535 -0.1767  0.2837
  402YOPC   D2A 4952   5.648  10.258   9.824 -0.2616 -0.0896 -0.1057
  402YOPC   C3A 4953   5.555  10.545   9.548  0.0253  0.1504 -0.0988
  402YOPC   C4A 4954   5.396  10.741   9.150 -0.3065 -0.2449  0.4009
  402YOPC   C1B 4955   6.343  10.194  10.048  0.3199  0.0652 -0.1594
  402YOPC   C2B 4956   6.083  10.007   9.711  0.3340 -0.0661  0.0280
  402YOPC   D3B 4957   5.912  10.197   9.336 -0.1129 -0.0422  0.1144
  402YOPC   C4B 4958   5.530  10.165   9.186  0.0153  0.1049  0.0672
  403YOPC   NC3 4959  12.827  15.907  10.826 -0.0093 -0.0190  0.2232
  403YOPC   PO4 4960  13.210  15.605  10.916  0.3188  0.2246 -0.1603
  403YOPC   GL1 4961  13.083  15.573  10.488  0.2062  0.0097  0.1932
  403YOPC   GL2 4962  13.052  15.817  10.353 -0.2742 -0.2445  0.0967
  403YOPC   C1A 4963  12.856  15.288  10.186  0.0984 -0.3447 -0.1946
  403YOPC   D2A 4964  12.830  15.353   9.658  0.0266 -0.1204 -0.1517
  403YOPC   C3A 4965  13.012  15.208   9.331  0.0713 -0.0240 -0.3244
  403YOPC   C4A 4966  13.134  14.865   9.001 -0.1856  0.2407  0.0577
  403YOPC   C1B 4967  12.890  15.789   9.896 -0.1981  0.1820  0.1626
  403YOPC   C2B 4968  12.782  15.815   9.495  0.1113  0.1899 -0.2837
  403YOPC   D3B 4969  12.713  15.551   9.155 -0.0013  0.0984 -0.3067
  403YOPC   C4B 4970  12.985  15.459   8.911  0.0893  0.2340 -0.1747
  404YOPC   NC3 4971   7.733   5.235  10.625  0.1008 -0.0603 -0.2585
  404YOPC   PO4 4972   7.629   5.158  10.190 -0.4196  0.0923 -0.0145
  404YOPC   GL1 4973   7.866   5.017   9.816  0.1406 -0.1490 -0.0285
  404YOPC   GL2 4974   7.835   4.783   9.731  0.1753  0.1841  0.1195
  404YOPC   C1A 4975   8.142   5.011   9.412  0.0403  0.0090 -0.1981
  404YOPC   D2A 4976   8.178   5.282   9.132  0.2519  0.1097 -0.1133
  404YOPC   C3A 4977   8.184   5.241   8.719  0.2175  0.1407  0.0407
  404YOPC   C4A 4978   8.061   5.422   8.339 -0.1436  0.0925  0.1264
  404YOPC   C1B 4979   7.793   4.507   9.289  0.2708  0.3032  0.0863
  404YOPC   C2B 4980   7.787   4.492   8.859  0.0621 -0.2029 -0.0174
  404YOPC   D3B 4981   7.754   4.534   8.540 -0.0402  0.0895 -0.1126
  404YOPC   C4B 4982   7.961   4.546   8.021  0.1704 -0.4883  0.0219
  405YOPC   NC3 4983  12.709   3.233  10.488 -0.0422  0.2109 -0.4411
  405YOPC   PO4 4984  12.370   3.390  10.494 -0.3003  0.1080 -0.2300
  405YOPC   GL1 4985  12.422   3.630  10.145  0.2575 -0.1622  0.2018
  405YOPC   GL2 4986  12.685   3.776  10.174  0.0049 -0.0279 -0.0893
  405YOPC   C1A 4987  12.287   4.011   9.928 -0.3425 -0.1313  0.2912
  405YOPC   D2A 4988  12.146   4.389   9.708 -0.1908 -0.0503  0.0700
  405YOPC   C3A 4989  12.439   4.714   9.445  0.2347  0.2214 -0.0459
  405YOPC   C4A 4990  12.769   4.990   9.481 -0.3006  0.4441 -0.2257
  405YOPC   C1B 4991  12.772   3.881   9.792 -0.1276 -0.2364 -0.1772
  405YOPC   C2B 4992  12.999   4.166   9.645 -0.3354 -0.1102  0.2470
  405YOPC   D3B 4993  13.297   4.183   9.290  0.0577 -0.1598  0.0194
  405YOPC   C4B 4994  13.228   4.283   8.883  0.1845  0.0478  0.0091
  406YOPC   NC3 4995  11.929  17.980  10.870 -0.2071 -0.0123  0.1571
  406YOPC   PO4 4996  11.532  18.203  10.716  0.0592  0.1357 -0.2620
  406YOPC   GL1 4997  11.330  18.252  10.361  0.0889  0.0231  0.0119
  406YOPC   GL2 4998  11.604  18.371  10.214 -0.1162  0.0540 -0.0755
  406YOPC   C1A 4999  11.055  18.497  10.081  0.2335  0.2887  0.1096
  406YOPC   D2A 5000  10.991  18.393   9.687 -0.2106  0.1550  0.1963
  406YOPC   C3A 5001  11.160  18.194   9.340  0.2361  0.3139  0.1145
  406YOPC   C4A 5002  11.191  18.240   8.944 -0.0215 -0.2031  0.0818
  406YOPC   C1B 5003  11.447  18.202   9.808  0.1952 -0.1199 -0.1600
  406YOPC   C2B 5004  11.640  18.055   9.430 -0.2881 -0.2235 -0.0765
  406YOPC   D3B 5005  11.689  18.219   9.019 -0.0301  0.0924  0.0175
  406YOPC   C4B 5006  11.515  18.507   8.741  0.2323 -0.0357  0.1200
  407YOPC   NC3 5007   5.933  17.758  10.341  0.0173  0.0577  0.0631
  407YOPC   PO4 5008   5.741  17.435  10.457  0.0457 -0.1822 -0.2243
  407YOPC   GL1 5009   6.068  17.321  10.120  0.4862 -0.0225  0.1403
  407YOPC   GL2 5010   6.368  17.097  10.262  0.2209  0.0230  0.3404
  407YOPC   C1A 5011   6.220  17.048   9.797 -0.3615 -0.1972 -0.0061
  407YOPC   D2A 5012   6.425  16.800   9.482 -0.1940  0.0670 -0.1418
  407YOPC   C3A 5013   6.562  16.848   9.080  0.0072 -0.0099 -0.1361
  407YOPC   C4A 5014   6.591  17.261   8.790 -0.2464 -0.1617  0.0101
  407YOPC   C1B 5015   6.686  16.947   9.998 -0.1216  0.2122 -0.1725
  407YOPC   C2B 5016   7.097  16.779   9.983  0.0658 -0.0320  0.1772
  407YOPC   D3B 5017   7.291  17.065   9.723 -0.2433  0.1233 -0.0213
  407YOPC   C4B 5018   7.350  17.358   9.382 -0.1191  0.1964 -0.0977
  408YOPC   NC3 5019   4.221  13.966  10.284 -0.0555  0.2339 -0.2297
  408YOPC   PO4 5020   4.618  14.041  10.223 -0.3092 -0.0330 -0.3600
  408YOPC   GL1 5021   4.795  13.997   9.824 -0.0040  0.1735 -0.0649
  408YOPC   GL2 5022   5.158  14.051   9.829  0.2106 -0.3272 -0.2245
  408YOPC   C1A 5023   4.654  13.797   9.385 -0.2631  0.1408 -0.1764
  408YOPC   D2A 5024   4.740  13.420   9.146 -0.1146  0.3659 -0.0773
  408YOPC   C3A 5025   4.865  13.292   8.673 -0.1210 -0.0842 -0.0805
  408YOPC   C4A 5026   4.958  13.424   8.299  0.4507 -0.0743 -0.1112
  408YOPC   C1B 5027   5.097  14.026   9.425 -0.0656  0.0307  0.0852
  408YOPC   C2B 5028   5.370  13.986   9.064  0.1215  0.0253  0.1089
  408YOPC   D3B 5029   5.557  14.137   8.773  0.0178 -0.0541 -0.1019
  408YOPC   C4B 5030   5.357  14.310   8.424  0.0299 -0.0916  0.3245
  409YOPC   NC3 5031  13.835   5.014  10.347 -0.0484  0.0591  0.4155
  409YOPC   PO4 5032  13.731   5.439  10.337 -0.3307 -0.0152 -0.2813
  409YOPC   GL1 5033  14.070   5.552  10.099 -0.1520  0.0101  0.0701
  409YOPC   GL2 5034  14.002   5.363   9.795  0.0569  0.0075 -0.2655
  409YOPC   C1A 5035  14.420   5.915  10.007  0.4149  0.2414  0.0190
  409YOPC   D2A 5036  14.580   6.140   9.720 -0.0369 -0.1396 -0.0661
  409YOPC   C3A 5037  14.386   6.252   9.297 -0.1068  0.2225  0.0820
  409YOPC   C4A 5038  14.656   6.344   8.971  0.0233 -0.0673 -0.0284
  409YOPC   C1B 5039  13.903   5.095   9.446 -0.2015 -0.0281  0.0638
  409YOPC   C2B 5040  13.959   5.004   9.042 -0.1860  0.1282  0.1095
  409YOPC   D3B 5041  13.709   4.891   8.698 -0.1993  0.1921  0.0571
  409YOPC   C4B 5042  13.402   4.893   8.349 -0.0052  0.1056 -0.2627
  410YOPC   NC3 5043   2.804  10.166  10.440  0.0716  0.2213  0.0829
  410YOPC   PO4 5044   2.741   9.807  10.179  0.3572 -0.2720 -0.0641
  410YOPC   GL1 5045   2.641  10.086   9.821  0.1357  0.2344 -0.0227
  410YOPC   GL2 5046   2.846  10.317   9.692 -0.2205  0.2341  0.0032
  410YOPC   C1A 5047   2.637   9.984   9.398  0.0018 -0.0135  0.1743
  410YOPC   D2A 5048   2.751   9.976   8.868  0.1932 -0.2248  0.0533
  410YOPC   C3A 5049   2.524   9.939   8.470  0.0660 -0.0688 -0.0622
  410YOPC   C4A 5050   2.358  10.105   8.198  0.0478  0.2484  0.2542
  410YOPC   C1B 5051   3.219  10.407   9.512  0.2358 -0.2107 -0.2235
  410YOPC   C2B 5052   3.553  10.294   9.250  0.2796 -0.1238  0.3246
  410YOPC   D3B 5053   3.777  10.290   8.922  0.1572 -0.0483  0.3097
  410YOPC   C4B 5054   4.049  10.460   8.589 -0.2168 -0.0222  0.0315
  411YOPC   NC3 5055  16.691   6.304  10.866  0.0462 -0.4004 -0.0566
  411YOPC   PO4 5056  16.382   6.088  10.571 -0.1223 -0.1014 -0.0744
  411YOPC   GL1 5057  16.407   6.235  10.140 -0.3325 -0.1399 -0.1745
  411YOPC   GL2 5058  16.505   6.641  10.022 -0.2719 -0.0056 -0.1543
  411YOPC   C1A 5059  16.108   6.321   9.816  0.0507 -0.0726 -0.1620
  411YOPC   D2A 5060  16.177   6.211   9.457 -0.1972 -0.2869 -0.2273
  411YOPC   C3A 5061  16.032   6.297   9.135  0.4109 -0.2203  0.1421
  411YOPC   C4A 5062  16.059   6.416   8.741  0.0377  0.1605  0.1084
  411YOPC   C1B 5063  16.539   6.528   9.592 -0.0158 -0.2551 -0.3662
  411YOPC   C2B 5064  16.598   6.342   9.271 -0.0678  0.1890  0.1476
  411YOPC   D3B 5065  16.422   5.990   9.045 -0.0060 -0.1900  0.0520
  411YOPC   C4B 5066  16.105   5.889   8.735  0.1595 -0.3535 -0.0524
  412YOPC   NC3 5067  16.728  12.247  10.917 -0.0568  0.2158  0.2725
  412YOPC   PO4 5068  16.599  12.617  10.608 -0.2179 -0.0076 -0.0480
  412YOPC   GL1 5069  16.624  12.554  10.211  0.1824  0.0662 -0.2578
  412YOPC   GL2 5070  16.910  12.663   9.998 -0.0161  0.2102 -0.0031
  412YOPC   C1A 5071  16.218  12.571   9.922 -0.0831 -0.3554  0.0175
  412YOPC   D2A 5072  15.908  12.318   9.726 -0.2798 -0.0520  0.0156
  412YOPC   C3A 5073  15.867  12.400   9.316  0.3362  0.0779  0.0050
  412YOPC   C4A 5074  15.667  12.396   8.830  0.0918  0.1230 -0.3141
  412YOPC   C1B 5075  16.733  12.597   9.585  0.3074  0.2641 -0.0059
  412YOPC   C2B 5076  16.451  12.283   9.541  0.0494  0.2035 -0.1435
  412YOPC   D3B 5077  16.274  12.176   9.163  0.0415  0.1855 -0.1935
  412YOPC   C4B 5078  16.482  12.130   8.828  0.0760  0.1429 -0.0893
  413YOPC   NC3 5079  11.385   1.604  10.648 -0.3589  0.0277 -0.1823
  413YOPC   PO4 5080  11.402   1.170  10.633 -0.1980 -0.3388  0.3642
  413YOPC   GL1 5081  11.277   0.897  10.371 -0.0375 -0.0595  0.2892
  413YOPC   GL2 5082  11.516   0.881  10.190 -0.3929  0.0713 -0.0931
  413YOPC   C1A 5083  11.112   0.912   9.913  0.0338 -0.1530 -0.3511
  413YOPC   D2A 5084  10.681   1.111   9.881  0.0029  0.2889 -0.0074
  413YOPC   C3A 5085  10.270   0.972   9.735 -0.0522  0.2625 -0.2930
  413YOPC   C4A 5086   9.845   1.084   9.594  0.1653  0.0487 -0.0774
  413YOPC   C1B 5087  11.619   0.710   9.782  0.0051 -0.0390  0.0507
  413YOPC   C2B 5088  11.542   0.574   9.371 -0.2771 -0.0552 -0.0937
  413YOPC   D3B 5089  11.200   0.720   9.088 -0.0683  0.1507  0.1171
  413YOPC   C4B 5090  10.785   0.711   8.937 -0.1369 -0.0329 -0.2383
  414YOPC   NC3 5091   1.188   3.844  10.322  0.1795 -0.2483  0.0716
  414YOPC   PO4 5092   1.103   4.108   9.968 -0.1064 -0.1405 -0.0115
  414YOPC   GL1 5093   1.146   4.157   9.565  0.1231  0.0480  0.3969
  414YOPC   GL2 5094   1.181   3.762   9.482 -0.1664 -0.1386  0.3026
  414YOPC   C1A 5095   1.133   4.141   9.083  0.1806 -0.0261 -0.0457
  414YOPC   D2A 5096   1.168   4.017   8.727  0.2429 -0.1114  0.0466
  414YOPC   C3A 5097   0.872   4.180   8.420 -0.1608  0.2510  0.3696
  414YOPC   C4A 5098   0.763   4.294   8.009  0.1249  0.1417  0.0653
  414YOPC   C1B 5099   1.291   3.603   9.012 -0.2081 -0.0935 -0.1032
  414YOPC   C2B 5100   1.395   3.548   8.565 -0.0418 -0.1012 -0.1556
  414YOPC   D3B 5101   1.425   3.928   8.300 -0.2113 -0.0964 -0.2126
  414YOPC   C4B 5102   1.582   4.342   8.464  0.3047 -0.1038  0.3708
  415YOPC   NC3 5103  14.856   1.867  10.568 -0.0745  0.0388  0.1127
  415YOPC   PO4 5104  15.001   2.000  10.118  0.1913 -0.1181 -0.3370
  415YOPC   GL1 5105  15.076   1.893   9.749  0.0519 -0.0257 -0.1048
  415YOPC   GL2 5106  15.200   2.159   9.696  0.1007 -0.0730  0.0210
  415YOPC   C1A 5107  15.148   1.857   9.244 -0.3205 -0.1690  0.0404
  415YOPC   D2A 5108  15.200   1.751   8.819  0.0202  0.0836 -0.1289
  415YOPC   C3A 5109  15.065   1.420   8.687  0.0679  0.0191  0.0025
  415YOPC   C4A 5110  15.031   1.142   8.546 -0.1733  0.1097 -0.1260
  415YOPC   C1B 5111  14.972   2.431   9.356  0.4765  0.1168 -0.0103
  415YOPC   C2B 5112  14.948   2.564   8.834 -0.1530  0.1360 -0.0656
  415YOPC   D3B 5113  15.234   2.645   8.498  0.2681  0.2126  0.0661
  415YOPC   C4B 5114  15.679   2.627   8.658  0.0961  0.2509 -0.3458
  416YOPC   NC3 5115  12.962  16.551  11.447  0.2802 -0.0611  0.0522
  416YOPC   PO4 5116  13.028  16.362  10.955  0.2523  0.0039  0.1755
  416YOPC   GL1 5117  12.784  16.331  10.530  0.1366  0.1872 -0.0433
  416YOPC   GL2 5118  12.963  16.564  10.275  0.0715  0.0626  0.0074
  416YOPC   C1A 5119  12.659  16.223  10.116  0.0976 -0.0434  0.0348
  416YOPC   D2A 5120  12.574  16.180   9.742  0.2014 -0.0278 -0.1006
  416YOPC   C3A 5121  12.672  16.275   9.307  0.1298  0.1341 -0.3173
  416YOPC   C4A 5122  12.724  16.014   8.901  0.1870 -0.1023  0.1107
  416YOPC   C1B 5123  12.930  16.670   9.803  0.1293  0.1594 -0.0187
  416YOPC   C2B 5124  12.977  16.675   9.316 -0.0469 -0.1061  0.0549
  416YOPC   D3B 5125  12.808  16.570   8.939 -0.0106 -0.0854  0.0444
  416YOPC   C4B 5126  13.090  16.317   8.749 -0.0305 -0.2681 -0.2692
  417YOPC   NC3 5127   4.602  17.562   9.880  0.0658  0.0854 -0.3381
  417YOPC   PO4 5128   4.584  17.909   9.654 -0.0054  0.0159 -0.0519
  417YOPC   GL1 5129   4.958  17.748   9.554 -0.2007  0.0595  0.0989
  417YOPC   GL2 5130   4.975  18.031   9.388 -0.2123  0.0903 -0.0085
  417YOPC   C1A 5131   5.196  17.550   9.180  0.0438  0.1266 -0.0534
  417YOPC   D2A 5132   5.315  17.497   8.692  0.0422 -0.0883 -0.2723
  417YOPC   C3A 5133   5.751  17.570   8.511  0.1575 -0.1155 -0.0150
  417YOPC   C4A 5134   5.956  17.429   8.064 -0.1443 -0.3057 -0.0744
  417YOPC   C1B 5135   4.863  18.007   8.900  0.3629  0.0751 -0.1284
  417YOPC   C2B 5136   4.788  18.090   8.383 -0.2013 -0.1044  0.1039
  417YOPC   D3B 5137   4.674  18.444   8.139  0.1524  0.1792  0.0341
  417YOPC   C4B 5138   4.657  18.687   7.755  0.1204  0.0602  0.1831
  418YOPC   NC3 5139  14.287   8.407  10.867  0.4194  0.0020 -0.0969
  418YOPC   PO4 5140  14.101   7.986  10.778  0.1284  0.0104  0.1192
  418YOPC   GL1 5141  14.176   8.215  10.354  0.0085 -0.1237  0.1331
  418YOPC   GL2 5142  14.544   8.301  10.443 -0.0080 -0.0246 -0.0547
  418YOPC   C1A 5143  14.042   8.457  10.048 -0.0568 -0.0911 -0.0301
  418YOPC   D2A 5144  14.037   8.522   9.696 -0.0953 -0.3243  0.0741
  418YOPC   C3A 5145  13.667   8.521   9.341 -0.3700  0.3731  0.0157
  418YOPC   C4A 5146  13.432   8.951   9.346  0.2974 -0.2176  0.1074
  418YOPC   C1B 5147  14.593   8.431   9.976  0.0936  0.0281 -0.2491
  418YOPC   C2B 5148  14.586   8.413   9.628  0.0435  0.1207 -0.1546
  418YOPC   D3B 5149  14.706   8.600   9.275 -0.0517  0.1512 -0.1593
  418YOPC   C4B 5150  14.448   8.674   8.916  0.2994  0.0116  0.4291
  419YOPC   NC3 5151  13.663   9.646  11.037  0.1658 -0.0131  0.1508
  419YOPC   PO4 5152  13.361   9.472  10.786  0.1960 -0.0028  0.1863
  419YOPC   GL1 5153  13.166   9.269  10.361 -0.1004 -0.1194 -0.0238
  419YOPC   GL2 5154  13.312   8.981  10.238  0.0526 -0.2245  0.2318
  419YOPC   C1A 5155  13.089   9.516  10.078  0.0514  0.2139  0.1587
  419YOPC   D2A 5156  12.924   9.757   9.711  0.3179 -0.0939  0.2871
  419YOPC   C3A 5157  12.473   9.799   9.562  0.2257  0.0860 -0.1738
  419YOPC   C4A 5158  12.475   9.956   9.136 -0.0455  0.2599  0.1602
  419YOPC   C1B 5159  13.310   9.084   9.826  0.0667 -0.2463 -0.1799
  419YOPC   C2B 5160  13.036   9.238   9.546  0.1083 -0.1816  0.0898
  419YOPC   D3B 5161  12.899   8.984   9.209  0.0324 -0.0264  0.0063
  419YOPC   C4B 5162  12.960   8.781   8.772  0.3559  0.0706 -0.0180
  420YOPC   NC3 5163  11.234   9.328  11.052 -0.1747  0.0997 -0.2741
  420YOPC   PO4 5164  11.185   8.881  10.782 -0.0100 -0.3678  0.3789
  420YOPC   GL1 5165  11.039   9.218  10.563 -0.0031  0.0715 -0.0981
  420YOPC   GL2 5166  11.188   9.559  10.567  0.0058 -0.1668  0.2420
  420YOPC   C1A 5167  10.676   9.115  10.121  0.0337  0.0775  0.1917
  420YOPC   D2A 5168  10.654   9.214   9.769 -0.0715  0.0181  0.2223
  420YOPC   C3A 5169  10.368   9.020   9.557 -0.1007 -0.1108  0.0767
  420YOPC   C4A 5170  10.100   8.873   9.292  0.2493  0.0172  0.0004
  420YOPC   C1B 5171  11.347   9.805  10.291 -0.0296 -0.0093 -0.0377
  420YOPC   C2B 5172  11.166   9.804   9.789 -0.2534 -0.4475  0.1699
  420YOPC   D3B 5173  11.050   9.414   9.607 -0.2723  0.1013  0.1154
  420YOPC   C4B 5174  11.015   9.288   9.150  0.0475  0.2025  0.1573
  421YOPC   NC3 5175  11.378  17.921  11.137 -0.1608 -0.2294  0.1301
  421YOPC   PO4 5176  11.157  17.883  10.758  0.0345  0.2667  0.0254
  421YOPC   GL1 5177  11.217  17.646  10.381 -0.6074 -0.2208  0.2034
  421YOPC   GL2 5178  10.989  17.415  10.322 -0.0507 -0.0628 -0.0783
  421YOPC   C1A 5179  11.507  17.749  10.079  0.2188 -0.2298  0.0310
  421YOPC   D2A 5180  11.890  17.553   9.929 -0.2694 -0.2427 -0.0306
  421YOPC   C3A 5181  11.858  17.616   9.486 -0.1057 -0.1368 -0.2848
  421YOPC   C4A 5182  11.639  17.687   9.150  0.1574  0.0421 -0.0959
  421YOPC   C1B 5183  10.931  17.420   9.964 -0.0936  0.2893 -0.0075
  421YOPC   C2B 5184  10.973  17.209   9.523  0.2565 -0.1761 -0.0171
  421YOPC   D3B 5185  10.967  17.114   9.064  0.2921 -0.3523  0.0548
  421YOPC   C4B 5186  10.961  17.362   8.606  0.1626 -0.0799  0.2354
  422YOPC   NC3 5187   6.624   6.571  11.066 -0.1559 -0.1596 -0.0052
  422YOPC   PO4 5188   6.165   6.676  10.828  0.2574 -0.1184  0.2801
  422YOPC   GL1 5189   6.188   6.708  10.283  0.3935  0.2814 -0.1241
  422YOPC   GL2 5190   6.231   6.338  10.188 -0.3051  0.0685 -0.2358
  422YOPC   C1A 5191   6.128   6.725   9.833 -0.3880 -0.0814 -0.2833
  422YOPC   D2A 5192   6.255   6.555   9.476 -0.1210 -0.0493 -0.2421
  422YOPC   C3A 5193   5.914   6.694   9.197  0.1739 -0.0817 -0.2919
  422YOPC   C4A 5194   5.507   6.873   8.977 -0.0923 -0.3124  0.3561
  422YOPC   C1B 5195   6.525   6.257   9.885 -0.3047  0.2490 -0.3644
  422YOPC   C2B 5196   6.731   6.273   9.552 -0.3130 -0.0336 -0.1834
  422YOPC   D3B 5197   6.547   6.409   9.078 -0.0889  0.0582  0.0997
  422YOPC   C4B 5198   6.613   6.744   8.714  0.1302 -0.0093 -0.0939
  423YOPC   NC3 5199   2.964   9.287  10.926  0.1308 -0.2449  0.1402
  423YOPC   PO4 5200   3.170   9.121  10.469 -0.1097  0.3801 -0.2657
  423YOPC   GL1 5201   3.147   8.931  10.049  0.1454 -0.2328 -0.0947
  423YOPC   GL2 5202   3.141   8.583  10.108  0.1232 -0.3553  0.0230
  423YOPC   C1A 5203   3.111   9.059   9.614 -0.1638  0.2129 -0.0434
  423YOPC   D2A 5204   3.104   9.000   9.199 -0.2210  0.0279  0.0643
  423YOPC   C3A 5205   3.124   8.920   8.719 -0.0378 -0.2615 -0.1645
  423YOPC   C4A 5206   2.934   9.066   8.376 -0.1132 -0.2363 -0.2212
  423YOPC   C1B 5207   3.215   8.458   9.792 -0.3034  0.0687  0.3307
  423YOPC   C2B 5208   3.136   8.518   9.328  0.0097  0.2946 -0.1882
  423YOPC   D3B 5209   2.897   8.525   8.921  0.0551 -0.3227 -0.1222
  423YOPC   C4B 5210   2.914   8.554   8.435 -0.0107 -0.1364  0.0889
  424YOPC   NC3 5211   9.903   4.919  10.128 -0.0066 -0.1741  0.0340
  424YOPC   PO4 5212   9.443   4.725  10.022  0.1986  0.1156 -0.1128
  424YOPC   GL1 5213   9.268   4.820   9.552  0.1043  0.1685  0.0663
  424YOPC   GL2 5214   9.097   5.076   9.484  0.0025  0.0049 -0.1423
  424YOPC   C1A 5215   9.161   4.685   9.157 -0.1800  0.3695  0.1618
  424YOPC   D2A 5216   9.198   4.490   8.730  0.5095  0.2018  0.2563
  424YOPC   C3A 5217   8.758   4.481   8.535 -0.0921  0.1193 -0.0801
  424YOPC   C4A 5218   8.476   4.461   8.122 -0.0945 -0.1394  0.1403
  424YOPC   C1B 5219   9.313   5.137   9.111 -0.1286  0.0593  0.3864
  424YOPC   C2B 5220   9.369   5.054   8.662  0.0699 -0.1149 -0.1561
  424YOPC   D3B 5221   9.266   4.839   8.325  0.0018 -0.1549  0.2574
  424YOPC   C4B 5222   9.042   4.561   8.061 -0.0342  0.0402  0.0986
  425YOPC   NC3 5223  13.540   4.658  10.759 -0.2247 -0.2317  0.0012
  425YOPC   PO4 5224  13.760   4.541  10.439  0.0566 -0.2300 -0.1341
  425YOPC   GL1 5225  13.662   4.591  10.001 -0.1817 -0.2888  0.1051
  425YOPC   GL2 5226  13.851   4.785   9.820  0.3133  0.0240  0.0139
  425YOPC   C1A 5227  13.471   4.294   9.772  0.1116  0.2058 -0.0913
  425YOPC   D2A 5228  13.509   3.901   9.702  0.0817 -0.1086 -0.0903
  425YOPC   C3A 5229  13.515   3.742   9.231 -0.3383 -0.0767  0.0071
  425YOPC   C4A 5230  13.558   3.442   9.058 -0.3190  0.1100  0.0050
  425YOPC   C1B 5231  13.605   4.705   9.469 -0.0984 -0.2529  0.0555
  425YOPC   C2B 5232  13.568   4.620   9.082  0.1419  0.1722  0.1889
  425YOPC   D3B 5233  13.225   4.757   8.805  0.2801  0.1382  0.0811
  425YOPC   C4B 5234  13.015   5.036   8.715  0.0650 -0.0516 -0.0060
  426YOPC   NC3 5235   7.442   3.500   9.970 -0.0342 -0.0887  0.0268
  426YOPC   PO4 5236   7.104   3.563   9.686 -0.1309 -0.2770  0.2776
  426YOPC   GL1 5237   6.884   3.839   9.365 -0.0606  0.3097 -0.3761
  426YOPC   GL2 5238   6.806   4.128   9.515  0.0061 -0.1375 -0.2346
  426YOPC   C1A 5239   7.060   3.952   8.915 -0.1494  0.2005 -0.1102
  426YOPC   D2A 5240   7.059   3.827   8.562 -0.1091  0.0783 -0.0539
  426YOPC   C3A 5241   7.211   4.010   8.125  0.0507 -0.2378  0.3694
  426YOPC   C4A 5242   7.600   4.152   7.962 -0.0246  0.0728  0.3052
  426YOPC   C1B 5243   6.844   4.313   9.149  0.2054  0.0343 -0.0916
  426YOPC   C2B 5244   6.926   4.497   8.768 -0.0861  0.4128  0.1201
  426YOPC   D3B 5245   6.816   4.182   8.409 -0.2050  0.0544 -0.0494
  426YOPC   C4B 5246   6.729   4.016   8.089  0.0082 -0.0237 -0.0037
  427YOPC   NC3 5247  17.087   9.719  10.773  0.0575  0.2566 -0.1930
  427YOPC   PO4 5248  16.704   9.531  10.553 -0.0846  0.2689 -0.0916
  427YOPC   GL1 5249  16.580   9.646  10.244  0.2581 -0.0157  0.0632
  427YOPC   GL2 5250  16.833   9.740   9.997 -0.0914 -0.0791  0.1987
  427YOPC   C1A 5251  16.579   9.327   9.865 -0.0522  0.2245 -0.0166
  427YOPC   D2A 5252  16.685   9.006   9.514 -0.1356  0.2363 -0.0814
  427YOPC   C3A 5253  16.951   9.106   9.202 -0.1173 -0.2472 -0.2271
  427YOPC   C4A 5254  17.291   8.811   8.985  0.0212 -0.1172  0.0143
  427YOPC   C1B 5255  16.888   9.920   9.603 -0.1273  0.2727 -0.0517
  427YOPC   C2B 5256  17.122  10.286   9.506  0.0233  0.0752  0.0306
  427YOPC   D3B 5257  17.182  10.344   9.152 -0.1146  0.1698  0.0665
  427YOPC   C4B 5258  17.298  10.111   8.838 -0.2412  0.2246  0.0352
  428YOPC   NC3 5259  11.886  10.276  10.736  0.1962  0.2120 -0.3467
  428YOPC   PO4 5260  12.077   9.987  10.813 -0.1150 -0.0806  0.2627
  428YOPC   GL1 5261  11.839   9.747  10.420  0.1592 -0.2290 -0.0440
  428YOPC   GL2 5262  11.742  10.022  10.359 -0.0415 -0.0665 -0.1463
  428YOPC   C1A 5263  11.600   9.608   9.942 -0.3443 -0.0253  0.1134
  428YOPC   D2A 5264  11.589   9.244   9.669  0.0337 -0.0981  0.1102
  428YOPC   C3A 5265  11.552   9.355   9.278  0.2353 -0.4025  0.1820
  428YOPC   C4A 5266  11.373   9.466   8.860 -0.2157  0.0438 -0.1203
  428YOPC   C1B 5267  11.880  10.166   9.929  0.0231  0.1179  0.5037
  428YOPC   C2B 5268  12.030  10.073   9.582  0.2391  0.2297  0.1163
  428YOPC   D3B 5269  12.000  10.173   9.085 -0.0998 -0.2487  0.0328
  428YOPC   C4B 5270  11.744  10.245   8.774 -0.0441  0.0571 -0.1377
  429YOPC   NC3 5271  12.261   0.969  10.984  0.0961 -0.1422  0.1576
  429YOPC   PO4 5272  12.283   1.332  10.692  0.1562 -0.3043  0.1170
  429YOPC   GL1 5273  12.423   1.089  10.281  0.1748 -0.0178 -0.0905
  429YOPC   GL2 5274  12.479   1.323  10.215 -0.4398 -0.0555  0.0662
  429YOPC   C1A 5275  12.412   0.817   9.977 -0.0689 -0.1917 -0.1797
  429YOPC   D2A 5276  12.342   0.806   9.657 -0.3843 -0.2346 -0.3527
  429YOPC   C3A 5277  11.991   0.835   9.332 -0.1674 -0.0358  0.0685
  429YOPC   C4A 5278  11.751   0.899   8.959 -0.1188 -0.1598  0.1970
  429YOPC   C1B 5279  12.484   1.297   9.712  0.0678 -0.1697 -0.1822
  429YOPC   C2B 5280  12.344   1.201   9.253  0.0258 -0.3435 -0.3356
  429YOPC   D3B 5281  12.002   1.356   9.106  0.0350  0.0590 -0.0380
  429YOPC   C4B 5282  11.773   1.356   8.695  0.0309 -0.0502 -0.2694
  430YOPC   NC3 5283   4.453   3.237  10.738  0.0126 -0.0355  0.2357
  430YOPC   PO4 5284   4.659   3.135  10.413  0.0647 -0.0428  0.1084
  430YOPC   GL1 5285   4.622   3.202   9.873  0.0982 -0.0475 -0.0471
  430YOPC   GL2 5286   4.384   3.230   9.814 -0.0327 -0.2769  0.1119
  430YOPC   C1A 5287   4.649   3.375   9.482 -0.3371 -0.0376  0.1659
  430YOPC   D2A 5288   4.236   3.430   9.180 -0.2264  0.2911  0.2295
  430YOPC   C3A 5289   4.255   3.692   8.844  0.1542  0.1615 -0.1050
  430YOPC   C4A 5290   4.325   3.791   8.450  0.0639  0.1002  0.0603
  430YOPC   C1B 5291   4.120   3.110   9.490 -0.1503  0.3601  0.0452
  430YOPC   C2B 5292   3.710   2.888   9.170  0.1768 -0.3944 -0.1704
  430YOPC   D3B 5293   3.733   3.133   8.943 -0.0495  0.1098 -0.1311
  430YOPC   C4B 5294   4.098   3.190   8.726  0.1496  0.0156  0.1502
  431YOPC   NC3 5295   4.136   8.777  10.733  0.0449 -0.0840 -0.0129
  431YOPC   PO4 5296   3.817   9.137  10.633  0.0365 -0.3003  0.2280
  431YOPC   GL1 5297   3.798   9.323  10.230 -0.0817 -0.1399 -0.0443
  431YOPC   GL2 5298   3.531   9.271  10.130 -0.0110  0.0031 -0.1389
  431YOPC   C1A 5299   3.895   9.348   9.809 -0.0721  0.2486 -0.1609
  431YOPC   D2A 5300   3.819   9.364   9.428  0.0433  0.0765 -0.0876
  431YOPC   C3A 5301   4.018   9.185   9.099 -0.2432  0.2971 -0.2099
  431YOPC   C4A 5302   4.492   9.019   8.954 -0.3588  0.0537 -0.0651
  431YOPC   C1B 5303   3.579   8.959   9.800 -0.0160 -0.0953 -0.1259
  431YOPC   C2B 5304   3.546   8.831   9.439 -0.1150 -0.2101 -0.0564
  431YOPC   D3B 5305   3.604   8.955   9.097 -0.3813 -0.0034 -0.3514
  431YOPC   C4B 5306   3.614   8.942   8.728  0.0866  0.1782 -0.0796
  432YOPC   NC3 5307  16.734  17.755  10.124  0.2592 -0.1692 -0.1724
  432YOPC   PO4 5308  16.513  18.140  10.302  0.5444  0.0639  0.0304
  432YOPC   GL1 5309  16.606  18.177   9.857  0.0532  0.0818  0.0582
  432YOPC   GL2 5310  16.815  18.330   9.759  0.2783 -0.2347 -0.1667
  432YOPC   C1A 5311  16.403  17.933   9.532  0.1072 -0.0401  0.0999
  432YOPC   D2A 5312  16.118  17.955   9.225  0.0429  0.0329  0.0159
  432YOPC   C3A 5313  15.707  17.990   9.163  0.2254 -0.2460 -0.0082
  432YOPC   C4A 5314  15.357  17.890   8.912 -0.0256  0.0814  0.1238
  432YOPC   C1B 5315  16.908  18.473   9.428  0.0761  0.1242 -0.1659
  432YOPC   C2B 5316  16.903  18.414   8.933 -0.2623 -0.1775 -0.2672
  432YOPC   D3B 5317  17.247  18.462   8.737 -0.0633 -0.0773 -0.2214
  432YOPC   C4B 5318  17.654  18.388   8.959  0.3025 -0.0220 -0.1383
  433YOPC   NC3 5319   6.512   1.652  10.061  0.1856 -0.0485  0.3580
  433YOPC   PO4 5320   6.185   1.918   9.865  0.0313 -0.2154  0.3634
  433YOPC   GL1 5321   6.362   1.846   9.436  0.0572 -0.0391 -0.6085
  433YOPC   GL2 5322   6.712   1.779   9.282  0.0469 -0.1761  0.0596
  433YOPC   C1A 5323   6.167   1.826   8.895  0.1671 -0.2863  0.0291
  433YOPC   D2A 5324   6.112   1.764   8.448  0.0241 -0.0093  0.1758
  433YOPC   C3A 5325   6.416   1.899   8.128  0.0897  0.0270  0.1875
  433YOPC   C4A 5326   6.399   2.327   8.012 -0.0444  0.1227 -0.1648
  433YOPC   C1B 5327   6.571   1.633   8.948 -0.2682  0.3011  0.1445
  433YOPC   C2B 5328   6.625   1.553   8.502  0.0178 -0.0466  0.0036
  433YOPC   D3B 5329   6.383   1.334   8.208  0.1675 -0.0076 -0.2638
  433YOPC   C4B 5330   5.895   1.363   8.147 -0.1164  0.1390  0.2602
  434YOPC   NC3 5331   3.337  14.038   9.817  0.1303  0.0928  0.2548
  434YOPC   PO4 5332   3.097  13.705   9.795 -0.0711 -0.0791  0.3236
  434YOPC   GL1 5333   3.096  13.704   9.390  0.0103  0.1420  0.1279
  434YOPC   GL2 5334   3.251  13.955   9.301  0.1189  0.1317 -0.1276
  434YOPC   C1A 5335   3.089  13.542   8.934  0.0618  0.0105  0.2074
  434YOPC   D2A 5336   3.203  13.522   8.539 -0.2561  0.0022 -0.3155
  434YOPC   C3A 5337   3.414  13.234   8.353  0.2054  0.0849  0.0357
  434YOPC   C4A 5338   3.632  12.830   8.256 -0.2074  0.2622 -0.3376
  434YOPC   C1B 5339   3.402  13.856   8.881 -0.1955  0.0579  0.4806
  434YOPC   C2B 5340   3.487  13.916   8.488 -0.0316  0.1505  0.0978
  434YOPC   D3B 5341   3.681  13.645   8.252 -0.1550  0.2611  0.3994
  434YOPC   C4B 5342   3.672  13.542   7.812  0.1282  0.1336  0.1383
  435YOPC   NC3 5343  12.690   4.991  10.658  0.0041  0.0151 -0.0722
  435YOPC   PO4 5344  12.990   4.661  10.606 -0.1280  0.0158  0.0681
  435YOPC   GL1 5345  12.932   4.640  10.156 -0.3118 -0.1782 -0.0554
  435YOPC   GL2 5346  13.184   4.734   9.889  0.0185  0.0168  0.0146
  435YOPC   C1A 5347  12.651   4.460   9.805  0.0114  0.0870  0.3562
  435YOPC   D2A 5348  12.482   4.114   9.387  0.1224  0.0356  0.0184
  435YOPC   C3A 5349  12.324   4.314   8.969  0.0794 -0.3841 -0.0773
  435YOPC   C4A 5350  12.123   4.656   8.642 -0.0029  0.1262 -0.0861
  435YOPC   C1B 5351  13.121   4.654   9.396  0.2825 -0.0421  0.0072
  435YOPC   C2B 5352  12.817   4.479   9.220 -0.3408  0.0935 -0.2957
  435YOPC   D3B 5353  12.760   4.444   8.717 -0.2905 -0.1779 -0.0600
  435YOPC   C4B 5354  12.672   4.277   8.246  0.0650 -0.2664  0.1866
  436YOPC   NC3 5355  10.263  16.848  10.832 -0.2977  0.1028 -0.1991
  436YOPC   PO4 5356  10.477  17.183  10.659 -0.0747  0.0583 -0.2079
  436YOPC   GL1 5357  10.541  17.148  10.362  0.5707 -0.0324 -0.0531
  436YOPC   GL2 5358  10.742  16.980  10.193 -0.0376  0.0371 -0.1629
  436YOPC   C1A 5359  10.175  17.033  10.064  0.0538  0.1095 -0.2831
  436YOPC   D2A 5360   9.881  16.964   9.762 -0.1356 -0.0359 -0.1101
  436YOPC   C3A 5361   9.938  17.019   9.281  0.0180 -0.0749 -0.1497
  436YOPC   C4A 5362  10.143  16.994   8.968 -0.2656 -0.1030  0.2675
  436YOPC   C1B 5363  10.849  16.609  10.311 -0.0061 -0.1787 -0.1341
  436YOPC   C2B 5364  10.694  16.255  10.331  0.2288  0.1206  0.1731
  436YOPC   D3B 5365  10.506  16.098  10.006  0.0765 -0.1517 -0.1890
  436YOPC   C4B 5366  10.585  15.771   9.653 -0.0295 -0.1880 -0.0330
  437YOPC   NC3 5367   8.836  15.376  11.190  0.1549  0.1820 -0.2948
  437YOPC   PO4 5368   8.796  15.096  10.886 -0.1287  0.0193 -0.3762
  437YOPC   GL1 5369   8.787  15.411  10.557  0.2867 -0.1846  0.2798
  437YOPC   GL2 5370   9.102  15.562  10.645  0.2968  0.1259  0.0525
  437YOPC   C1A 5371   8.783  15.509  10.156  0.1576 -0.1497  0.2781
  437YOPC   D2A 5372   8.659  15.567   9.737 -0.2735  0.1565 -0.0460
  437YOPC   C3A 5373   8.513  15.258   9.442 -0.0541  0.0118 -0.0305
  437YOPC   C4A 5374   8.397  14.906   9.210 -0.1275  0.1286 -0.1015
  437YOPC   C1B 5375   9.201  15.275  10.301 -0.3575 -0.0723  0.0329
  437YOPC   C2B 5376   9.227  15.375   9.776  0.1136  0.2056 -0.2074
  437YOPC   D3B 5377   8.999  15.410   9.412 -0.2198 -0.0812  0.0654
  437YOPC   C4B 5378   8.821  15.551   9.006  0.0018 -0.0416  0.1279
  438YOPC   NC3 5379  15.955   8.990  10.721  0.1203  0.0012 -0.2336
  438YOPC   PO4 5380  16.432   9.137  10.801 -0.2100 -0.1718  0.1202
  438YOPC   GL1 5381  16.451   9.104  10.407  0.1758 -0.1824 -0.0958
  438YOPC   GL2 5382  16.130   9.104  10.282  0.1867 -0.0587  0.0949
  438YOPC   C1A 5383  16.416   8.889   9.970 -0.1986  0.3933  0.1047
  438YOPC   D2A 5384  16.545   8.551   9.717  0.0952  0.1396  0.0560
  438YOPC   C3A 5385  16.495   8.414   9.275  0.0749  0.0853 -0.2223
  438YOPC   C4A 5386  16.453   8.251   8.851  0.0274  0.0373 -0.0550
  438YOPC   C1B 5387  16.075   9.276   9.913 -0.0300 -0.0060  0.0963
  438YOPC   C2B 5388  16.221   9.168   9.499 -0.0068  0.0549 -0.1377
  438YOPC   D3B 5389  16.450   9.276   9.161  0.1569  0.0947  0.3022
  438YOPC   C4B 5390  16.711   9.296   8.839 -0.2335  0.3888  0.0445
  439YOPC   NC3 5391  16.556  14.984  11.000  0.0236  0.0056 -0.2541
  439YOPC   PO4 5392  16.691  14.651  10.906 -0.0001 -0.0387  0.2039
  439YOPC   GL1 5393  16.492  14.746  10.564  0.1869  0.0824 -0.1359
  439YOPC   GL2 5394  16.310  14.554  10.334 -0.1111  0.3236  0.1318
  439YOPC   C1A 5395  16.396  15.053  10.253 -0.0466  0.3896  0.1956
  439YOPC   D2A 5396  16.066  15.327  10.295  0.0949 -0.3580 -0.2567
  439YOPC   C3A 5397  15.815  15.485  10.012 -0.2677 -0.1743  0.0476
  439YOPC   C4A 5398  15.811  15.337   9.529 -0.1080 -0.1893 -0.1764
  439YOPC   C1B 5399  16.561  14.700   9.886  0.2456  0.1318  0.0858
  439YOPC   C2B 5400  16.494  14.761   9.448  0.0124 -0.2296  0.5857
  439YOPC   D3B 5401  16.119  14.531   9.180  0.2043 -0.1337  0.3917
  439YOPC   C4B 5402  15.830  14.283   9.386 -0.0876  0.1703 -0.1703
  440YOPC   NC3 5403  12.131  14.768  11.038  0.2232 -0.0751  0.2538
  440YOPC   PO4 5404  11.795  14.691  11.217  0.1306  0.2698  0.0696
  440YOPC   GL1 5405  11.687  14.469  10.906 -0.1288 -0.0546  0.2944
  440YOPC   GL2 5406  11.394  14.172  10.903 -0.2096 -0.1305  0.1230
  440YOPC   C1A 5407  11.451  14.516  10.520 -0.1566  0.1509  0.5316
  440YOPC   D2A 5408  11.724  14.379  10.148 -0.0280  0.0212 -0.1536
  440YOPC   C3A 5409  11.814  14.313   9.754 -0.0532  0.0229 -0.2946
  440YOPC   C4A 5410  11.759  14.347   9.311  0.2006 -0.0907 -0.1049
  440YOPC   C1B 5411  11.573  13.987  10.509  0.0317  0.1144 -0.1043
  440YOPC   C2B 5412  11.787  13.909  10.163  0.0056 -0.1962  0.0463
  440YOPC   D3B 5413  11.705  13.816   9.793  0.3762  0.1153  0.2483
  440YOPC   C4B 5414  11.606  13.904   9.388 -0.2322 -0.1215 -0.0098
  441YOPC   NC3 5415   6.654   5.309  10.914 -0.2894  0.0538  0.1180
  441YOPC   PO4 5416   6.454   5.432  10.524 -0.0074 -0.0895 -0.1566
  441YOPC   GL1 5417   6.396   5.550  10.137  0.1773 -0.0688  0.2001
  441YOPC   GL2 5418   6.165   5.817  10.120 -0.1712 -0.1266 -0.0462
  441YOPC   C1A 5419   6.424   5.656   9.680 -0.0069 -0.1074  0.1423
  441YOPC   D2A 5420   6.348   5.925   9.402  0.0642  0.0249  0.4643
  441YOPC   C3A 5421   6.402   5.934   8.945 -0.2201 -0.0457 -0.2092
  441YOPC   C4A 5422   6.502   6.115   8.579 -0.1056 -0.2694 -0.0363
  441YOPC   C1B 5423   6.043   6.042   9.781  0.0275 -0.1560 -0.1476
  441YOPC   C2B 5424   5.831   6.006   9.397 -0.0023 -0.0834  0.0110
  441YOPC   D3B 5425   6.039   6.219   9.069  0.2118  0.2344 -0.3314
  441YOPC   C4B 5426   6.183   6.464   8.712 -0.2351 -0.0824 -0.0512
  442YOPC   NC3 5427  17.884   0.032  10.190  0.0432  0.1981  0.1512
  442YOPC   PO4 5428  17.500   0.274   9.977 -0.1675 -0.0646  0.0296
  442YOPC   GL1 5429  17.293   0.136   9.591 -0.0979 -0.0517 -0.0380
  442YOPC   GL2 5430  17.567   0.380   9.501  0.1370 -0.2181  0.3249
  442YOPC   C1A 5431  17.265   0.157   9.192  0.0229  0.1662 -0.2249
  442YOPC   D2A 5432  17.117  -0.001   8.853 -0.0653  0.3056 -0.2790
  442YOPC   C3A 5433  16.978   0.087   8.499  0.1715  0.1014 -0.2002
  442YOPC   C4A 5434  16.996   0.341   8.212  0.2993  0.0387 -0.0436
  442YOPC   C1B 5435  17.308   0.684   9.162  0.0704  0.3924  0.1932
  442YOPC   C2B 5436  17.108   0.922   8.771 -0.2710  0.0162  0.0838
  442YOPC   D3B 5437  16.816   0.699   8.478  0.2790  0.0038  0.1480
  442YOPC   C4B 5438  16.553   0.318   8.521  0.1556 -0.1062  0.0558
  443YOPC   NC3 5439   0.827  11.856  10.236  0.0249 -0.1212 -0.3928
  443YOPC   PO4 5440   1.072  11.478  10.308  0.0471 -0.1846  0.1232
  443YOPC   GL1 5441   1.251  11.110  10.026 -0.0971  0.1600 -0.1696
  443YOPC   GL2 5442   1.609  11.105   9.847  0.2224  0.0237 -0.1615
  443YOPC   C1A 5443   1.218  10.962   9.619 -0.0247 -0.2004 -0.2391
  443YOPC   D2A 5444   1.297  10.843   9.257  0.1014 -0.2981  0.0555
  443YOPC   C3A 5445   1.378  10.932   8.825 -0.1697 -0.1536  0.2252
  443YOPC   C4A 5446   1.646  10.755   8.564 -0.1140 -0.2568 -0.2679
  443YOPC   C1B 5447   1.709  11.120   9.386  0.1146 -0.1631 -0.1191
  443YOPC   C2B 5448   1.790  11.168   8.938  0.0689  0.0661 -0.0494
  443YOPC   D3B 5449   2.095  10.853   8.667 -0.1153 -0.0611  0.0250
  443YOPC   C4B 5450   2.201  10.480   8.476  0.0098  0.0236  0.0717
  444YOPC   NC3 5451   3.896  13.047  10.006 -0.0191 -0.0881  0.1570
  444YOPC   PO4 5452   3.528  12.912  10.113 -0.1109  0.2906 -0.3025
  444YOPC   GL1 5453   3.648  12.690   9.744 -0.0337 -0.0850 -0.2540
  444YOPC   GL2 5454   3.279  12.586   9.663 -0.2633  0.2151 -0.2013
  444YOPC   C1A 5455   3.601  12.741   9.283 -0.0017  0.1384  0.0663
  444YOPC   D2A 5456   3.802  12.959   9.045  0.0329  0.0623 -0.2637
  444YOPC   C3A 5457   4.066  13.229   9.045 -0.1392  0.3913 -0.0244
  444YOPC   C4A 5458   4.399  13.208   8.728  0.2143 -0.0936  0.3179
  444YOPC   C1B 5459   3.186  12.517   9.212 -0.0166 -0.2492  0.1535
  444YOPC   C2B 5460   3.170  12.365   8.773 -0.1600  0.2940  0.1954
  444YOPC   D3B 5461   3.431  12.048   8.582  0.0051  0.0877 -0.2451
  444YOPC   C4B 5462   3.746  11.890   8.225  0.1231 -0.0979 -0.1573
  445YOPC   NC3 5463  16.747  16.843  10.624 -0.1365 -0.0410 -0.1881
  445YOPC   PO4 5464  16.280  16.879  10.618  0.1332 -0.1070 -0.0256
  445YOPC   GL1 5465  16.438  16.713  10.204 -0.1818  0.1515  0.2881
  445YOPC   GL2 5466  16.308  16.495  10.151  0.3476 -0.0182 -0.0456
  445YOPC   C1A 5467  16.614  16.685   9.807  0.1986  0.1100 -0.1828
  445YOPC   D2A 5468  17.096  16.800   9.688 -0.2654 -0.2279  0.1462
  445YOPC   C3A 5469  17.070  16.846   9.252 -0.3252  0.4600 -0.1145
  445YOPC   C4A 5470  16.975  16.678   8.856 -0.0791  0.0562 -0.0281
  445YOPC   C1B 5471  16.054  16.568   9.791 -0.2358 -0.0994 -0.0548
  445YOPC   C2B 5472  15.940  16.313   9.506  0.0429  0.0633 -0.0612
  445YOPC   D3B 5473  15.952  16.490   9.065 -0.1222  0.1884  0.0305
  445YOPC   C4B 5474  15.561  16.676   8.930 -0.1784  0.0768 -0.0202
  446YOPC   NC3 5475  10.242  15.342  11.423 -0.1094  0.0522  0.0834
  446YOPC   PO4 5476  10.114  15.797  11.311 -0.0340  0.0409 -0.1169
  446YOPC   GL1 5477  10.052  15.648  10.926 -0.2534 -0.0430  0.1630
  446YOPC   GL2 5478  10.290  15.922  10.786 -0.0606 -0.1365 -0.1171
  446YOPC   C1A 5479  10.003  15.537  10.484  0.0624 -0.3824 -0.1799
  446YOPC   D2A 5480  10.352  15.527  10.203 -0.3141 -0.1303 -0.2444
  446YOPC   C3A 5481  10.270  15.347   9.763  0.1321 -0.1894 -0.0127
  446YOPC   C4A 5482  10.423  15.298   9.447 -0.4152  0.0868 -0.0009
  446YOPC   C1B 5483  10.656  15.833  10.564 -0.0199  0.0258 -0.1605
  446YOPC   C2B 5484  10.850  15.798  10.180 -0.1881 -0.2576 -0.4259
  446YOPC   D3B 5485  10.788  15.409   9.890 -0.3857  0.1879  0.1983
  446YOPC   C4B 5486  10.668  14.979   9.904 -0.0015 -0.0676  0.1444
  447YOPC   NC3 5487   0.425   5.528  10.585 -0.0094  0.0030  0.0383
  447YOPC   PO4 5488   0.796   5.191  10.607  0.1215 -0.0306  0.0828
  447YOPC   GL1 5489   0.956   5.435  10.205 -0.1700 -0.0631 -0.6588
  447YOPC   GL2 5490   1.168   5.686  10.192 -0.1934 -0.2829 -0.0382
  447YOPC   C1A 5491   0.977   5.421   9.746 -0.1899  0.1006  0.1506
  447YOPC   D2A 5492   0.999   5.319   9.352  0.2032  0.0050 -0.0203
  447YOPC   C3A 5493   1.213   5.559   9.063  0.1451 -0.1418 -0.0446
  447YOPC   C4A 5494   1.227   5.606   8.589 -0.0072  0.1254 -0.0063
  447YOPC   C1B 5495   1.435   5.612   9.787 -0.3601  0.0308 -0.0633
  447YOPC   C2B 5496   1.511   5.577   9.421  0.1754  0.2190  0.2804
  447YOPC   D3B 5497   1.727   5.454   8.992  0.2038 -0.3082 -0.2073
  447YOPC   C4B 5498   2.073   5.475   8.548 -0.0062  0.1914 -0.0088
  448YOPC   NC3 5499   2.091   2.509   9.844  0.3507  0.1153 -0.3801
  448YOPC   PO4 5500   1.942   2.046   9.955 -0.0642 -0.1873  0.1417
  448YOPC   GL1 5501   1.946   2.128   9.544  0.3341 -0.1500  0.0763
  448YOPC   GL2 5502   1.743   2.451   9.517 -0.1914  0.0961  0.2255
  448YOPC   C1A 5503   1.967   2.202   9.073  0.3623 -0.0386  0.0760
  448YOPC   D2A 5504   1.863   2.145   8.689  0.3121 -0.0718  0.0115
  448YOPC   C3A 5505   1.965   2.274   8.218  0.2107 -0.1531  0.0296
  448YOPC   C4A 5506   2.225   2.639   8.082  0.1606  0.2505  0.2137
  448YOPC   C1B 5507   1.512   2.343   9.277 -0.0004  0.0239 -0.1499
  448YOPC   C2B 5508   1.380   2.442   8.880 -0.3550 -0.4343  0.0895
  448YOPC   D3B 5509   1.502   2.416   8.420  0.1948  0.0642 -0.0513
  448YOPC   C4B 5510   1.517   2.322   7.996 -0.0585 -0.0223 -0.1438
  449YOPC   NC3 5511  13.692   7.852  11.039 -0.0344 -0.0676  0.2344
  449YOPC   PO4 5512  13.309   7.795  11.205  0.1455  0.0506 -0.0261
  449YOPC   GL1 5513  13.246   7.841  10.738 -0.0250 -0.1822 -0.0146
  449YOPC   GL2 5514  13.045   7.978  10.649  0.0382 -0.4230 -0.1909
  449YOPC   C1A 5515  13.350   7.827  10.274  0.1158  0.1632  0.2997
  449YOPC   D2A 5516  13.182   8.061  10.005 -0.0418  0.2973 -0.0046
  449YOPC   C3A 5517  13.074   8.453  10.034  0.1109  0.1682  0.2722
  449YOPC   C4A 5518  12.865   8.890  10.003  0.1434 -0.1883 -0.0571
  449YOPC   C1B 5519  13.207   8.316  10.494  0.3577 -0.3576 -0.1850
  449YOPC   C2B 5520  13.594   8.443  10.153  0.0711 -0.1302 -0.1132
  449YOPC   D3B 5521  13.446   8.525   9.734  0.0906 -0.2769  0.2451
  449YOPC   C4B 5522  13.037   8.640   9.587 -0.2290  0.0637 -0.5483
  450YOPC   NC3 5523   6.660  15.126  10.590  0.1762 -0.0312  0.2231
  450YOPC   PO4 5524   7.040  15.232  10.563  0.3690  0.1661  0.0536
  450YOPC   GL1 5525   6.860  15.347  10.115 -0.2766  0.1145  0.1200
  450YOPC   GL2 5526   7.032  15.543   9.945  0.3082  0.0261 -0.2228
  450YOPC   C1A 5527   6.609  15.462   9.768  0.1307 -0.0739 -0.2074
  450YOPC   D2A 5528   6.544  15.540   9.342 -0.0034 -0.1333  0.3451
  450YOPC   C3A 5529   6.423  15.286   8.981 -0.0333 -0.0256 -0.0831
  450YOPC   C4A 5530   6.661  15.067   8.651  0.1542  0.0622  0.1509
  450YOPC   C1B 5531   7.069  15.604   9.452  0.3922 -0.0035 -0.1073
  450YOPC   C2B 5532   6.975  15.771   9.137  0.1401 -0.0156  0.2293
  450YOPC   D3B 5533   6.931  15.486   8.708  0.0664  0.1134  0.1827
  450YOPC   C4B 5534   6.959  15.203   8.307  0.1324  0.3215 -0.0826
  451YOPC   NC3 5535   5.382   7.627  10.849 -0.2025  0.0567  0.0986
  451YOPC   PO4 5536   5.690   7.462  10.415  0.2601 -0.0722  0.1386
  451YOPC   GL1 5537   5.856   7.405   9.981 -0.0492  0.1011 -0.1792
  451YOPC   GL2 5538   6.050   7.134  10.040 -0.1637  0.2423  0.0709
  451YOPC   C1A 5539   5.773   7.293   9.485  0.0719  0.0127 -0.1338
  451YOPC   D2A 5540   5.830   7.298   8.961  0.2724  0.0514  0.0693
  451YOPC   C3A 5541   5.533   7.606   8.895  0.1212 -0.0482  0.2866
  451YOPC   C4A 5542   5.444   7.994   8.576  0.0261 -0.1999  0.0786
  451YOPC   C1B 5543   6.294   7.210   9.686 -0.2038  0.1092  0.0013
  451YOPC   C2B 5544   6.217   7.296   9.254 -0.0587 -0.0186  0.0979
  451YOPC   D3B 5545   6.279   6.975   8.948 -0.1143 -0.0639  0.1843
  451YOPC   C4B 5546   5.881   6.869   8.678 -0.1360  0.1369  0.0929
  452YOPC   NC3 5547  14.214  17.640  10.451 -0.0098  0.0439 -0.0111
  452YOPC   PO4 5548  14.637  17.497  10.349 -0.2333  0.1442 -0.0910
  452YOPC   GL1 5549  14.541  17.817  10.005 -0.2293 -0.1167 -0.0457
  452YOPC   GL2 5550  14.169  17.988  10.021 -0.0081  0.1024  0.0601
  452YOPC   C1A 5551  14.579  17.910   9.568  0.1937  0.2024  0.0020
  452YOPC   D2A 5552  14.473  18.146   9.232 -0.1869  0.2532 -0.0976
  452YOPC   C3A 5553  14.514  18.342   8.799 -0.2507  0.0793  0.1536
  452YOPC   C4A 5554  14.536  18.171   8.358  0.0879  0.1916 -0.1545
  452YOPC   C1B 5555  14.148  18.036   9.667  0.0947 -0.1049 -0.0113
  452YOPC   C2B 5556  13.940  18.072   9.328  0.0322 -0.1646  0.0285
  452YOPC   D3B 5557  14.066  18.472   9.048 -0.2536 -0.0108 -0.0927
  452YOPC   C4B 5558  13.831  18.481   8.692  0.3118 -0.0287  0.0810
  453YOPC   NC3 5559   1.710   2.796   9.969 -0.2710 -0.0295 -0.3068
  453YOPC   PO4 5560   1.493   2.415  10.001 -0.0382 -0.0281  0.3521
  453YOPC   GL1 5561   1.292   2.545   9.709 -0.1365 -0.2511 -0.0273
  453YOPC   GL2 5562   1.100   2.376   9.568 -0.0792 -0.2042  0.3062
  453YOPC   C1A 5563   1.295   2.753   9.264  0.1465 -0.0191  0.1552
  453YOPC   D2A 5564   1.302   3.039   9.014  0.0369 -0.2014  0.2781
  453YOPC   C3A 5565   1.312   2.950   8.677  0.3004 -0.1293 -0.0573
  453YOPC   C4A 5566   1.054   3.158   8.352 -0.3252  0.0713 -0.0873
  453YOPC   C1B 5567   1.035   2.212   9.070  0.0628  0.2202 -0.2488
  453YOPC   C2B 5568   0.923   2.227   8.714 -0.2879  0.1092  0.1753
  453YOPC   D3B 5569   1.049   2.577   8.451  0.0507  0.1476 -0.0386
  453YOPC   C4B 5570   1.232   2.781   8.136 -0.1113  0.0729  0.1437
  454YOPC   NC3 5571   9.177   2.501  10.224 -0.0512 -0.0817  0.0092
  454YOPC   PO4 5572   8.925   2.298  10.073 -0.0462 -0.0589  0.1606
  454YOPC   GL1 5573   9.199   2.408   9.692 -0.2966 -0.2295  0.3393
  454YOPC   GL2 5574   9.350   2.224   9.506 -0.0934  0.0859  0.2225
  454YOPC   C1A 5575   9.130   2.571   9.268  0.1242  0.0484  0.0119
  454YOPC   D2A 5576   9.200   2.563   8.849 -0.4049 -0.3027 -0.1922
  454YOPC   C3A 5577   9.404   2.352   8.553 -0.1298 -0.1612 -0.1967
  454YOPC   C4A 5578   9.339   2.447   8.188 -0.2741  0.0935  0.0801
  454YOPC   C1B 5579   9.500   2.155   9.072 -0.0194  0.0133 -0.4622
  454YOPC   C2B 5580   9.799   2.073   8.761 -0.0938 -0.0014  0.2340
  454YOPC   D3B 5581  10.199   2.121   8.748  0.1432 -0.0668  0.4582
  454YOPC   C4B 5582  10.608   2.167   8.667 -0.4283  0.0704 -0.0141
  455YOPC   NC3 5583  11.462   7.521  10.657  0.0040 -0.5066 -0.0765
  455YOPC   PO4 5584  11.194   7.410  10.328 -0.1143 -0.1861  0.0255
  455YOPC   GL1 5585  11.469   7.645  10.034 -0.1875 -0.2088  0.2012
  455YOPC   GL2 5586  11.704   7.521  10.203 -0.0530 -0.5008 -0.2771
  455YOPC   C1A 5587  11.558   7.587   9.695 -0.1406 -0.2015  0.1565
  455YOPC   D2A 5588  11.657   7.602   9.362  0.4742 -0.3018 -0.0438
  455YOPC   C3A 5589  11.454   7.549   8.981 -0.0694  0.2241 -0.1408
  455YOPC   C4A 5590  11.489   7.618   8.496  0.2811 -0.2246  0.1611
  455YOPC   C1B 5591  11.993   7.690   9.919 -0.1941 -0.0759 -0.0885
  455YOPC   C2B 5592  12.133   7.672   9.626 -0.0755  0.1441  0.3305
  455YOPC   D3B 5593  11.995   7.971   9.344 -0.2097  0.2531  0.2943
  455YOPC   C4B 5594  11.821   7.944   8.858  0.1620 -0.1986 -0.2982
  456YOPC   NC3 5595  15.507  17.848  10.786 -0.0824  0.1703  0.1648
  456YOPC   PO4 5596  15.107  17.756  10.708  0.0247 -0.2169  0.1599
  456YOPC   GL1 5597  14.929  17.877  10.346 -0.1195 -0.0365 -0.1174
  456YOPC   GL2 5598  14.873  18.175  10.201  0.0166  0.0050 -0.2787
  456YOPC   C1A 5599  15.004  17.901   9.807  0.1889  0.4423 -0.1465
  456YOPC   D2A 5600  14.970  17.760   9.367 -0.2671  0.1001 -0.1911
  456YOPC   C3A 5601  14.772  17.729   8.984 -0.0863  0.0722  0.2092
  456YOPC   C4A 5602  14.840  17.773   8.521 -0.0624  0.2067 -0.1364
  456YOPC   C1B 5603  15.014  18.366   9.899 -0.0807  0.2723  0.0638
  456YOPC   C2B 5604  14.913  18.369   9.547  0.0510 -0.1857  0.0494
  456YOPC   D3B 5605  14.676  18.603   9.247 -0.2469  0.2767 -0.0485
  456YOPC   C4B 5606  14.414  18.880   9.172  0.1221 -0.1721 -0.1660
  457YOPC   NC3 5607   1.808   1.623   9.810 -0.0957 -0.3071  0.1123
  457YOPC   PO4 5608   1.522   1.462   9.517 -0.0466  0.0587 -0.0330
  457YOPC   GL1 5609   1.801   1.201   9.288  0.1382 -0.2055 -0.0280
  457YOPC   GL2 5610   2.074   1.315   9.420 -0.0883  0.1523 -0.4078
  457YOPC   C1A 5611   1.866   0.943   8.940  0.1846  0.1753  0.1702
  457YOPC   D2A 5612   1.958   0.935   8.530  0.2827 -0.0493 -0.0894
  457YOPC   C3A 5613   2.211   1.196   8.325 -0.1530 -0.1366 -0.2222
  457YOPC   C4A 5614   2.124   1.441   7.996 -0.0363  0.2235  0.0850
  457YOPC   C1B 5615   2.170   1.329   8.953 -0.1510  0.0923 -0.2381
  457YOPC   C2B 5616   2.533   1.393   8.666  0.2248 -0.3460 -0.1343
  457YOPC   D3B 5617   2.644   1.814   8.417  0.0217 -0.0392  0.1059
  457YOPC   C4B 5618   2.913   2.151   8.168  0.1440  0.4304  0.0972
  458YOPC   NC3 5619   1.067   9.493  10.204 -0.0997  0.0030 -0.2032
  458YOPC   PO4 5620   1.404   9.095  10.153 -0.0375  0.2040  0.0226
  458YOPC   GL1 5621   1.322   9.222   9.739 -0.4484 -0.0072  0.1298
  458YOPC   GL2 5622   1.418   9.591   9.777  0.0303 -0.0527  0.0951
  458YOPC   C1A 5623   1.286   9.308   9.343 -0.2785 -0.0019  0.2419
  458YOPC   D2A 5624   1.217   9.375   8.987  0.1460  0.2999  0.2819
  458YOPC   C3A 5625   1.135   8.962   8.759  0.2981  0.3653  0.0347
  458YOPC   C4A 5626   1.060   8.663   8.468 -0.0611 -0.2296  0.0068
  458YOPC   C1B 5627   1.787   9.533   9.480  0.2056  0.2438  0.2590
  458YOPC   C2B 5628   1.845   9.504   8.910  0.0867  0.1211 -0.2815
  458YOPC   D3B 5629   1.684   9.454   8.581 -0.1662  0.0012  0.1845
  458YOPC   C4B 5630   1.221   9.438   8.462 -0.0395 -0.1603  0.0049
  459YOPC   NC3 5631  13.147   9.850  11.674 -0.0469  0.0277  0.0119
  459YOPC   PO4 5632  13.130   9.654  11.232  0.1623 -0.0230 -0.1819
  459YOPC   GL1 5633  13.126   9.975  10.822 -0.1857 -0.2325 -0.0490
  459YOPC   GL2 5634  13.110   9.813  10.480  0.2073 -0.0109  0.0003
  459YOPC   C1A 5635  12.923  10.343  10.572 -0.1163  0.1343 -0.2693
  459YOPC   D2A 5636  12.806  10.634  10.557  0.3223  0.1009  0.1705
  459YOPC   C3A 5637  12.700  10.648  10.157  0.2098 -0.3331  0.0890
  459YOPC   C4A 5638  12.635  10.712   9.798 -0.1892  0.0237  0.0676
  459YOPC   C1B 5639  12.720   9.990  10.298 -0.1656  0.0700  0.3135
  459YOPC   C2B 5640  12.717  10.189   9.880  0.0592 -0.1236  0.1626
  459YOPC   D3B 5641  12.924  10.207   9.462  0.2167 -0.1157 -0.0752
  459YOPC   C4B 5642  13.058  10.476   9.120 -0.1584 -0.0646 -0.1540
  460YOPC   NC3 5643  10.537  16.024  11.217  0.0651  0.1474  0.0321
  460YOPC   PO4 5644  10.557  16.451  11.086 -0.0497 -0.1934 -0.0109
  460YOPC   GL1 5645  10.387  16.406  10.687 -0.2725  0.2267  0.1797
  460YOPC   GL2 5646  10.329  16.628  10.353 -0.0150  0.1850  0.0175
  460YOPC   C1A 5647  10.184  16.154  10.382 -0.0291  0.0508  0.0534
  460YOPC   D2A 5648  10.020  15.898  10.087 -0.0266 -0.0277  0.2628
  460YOPC   C3A 5649  10.089  15.809   9.655 -0.3261 -0.2849 -0.1524
  460YOPC   C4A 5650  10.197  15.622   9.143  0.2846 -0.0661 -0.1854
  460YOPC   C1B 5651  10.534  16.650   9.957 -0.5132 -0.0056 -0.2999
  460YOPC   C2B 5652  10.597  16.439   9.639 -0.0446  0.4579 -0.0273
  460YOPC   D3B 5653  10.358  16.183   9.384 -0.2716  0.1588 -0.1194
  460YOPC   C4B 5654  10.385  16.014   9.005 -0.0936  0.0734 -0.0231
  461YOPC   NC3 5655   3.768  14.877   9.762 -0.1314 -0.2094  0.1857
  461YOPC   PO4 5656   3.482  14.478   9.988  0.0551  0.1041 -0.0785
  461YOPC   GL1 5657   3.467  14.569   9.484  0.2580 -0.0769 -0.0393
  461YOPC   GL2 5658   3.575  14.391   9.339 -0.0340 -0.3145  0.0742
  461YOPC   C1A 5659   3.381  14.841   9.213 -0.0175  0.1805  0.3195
  461YOPC   D2A 5660   3.521  15.026   8.922 -0.0305 -0.1549  0.2048
  461YOPC   C3A 5661   3.610  14.883   8.553  0.1281 -0.0542  0.0762
  461YOPC   C4A 5662   3.757  14.714   8.153 -0.0757 -0.0685 -0.0771
  461YOPC   C1B 5663   3.422  14.324   8.919 -0.2393 -0.3323 -0.3143
  461YOPC   C2B 5664   3.350  14.428   8.497  0.1195 -0.2832 -0.1822
  461YOPC   D3B 5665   3.529  14.265   8.133 -0.3167 -0.0962  0.0149
  461YOPC   C4B 5666   3.913  13.957   7.867  0.3411  0.0825  0.1836
  462YOPC   NC3 5667   7.040   0.030  10.599 -0.4104 -0.0353 -0.0115
  462YOPC   PO4 5668   6.860   0.322  10.360  0.2709 -0.0934 -0.2166
  462YOPC   GL1 5669   7.062   0.078  10.086 -0.1918  0.1168 -0.0071
  462YOPC   GL2 5670   7.309   0.272  10.028  0.0218  0.2141  0.0684
  462YOPC   C1A 5671   6.773  -0.098   9.757  0.0142  0.1977 -0.0389
  462YOPC   D2A 5672   6.582  -0.178   9.453 -0.1806  0.0299 -0.1119
  462YOPC   C3A 5673   6.508  -0.221   9.017  0.0828  0.3318  0.0665
  462YOPC   C4A 5674   6.415   0.088   8.687  0.0882 -0.0214 -0.1348
  462YOPC   C1B 5675   7.231   0.063   9.567 -0.0065 -0.0603  0.0095
  462YOPC   C2B 5676   7.213  -0.130   9.098 -0.2408 -0.0122 -0.3266
  462YOPC   D3B 5677   6.948  -0.391   8.947  0.1631 -0.0196 -0.0594
  462YOPC   C4B 5678   6.712  -0.372   8.527  0.1452 -0.1548  0.1186
  463YOPC   NC3 5679   1.587   8.737  10.955  0.0854 -0.0682  0.1659
  463YOPC   PO4 5680   1.722   8.572  10.573 -0.0876 -0.0243  0.2212
  463YOPC   GL1 5681   1.763   8.418  10.141  0.0236  0.0324  0.2104
  463YOPC   GL2 5682   1.734   8.705   9.957  0.0323 -0.0411  0.1734
  463YOPC   C1A 5683   1.401   8.205   9.880 -0.3254 -0.0816 -0.0627
  463YOPC   D2A 5684   1.065   7.879   9.589 -0.1496 -0.1679 -0.1930
  463YOPC   C3A 5685   0.938   8.085   9.202  0.1027  0.1476 -0.2627
  463YOPC   C4A 5686   1.165   8.276   8.839  0.2371 -0.1826  0.0265
  463YOPC   C1B 5687   1.696   8.477   9.568 -0.0141  0.1744  0.5174
  463YOPC   C2B 5688   1.802   8.379   9.095  0.0148 -0.0780 -0.2235
  463YOPC   D3B 5689   1.639   8.524   8.759  0.3504 -0.0574  0.1389
  463YOPC   C4B 5690   1.521   8.390   8.424  0.0971 -0.0968 -0.1570
  464YOPC   NC3 5691   3.732   7.975  10.860 -0.0745 -0.1542  0.0901
  464YOPC   PO4 5692   3.743   8.448  10.736  0.1502  0.4807  0.0342
  464YOPC   GL1 5693   3.883   8.413  10.359  0.0195  0.0705 -0.0880
  464YOPC   GL2 5694   3.980   8.162  10.330  0.2330  0.2234 -0.3058
  464YOPC   C1A 5695   3.749   8.427   9.945 -0.0634  0.0506  0.2980
  464YOPC   D2A 5696   3.726   8.314   9.561  0.1216  0.0788 -0.0515
  464YOPC   C3A 5697   3.644   8.385   9.203 -0.0903 -0.0381 -0.1058
  464YOPC   C4A 5698   3.344   8.504   8.784  0.0787 -0.1914 -0.1165
  464YOPC   C1B 5699   3.938   7.957   9.922 -0.2814  0.0811  0.0203
  464YOPC   C2B 5700   3.784   7.770   9.479  0.0672  0.4631  0.2180
  464YOPC   D3B 5701   3.756   7.920   9.140 -0.0689  0.1439  0.0306
  464YOPC   C4B 5702   3.660   8.062   8.743 -0.1773 -0.2850 -0.0684
  465YOPC   NC3 5703   9.136   3.909   9.778 -0.0174 -0.1171  0.2505
  465YOPC   PO4 5704   9.097   4.337   9.938  0.1493  0.0842 -0.3221
  465YOPC   GL1 5705   9.061   4.379   9.565  0.3225  0.3353  0.2224
  465YOPC   GL2 5706   8.823   4.498   9.450  0.1482  0.0719  0.4242
  465YOPC   C1A 5707   8.972   4.039   9.181 -0.1157  0.1249 -0.0053
  465YOPC   D2A 5708   8.857   4.021   8.781 -0.2925  0.0279  0.0795
  465YOPC   C3A 5709   9.041   4.086   8.385 -0.1856  0.0837 -0.0995
  465YOPC   C4A 5710   9.358   4.160   7.981 -0.1982  0.2700  0.0136
  465YOPC   C1B 5711   8.570   4.307   9.035  0.0518 -0.1469  0.0196
  465YOPC   C2B 5712   8.313   4.370   8.678 -0.2228  0.1032 -0.0532
  465YOPC   D3B 5713   8.515   4.020   8.353  0.1041  0.1376 -0.0761
  465YOPC   C4B 5714   8.744   3.740   8.195  0.1084 -0.0716  0.0368
  466YOPC   NC3 5715  11.127  12.930  11.375 -0.0883  0.1232  0.3734
  466YOPC   PO4 5716  11.456  13.099  11.108 -0.2517 -0.0903  0.0620
  466YOPC   GL1 5717  11.288  13.214  10.750 -0.0560 -0.0739 -0.0688
  466YOPC   GL2 5718  10.971  13.321  10.803 -0.0476 -0.0110 -0.0373
  466YOPC   C1A 5719  11.298  13.552  10.518 -0.1507 -0.0664 -0.0560
  466YOPC   D2A 5720  11.261  13.730  10.211  0.1234  0.2278  0.0740
  466YOPC   C3A 5721  11.219  13.752   9.720 -0.0817  0.0448 -0.0033
  466YOPC   C4A 5722  11.043  13.809   9.343  0.1084 -0.2047  0.1938
  466YOPC   C1B 5723  10.834  13.626  10.460  0.0929 -0.2845  0.4357
  466YOPC   C2B 5724  10.801  13.747  10.032  0.1352 -0.0162  0.0171
  466YOPC   D3B 5725  10.842  14.134   9.866 -0.3455  0.0803 -0.1301
  466YOPC   C4B 5726  10.771  14.235   9.509 -0.3578 -0.4878 -0.2163
  467YOPC   NC3 5727   2.029  13.936  10.194 -0.2751 -0.2442 -0.1978
  467YOPC   PO4 5728   2.344  13.621  10.122  0.3259  0.3381 -0.0824
  467YOPC   GL1 5729   2.260  13.392   9.681 -0.1177 -0.3594 -0.0337
  467YOPC   GL2 5730   2.050  13.111   9.723  0.0112  0.2004  0.0782
  467YOPC   C1A 5731   2.205  13.158   9.250  0.3141  0.0941  0.0461
  467YOPC   D2A 5732   2.153  12.957   8.903 -0.3947  0.5018 -0.0947
  467YOPC   C3A 5733   2.234  12.724   8.563 -0.0585 -0.2743  0.1043
  467YOPC   C4A 5734   2.033  12.620   8.182  0.1840 -0.0030 -0.0539
  467YOPC   C1B 5735   1.765  13.275   9.381 -0.3217 -0.1493 -0.1759
  467YOPC   C2B 5736   1.432  13.573   9.149 -0.0372 -0.0670 -0.1021
  467YOPC   D3B 5737   1.437  13.586   8.646 -0.0284 -0.3083  0.0095
  467YOPC   C4B 5738   1.702  13.581   8.407  0.2980 -0.0297 -0.0657
  468YOPC   NC3 5739  12.165   9.043  10.962  0.0217 -0.0215  0.3903
  468YOPC   PO4 5740  12.652   9.070  10.781  0.1564  0.2610 -0.1669
  468YOPC   GL1 5741  12.654   9.328  10.339  0.1705 -0.1180  0.0992
  468YOPC   GL2 5742  12.506   9.570  10.388 -0.0055 -0.0740 -0.0326
  468YOPC   C1A 5743  12.594   9.310   9.800 -0.0384 -0.1560 -0.0579
  468YOPC   D2A 5744  12.551   9.360   9.339  0.1692 -0.1580  0.0360
  468YOPC   C3A 5745  12.888   9.554   9.148  0.0306  0.0925  0.0511
  468YOPC   C4A 5746  12.953   9.974   8.931  0.2379  0.3219  0.0662
  468YOPC   C1B 5747  12.164   9.414  10.387 -0.0058  0.0566  0.0403
  468YOPC   C2B 5748  11.849   9.235  10.193  0.3005 -0.0113  0.1423
  468YOPC   D3B 5749  11.432   9.247  10.210 -0.0057  0.1408  0.0202
  468YOPC   C4B 5750  11.122   9.426  10.093  0.1214  0.0394 -0.1285
  469YOPC   NC3 5751   8.158  12.129  11.152  0.0087  0.1594  0.0016
  469YOPC   PO4 5752   8.429  11.808  10.816  0.3390 -0.0380  0.0597
  469YOPC   GL1 5753   8.453  11.862  10.419  0.0316  0.2809  0.0097
  469YOPC   GL2 5754   8.308  12.220  10.486 -0.0080 -0.2970  0.0577
  469YOPC   C1A 5755   8.453  11.790   9.984  0.4392  0.1057 -0.1007
  469YOPC   D2A 5756   8.351  11.611   9.573  0.2057 -0.0102  0.1550
  469YOPC   C3A 5757   8.515  11.247   9.366 -0.0217  0.1452  0.1648
  469YOPC   C4A 5758   8.384  10.806   9.541 -0.4793 -0.4890  0.2572
  469YOPC   C1B 5759   8.033  12.444  10.134  0.0575 -0.2630 -0.0757
  469YOPC   C2B 5760   7.722  12.408   9.764 -0.1666 -0.1101 -0.1297
  469YOPC   D3B 5761   7.840  12.563   9.319  0.2123  0.2176  0.0489
  469YOPC   C4B 5762   8.127  12.481   9.073  0.0166 -0.2582 -0.0373
  470ERGO   ROH 5763   4.444  15.077   9.219  0.2270 -0.0729 -0.1405
  470ERGO    R1 5764   4.485  15.266   9.013  0.2566 -0.0110 -0.0765
  470ERGO    R2 5765   4.706  15.261   8.847  0.1739 -0.0868 -0.1756
  470ERGO    R3 5766   4.519  15.260   8.650  0.0855  0.1263 -0.0980
  470ERGO    R4 5767   4.756  15.378   8.526  0.2078 -0.2145 -0.2187
  470ERGO    R5 5768   4.556  15.464   8.531  0.3172  0.0607 -0.1509
  470ERGO    C1 5769   4.610  15.445   8.154  0.1444 -0.0889 -0.1711
  470ERGO    C2 5770   4.700  15.332   7.729  0.0577  0.1106  0.2889
  471ERGO   ROH 5771  15.512  12.606  10.364  0.0763 -0.1050  0.1301
  471ERGO    R1 5772  15.400  12.718  10.129 -0.1205 -0.1900  0.1812
  471ERGO    R2 5773  15.485  12.648   9.876  0.0309  0.0939  0.1504
  471ERGO    R3 5774  15.221  12.596   9.837  0.1209 -0.3802  0.1084
  471ERGO    R4 5775  15.334  12.616   9.567  0.0598  0.2998  0.1133
  471ERGO    R5 5776  15.163  12.727   9.645 -0.1654 -0.1683  0.3285
  471ERGO    C1 5777  14.998  12.549   9.350  0.1611 -0.0254  0.0523
  471ERGO    C2 5778  14.789  12.465   8.998  0.1371 -0.1802  0.1279
  472ERGO   ROH 5779  10.204  17.937   9.915 -0.1820 -0.1866 -0.0698
  472ERGO    R1 5780  10.130  17.914   9.642 -0.1338  0.0110 -0.1012
  472ERGO    R2 5781  10.119  18.131   9.473  0.0110  0.1196  0.0232
  472ERGO    R3 5782  10.286  17.979   9.320 -0.0292  0.1265 -0.0275
  472ERGO    R4 5783  10.139  18.145   9.128 -0.1176  0.0920  0.0141
  472ERGO    R5 5784  10.157  17.928   9.125 -0.0946  0.0957  0.0248
  472ERGO    C1 5785  10.307  18.011   8.784 -0.2302  0.0824 -0.0386
  472ERGO    C2 5786  10.483  18.030   8.491  0.0689  0.0676  0.0289
  473ERGO   ROH 5787   2.707   8.332  10.084  0.1888  0.1023  0.0088
  473ERGO    R1 5788   2.707   8.399   9.809  0.1489  0.0700  0.0005
  473ERGO    R2 5789   2.838   8.247   9.619  0.0799  0.0200 -0.0083
  473ERGO    R3 5790   2.593   8.245   9.499  0.0558  0.0569  0.0409
  473ERGO    R4 5791   2.784   8.198   9.281  0.0142  0.1396 -0.0153
  473ERGO    R5 5792   2.630   8.352   9.288  0.0112  0.1337  0.0715
  473ERGO    C1 5793   2.523   8.168   8.972 -0.0467  0.2440  0.0268
  473ERGO    C2 5794   2.425   7.867   8.693 -0.1798 -0.4113 -0.2002
  474ERGO   ROH 5795  12.980   0.972  10.120 -0.0879 -0.1325  0.0344
  474ERGO    R1 5796  12.892   1.082   9.874 -0.1427 -0.0965  0.0699
  474ERGO    R2 5797  13.067   1.176   9.682 -0.1887  0.0732  0.1081
  474ERGO    R3 5798  12.930   1.005   9.521 -0.0838  0.0498  0.0435
  474ERGO    R4 5799  13.088   1.171   9.337 -0.0493  0.0974  0.1160
  474ERGO    R5 5800  12.873   1.137   9.330 -0.0386  0.0468  0.0278
  474ERGO    C1 5801  12.972   1.008   8.985  0.1303  0.0896  0.0598
  474ERGO    C2 5802  13.100   0.972   8.671  0.0522 -0.0769  0.0290
  475ERGO   ROH 5803  16.387  14.030  10.338  0.0000  0.0044 -0.0018
  475ERGO    R1 5804  16.236  14.064  10.101 -0.0100 -0.0814 -0.0081
  475ERGO    R2 5805  16.236  13.878   9.897  0.0235 -0.1301  0.0358
  475ERGO    R3 5806  15.966  13.887   9.932  0.0221 -0.1745  0.0375
  475ERGO    R4 5807  16.004  13.728   9.688  0.0401 -0.0266 -0.0577
  475ERGO    R5 5808  15.878  13.905   9.710  0.0244 -0.0498  0.0457
  475ERGO    C1 5809  15.616  13.650   9.600  0.0486 -0.0080 -0.1109
  475ERGO    C2 5810  15.444  13.584   9.321  0.3014  0.0530  0.2631
  476ERGO   ROH 5811   0.242   3.597   9.869 -0.0775 -0.0770  0.1695
  476ERGO    R1 5812   0.215   3.577   9.588  0.1084  0.0639  0.1373
  476ERGO    R2 5813   0.251   3.340   9.451  0.0745  0.0927  0.0484
  476ERGO    R3 5814   0.003   3.395   9.354  0.1686  0.2804 -0.0835
  476ERGO    R4 5815   0.140   3.255   9.135  0.1610  0.2140 -0.0135
  476ERGO    R5 5816   0.040   3.449   9.124  0.3146  0.2738 -0.0505
  476ERGO    C1 5817  -0.158   3.257   8.861  0.2997  0.4610 -0.1735
  476ERGO    C2 5818  -0.261   3.116   8.570 -0.2098  0.1784 -0.1648
  477ERGO   ROH 5819   9.103  14.359  10.558 -0.2495 -0.1004 -0.0137
  477ERGO    R1 5820   9.169  14.462  10.303 -0.2220 -0.0184  0.0255
  477ERGO    R2 5821   9.375  14.360  10.150 -0.0621  0.1707  0.1043
  477ERGO    R3 5822   9.180  14.335   9.962  0.0381  0.0219  0.0185
  477ERGO    R4 5823   9.425  14.388   9.809  0.0777  0.0896  0.1174
  477ERGO    R5 5824   9.237  14.498   9.796  0.0348 -0.0050 -0.0044
  477ERGO    C1 5825   9.271  14.381   9.434  0.2532 -0.0974  0.0446
  477ERGO    C2 5826   9.155  14.554   9.161  0.1485  0.1541 -0.3082
  478ERGO   ROH 5827  13.857   9.090  10.407  0.0217 -0.0316  0.0820
  478ERGO    R1 5828  13.930   9.055  10.136 -0.0087 -0.2321  0.1002
  478ERGO    R2 5829  13.770   8.920   9.955 -0.2946  0.1149  0.0944
  478ERGO    R3 5830  13.795   9.149   9.811  0.2645  0.0498  0.0618
  478ERGO    R4 5831  13.820   8.935   9.613 -0.4993 -0.0712  0.0529
  478ERGO    R5 5832  13.960   9.098   9.646  0.0139 -0.4548 -0.0592
  478ERGO    C1 5833  13.872   9.159   9.279 -0.0939 -0.2407 -0.0019
  478ERGO    C2 5834  13.849   9.114   8.929 -0.1750 -0.0015 -0.3544
  479ERGO   ROH 5835  14.558  14.343  10.373  0.1248 -0.0043  0.0070
  479ERGO    R1 5836  14.432  14.438  10.139 -0.0177 -0.0751  0.0547
  479ERGO    R2 5837  14.553  14.617   9.966 -0.2683  0.1693  0.1277
  479ERGO    R3 5838  14.496  14.427   9.781 -0.0155  0.1677  0.0456
  479ERGO    R4 5839  14.486  14.680   9.633 -0.0422  0.1865  0.0824
  479ERGO    R5 5840  14.330  14.528   9.641  0.0356  0.0966 -0.0685
  479ERGO    C1 5841  14.393  14.539   9.265  0.3269  0.1949 -0.0210
  479ERGO    C2 5842  14.309  14.815   8.999  0.1406  0.0911 -0.1222
  480ERGO   ROH 5843   5.985   1.112   9.552  0.1972  0.1505  0.0874
  480ERGO    R1 5844   5.877   0.978   9.327  0.1600  0.1959  0.0771
  480ERGO    R2 5845   5.796   1.111   9.099  0.2527  0.2307  0.0596
  480ERGO    R3 5846   5.966   0.938   8.976  0.1869  0.1450  0.0907
  480ERGO    R4 5847   5.826   1.072   8.756  0.1043  0.0144  0.0704
  480ERGO    R5 5848   5.842   0.857   8.787  0.1034  0.0354  0.1945
  480ERGO    C1 5849   6.002   0.886   8.442 -0.0439 -0.1921  0.1058
  480ERGO    C2 5850   5.984   0.887   8.113 -0.0699  0.2047 -0.1803
  481ERGO   ROH 5851   5.465   0.092   9.610 -0.2425  0.1581 -0.0823
  481ERGO    R1 5852   5.499   0.128   9.331 -0.2695  0.0854 -0.0950
  481ERGO    R2 5853   5.565  -0.080   9.161 -0.2219  0.0541 -0.0364
  481ERGO    R3 5854   5.343   0.003   9.028 -0.2529 -0.0478 -0.0497
  481ERGO    R4 5855   5.523  -0.096   8.818 -0.1162  0.2056 -0.0576
  481ERGO    R5 5856   5.427   0.100   8.826 -0.2732  0.1293  0.0241
  481ERGO    C1 5857   5.290  -0.028   8.494 -0.0838  0.1983 -0.0826
  481ERGO    C2 5858   5.213  -0.199   8.241  0.0099 -0.1662  0.0940
  482ERGO   ROH 5859  14.290   3.763   9.572 -0.2024  0.0632  0.0943
  482ERGO    R1 5860  14.393   4.010   9.479 -0.1160  0.0319  0.1095
  482ERGO    R2 5861  14.596   4.025   9.292 -0.1027 -0.0294  0.1269
  482ERGO    R3 5862  14.419   4.182   9.159 -0.0378  0.0389  0.1175
  482ERGO    R4 5863  14.682   4.280   9.075  0.0148 -0.1084  0.0780
  482ERGO    R5 5864  14.520   4.399   9.159  0.0778 -0.0097  0.0760
  482ERGO    C1 5865  14.564   4.576   8.824  0.1442 -0.0903  0.0405
  482ERGO    C2 5866  14.759   4.829   8.754 -0.2275  0.0447 -0.0789
  483ERGO   ROH 5867  16.877   3.019   6.423  0.3625  0.0983  0.0495
  483ERGO    R1 5868  16.725   3.039   6.661  0.2199  0.0255 -0.0335
  483ERGO    R2 5869  16.589   2.825   6.770  0.2667 -0.0428 -0.1062
  483ERGO    R3 5870  16.732   2.888   6.992  0.1139  0.0325 -0.0283
  483ERGO    R4 5871  16.516   2.716   7.090  0.1204 -0.0345 -0.1364
  483ERGO    R5 5872  16.567   2.915   7.164  0.0049 -0.0090 -0.1266
  483ERGO    C1 5873  16.607   2.713   7.485 -0.1082  0.0411 -0.0807
  483ERGO    C2 5874  16.677   2.651   7.752 -0.0800 -0.0257 -0.4852
  484ERGO   ROH 5875   6.293  16.132   6.626 -0.1723 -0.1607 -0.0951
  484ERGO    R1 5876   6.205  16.249   6.868 -0.1523 -0.1300 -0.1040
  484ERGO    R2 5877   5.940  16.250   6.946 -0.1102 -0.3316  0.0281
  484ERGO    R3 5878   6.039  16.137   7.172  0.1017 -0.1396  0.0364
  484ERGO    R4 5879   5.804  16.288   7.262 -0.0049 -0.2999  0.0708
  484ERGO    R5 5880   6.006  16.303   7.341  0.0286 -0.0796 -0.0279
  484ERGO    C1 5881   5.818  16.203   7.658  0.2554 -0.1012  0.1034
  484ERGO    C2 5882   5.779  16.040   7.915 -0.0231 -0.1529 -0.0833
  485ERGO   ROH 5883   0.814   9.222   9.884 -0.1051 -0.2214 -0.0027
  485ERGO    R1 5884   0.838   9.094   9.633 -0.0852 -0.2358  0.0062
  485ERGO    R2 5885   0.622   9.051   9.467 -0.0423 -0.0596 -0.1004
  485ERGO    R3 5886   0.776   9.182   9.285  0.1518 -0.1770 -0.0234
  485ERGO    R4 5887   0.567   9.051   9.126 -0.0853  0.2720 -0.0956
  485ERGO    R5 5888   0.782   9.035   9.096 -0.1105 -0.0576 -0.1294
  485ERGO    C1 5889   0.679   9.175   8.756  0.0719  0.3548 -0.0204
  485ERGO    C2 5890   0.628   9.015   8.420  0.0014  0.2966 -0.0236
  486ERGO   ROH 5891  17.331   2.855   9.583 -0.1018  0.0253  0.1520
  486ERGO    R1 5892  17.120   3.003   9.466 -0.2368 -0.0628  0.2769
  486ERGO    R2 5893  17.111   3.060   9.196 -0.1558  0.3673  0.3511
  486ERGO    R3 5894  16.865   2.945   9.213 -0.0131 -0.0049  0.0366
  486ERGO    R4 5895  16.855   3.107   8.968 -0.0774  0.3125  0.2512
  486ERGO    R5 5896  16.715   3.115   9.135 -0.2014 -0.1101  0.1729
  486ERGO    C1 5897  16.475   3.026   8.852  0.1021 -0.0688 -0.1021
  486ERGO    C2 5898  16.458   3.169   8.576 -0.3136 -0.1341 -0.0006
  487ERGO   ROH 5899   3.637   0.018   9.318 -0.0427  0.1030 -0.0338
  487ERGO    R1 5900   3.615  -0.022   9.039  0.0474  0.0650 -0.0367
  487ERGO    R2 5901   3.564  -0.270   8.927  0.1462  0.0357 -0.0249
  487ERGO    R3 5902   3.358  -0.139   8.809  0.1436 -0.0315 -0.0941
  487ERGO    R4 5903   3.442  -0.339   8.612  0.2203 -0.0492 -0.0354
  487ERGO    R5 5904   3.421  -0.124   8.578  0.1831 -0.0638 -0.0825
  487ERGO    C1 5905   3.176  -0.255   8.317  0.2611 -0.1616 -0.1063
  487ERGO    C2 5906   3.095  -0.352   8.105  0.0612  0.0068 -0.1151
  488ERGO   ROH 5907  15.692  17.212  10.025  0.1467 -0.1617  0.0900
  488ERGO    R1 5908  15.840  17.167   9.789  0.0763 -0.2333  0.0583
  488ERGO    R2 5909  15.781  16.964   9.612 -0.1481 -0.1192 -0.0041
  488ERGO    R3 5910  15.774  17.167   9.431  0.0321 -0.0497  0.0659
  488ERGO    R4 5911  15.871  16.936   9.279 -0.0774 -0.0561  0.0100
  488ERGO    R5 5912  15.967  17.131   9.294  0.0447 -0.1237  0.1051
  488ERGO    C1 5913  15.918  17.110   8.916  0.1329  0.0461  0.0838
  488ERGO    C2 5914  15.940  17.190   8.515 -0.3270 -0.0538 -0.3867
  489ERGO   ROH 5915  12.200  13.680  10.428 -0.0084  0.1398  0.0439
  489ERGO    R1 5916  12.275  13.593  10.170 -0.0319  0.1079  0.0475
  489ERGO    R2 5917  12.161  13.373  10.048 -0.0308  0.0812  0.0918
  489ERGO    R3 5918  12.110  13.550   9.848 -0.0667  0.0503  0.0735
  489ERGO    R4 5919  12.021  13.292   9.742 -0.2353  0.0634  0.1886
  489ERGO    R5 5920  12.160  13.429   9.647 -0.2301 -0.0214  0.0759
  489ERGO    C1 5921  11.892  13.411   9.377 -0.3879  0.0242  0.2279
  489ERGO    C2 5922  11.858  13.272   9.040  0.0154 -0.0743 -0.1129
  490ERGO   ROH 5923  12.066   7.163  10.143 -0.2039  0.0419  0.1264
  490ERGO    R1 5924  11.937   7.041   9.922 -0.0497 -0.0182  0.0684
  490ERGO    R2 5925  11.698   7.134   9.819 -0.1259 -0.2205  0.0590
  490ERGO    R3 5926  11.838   7.140   9.587 -0.0929 -0.0123  0.0827
  490ERGO    R4 5927  11.564   7.080   9.505 -0.0738  0.0154 -0.0052
  490ERGO    R5 5928  11.742   6.967   9.454 -0.0503  0.0809 -0.0726
  490ERGO    C1 5929  11.619   7.055   9.104 -0.0125  0.3481 -0.0204
  490ERGO    C2 5930  11.612   7.095   8.731  0.0844 -0.3488  0.0677
  491ERGO   ROH 5931   0.284  17.043   6.202  0.1278 -0.2103 -0.0280
  491ERGO    R1 5932   0.457  16.964   6.411  0.2355  0.1092  0.0093
  491ERGO    R2 5933   0.620  17.142   6.546 -0.1490  0.4261  0.0721
  491ERGO    R3 5934   0.496  17.040   6.765 -0.0102  0.1545  0.0282
  491ERGO    R4 5935   0.712  17.207   6.872 -0.1034  0.2259  0.1005
  491ERGO    R5 5936   0.674  16.997   6.919  0.0655  0.1584 -0.0584
  491ERGO    C1 5937   0.649  17.148   7.269  0.0533 -0.1459  0.0757
  491ERGO    C2 5938   0.700  17.224   7.689 -0.1341 -0.1798  0.2322
  492ERGO   ROH 5939   0.949   6.296  10.073  0.0693  0.0053  0.0403
  492ERGO    R1 5940   1.099   6.158   9.877  0.0736  0.0448  0.0151
  492ERGO    R2 5941   1.014   5.920   9.764  0.1190  0.0202  0.0307
  492ERGO    R3 5942   1.052   6.055   9.531  0.0419  0.0297  0.0241
  492ERGO    R4 5943   0.887   5.825   9.457  0.2312 -0.1063  0.0230
  492ERGO    R5 5944   1.076   5.883   9.366  0.1966  0.0337  0.0417
  492ERGO    C1 5945   0.849   5.896   9.060  0.2243 -0.1711  0.0124
  492ERGO    C2 5946   0.688   5.929   8.706 -0.0381 -0.1106  0.0142
  493ERGO   ROH 5947  16.725   7.128   6.925  0.1695 -0.1066 -0.0423
  493ERGO    R1 5948  16.687   7.011   7.180 -0.0174  0.0933  0.0257
  493ERGO    R2 5949  16.853   6.814   7.280 -0.3533 -0.1643  0.1119
  493ERGO    R3 5950  16.875   6.985   7.490 -0.0238 -0.0808  0.0145
  493ERGO    R4 5951  16.948   6.723   7.599 -0.2976 -0.1104  0.1102
  493ERGO    R5 5952  16.797   6.859   7.678 -0.0823  0.1205  0.1230
  493ERGO    C1 5953  17.024   6.831   7.983  0.0440 -0.0007  0.0178
  493ERGO    C2 5954  17.265   6.672   8.157  0.0531 -0.0096 -0.0926
  494ERGO   ROH 5955   6.880   5.658   9.658 -0.0823 -0.1083  0.0060
  494ERGO    R1 5956   6.815   5.703   9.387  0.0239 -0.0362 -0.0077
  494ERGO    R2 5957   6.874   5.940   9.257  0.1317 -0.0258  0.0607
  494ERGO    R3 5958   6.997   5.774   9.079  0.1494 -0.0221  0.0689
  494ERGO    R4 5959   6.897   5.996   8.916  0.1172 -0.0458  0.0560
  494ERGO    R5 5960   6.860   5.784   8.883  0.1437 -0.0530  0.0710
  494ERGO    C1 5961   7.026   5.874   8.552  0.1253 -0.0538  0.0611
  494ERGO    C2 5962   7.050   6.007   8.236 -0.1667  0.1797  0.1327
  495ERGO   ROH 5963  10.763   7.330  10.045  0.1372 -0.0102 -0.0906
  495ERGO    R1 5964  10.745   7.364   9.764 -0.2187 -0.2120 -0.0991
  495ERGO    R2 5965  10.504   7.389   9.632 -0.3852  0.2092  0.2565
  495ERGO    R3 5966  10.617   7.617   9.537 -0.0134 -0.1099 -0.1036
  495ERGO    R4 5967  10.376   7.578   9.373 -0.3495  0.2662  0.2805
  495ERGO    R5 5968  10.580   7.606   9.300 -0.3795 -0.2412 -0.0463
  495ERGO    C1 5969  10.408   7.902   9.132  0.0204 -0.0002 -0.0435
  495ERGO    C2 5970  10.266   8.025   8.962 -0.2274  0.0041 -0.0116
  496ERGO   ROH 5971   7.383   5.095   9.661 -0.0457 -0.1644 -0.0341
  496ERGO    R1 5972   7.543   5.166   9.439  0.0466 -0.2663 -0.0010
  496ERGO    R2 5973   7.663   4.977   9.275 -0.2899 -0.3520 -0.1594
  496ERGO    R3 5974   7.534   5.114   9.079 -0.0926  0.0173 -0.0406
  496ERGO    R4 5975   7.755   4.980   8.942 -0.1436  0.0192 -0.1207
  496ERGO    R5 5976   7.709   5.192   8.936  0.0334  0.0690  0.1401
  496ERGO    C1 5977   7.689   5.109   8.564  0.1268  0.5821  0.0130
  496ERGO    C2 5978   7.661   5.060   8.161 -0.1710 -0.1469 -0.1249
  497ERGO   ROH 5979  11.364   2.343  10.115 -0.1108 -0.2968 -0.0336
  497ERGO    R1 5980  11.368   2.402   9.838 -0.0150 -0.1263  0.0028
  497ERGO    R2 5981  11.559   2.297   9.666  0.0392 -0.0283  0.0013
  497ERGO    R3 5982  11.340   2.215   9.527  0.0822  0.0652 -0.1229
  497ERGO    R4 5983  11.509   2.349   9.328  0.2076  0.0777 -0.0083
  497ERGO    R5 5984  11.299   2.391   9.370  0.1989  0.1185 -0.0938
  497ERGO    C1 5985  11.275   2.301   9.000  0.3460  0.2272 -0.1305
  497ERGO    C2 5986  11.359   2.296   8.666  0.0291  0.3050 -0.1545
  498ERGO   ROH 5987   4.733   5.090  10.014 -0.0411 -0.1768 -0.0194
  498ERGO    R1 5988   4.774   5.297   9.825 -0.3234 -0.1098 -0.0101
  498ERGO    R2 5989   4.946   5.271   9.611  0.0051  0.2601  0.1997
  498ERGO    R3 5990   4.726   5.341   9.467 -0.0118 -0.3061 -0.0813
  498ERGO    R4 5991   4.952   5.404   9.292  0.1068  0.5218  0.3080
  498ERGO    R5 5992   4.792   5.540   9.351 -0.4209  0.0031  0.1782
  498ERGO    C1 5993   4.749   5.548   8.972  0.1501  0.1426  0.1073
  498ERGO    C2 5994   4.740   5.476   8.694  0.3156  0.1122  0.0124
  499ERGO   ROH 5995  13.419  10.776   7.325  0.0946  0.0326  0.0668
  499ERGO    R1 5996  13.538  10.823   7.577  0.0260  0.3107  0.0506
  499ERGO    R2 5997  13.434  11.001   7.760 -0.4084  0.0272  0.0936
  499ERGO    R3 5998  13.443  10.786   7.926  0.1781  0.0134  0.0641
  499ERGO    R4 5999  13.369  11.013   8.099 -0.5928 -0.2115  0.0695
  499ERGO    R5 6000  13.535  10.874   8.130 -0.1650  0.2776  0.1158
  499ERGO    C1 6001  13.341  10.818   8.453 -0.1494 -0.3634  0.0276
  499ERGO    C2 6002  13.105  10.842   8.756 -0.0243 -0.1814  0.5236
  500ERGO   ROH 6003   6.193  16.481   9.824  0.1125  0.0000  0.0496
  500ERGO    R1 6004   6.242  16.277   9.633  0.2411  0.0139  0.0667
  500ERGO    R2 6005   6.099  16.257   9.398  0.0620 -0.2562  0.1940
  500ERGO    R3 6006   6.346  16.260   9.285 -0.0339  0.0698 -0.0212
  500ERGO    R4 6007   6.197  16.061   9.130  0.0462 -0.0123  0.0062
  500ERGO    R5 6008   6.389  16.032   9.228  0.1668  0.1424 -0.1755
  500ERGO    C1 6009   6.486  15.950   8.869 -0.0530  0.4356 -0.3051
  500ERGO    C2 6010   6.525  15.701   8.670  0.1662  0.3618 -0.0596
  501ERGO   ROH 6011  11.453  16.253  10.528  0.0521 -0.0393 -0.1364
  501ERGO    R1 6012  11.232  16.280  10.353  0.0868  0.1262 -0.1550
  501ERGO    R2 6013  11.251  16.405  10.107  0.2403 -0.0275 -0.2175
  501ERGO    R3 6014  11.147  16.171  10.017 -0.0357  0.0463 -0.1003
  501ERGO    R4 6015  11.109  16.359   9.795  0.3693 -0.0517 -0.2739
  501ERGO    R5 6016  10.955  16.237   9.889  0.1304  0.2311 -0.2686
  501ERGO    C1 6017  10.928  16.113   9.529  0.1854  0.0034 -0.1966
  501ERGO    C2 6018  11.054  16.179   9.240 -0.0953 -0.1501 -0.0109
  502ERGO   ROH 6019  10.793   4.677   9.606  0.0182 -0.0995  0.0106
  502ERGO    R1 6020  10.881   4.614   9.345  0.0072  0.1678 -0.0610
  502ERGO    R2 6021  10.811   4.380   9.217  0.4772  0.0182 -0.0649
  502ERGO    R3 6022  10.727   4.549   9.022 -0.0543 -0.1257  0.0247
  502ERGO    R4 6023  10.739   4.287   8.892  0.5154 -0.0733 -0.0475
  502ERGO    R5 6024  10.835   4.471   8.823  0.0323  0.1897 -0.0581
  502ERGO    C1 6025  10.618   4.392   8.519  0.0388 -0.2617  0.0467
  502ERGO    C2 6026  10.515   4.344   8.164 -0.1323 -0.0593  0.0590
  503ERGO   ROH 6027   7.402  15.354  10.282 -0.1772 -0.1615 -0.0062
  503ERGO    R1 6028   7.514  15.497  10.064  0.0717 -0.2791  0.0401
  503ERGO    R2 6029   7.666  15.374   9.868 -0.1693 -0.4929 -0.0235
  503ERGO    R3 6030   7.485  15.490   9.702  0.0201 -0.0858  0.0408
  503ERGO    R4 6031   7.703  15.406   9.526 -0.1911 -0.4918 -0.0257
  503ERGO    R5 6032   7.617  15.605   9.540  0.2158 -0.3167  0.0353
  503ERGO    C1 6033   7.554  15.533   9.171 -0.0260 -0.1089  0.0332
  503ERGO    C2 6034   7.347  15.480   9.024 -0.0756 -0.2950 -0.0836
  504ERGO   ROH 6035   9.585  16.159  10.056 -0.1023  0.1068 -0.1984
  504ERGO    R1 6036   9.589  16.249   9.788 -0.1826  0.0549 -0.2169
  504ERGO    R2 6037   9.806  16.210   9.621 -0.1704  0.1621 -0.2242
  504ERGO    R3 6038   9.620  16.097   9.458 -0.1107  0.0071 -0.1887
  504ERGO    R4 6039   9.873  16.065   9.314 -0.1163  0.2678 -0.2634
  504ERGO    R5 6040   9.690  16.156   9.237 -0.2260  0.1070 -0.2009
  504ERGO    C1 6041   9.736  15.876   8.983 -0.0287  0.1837 -0.2527
  504ERGO    C2 6042   9.585  15.659   8.653 -0.1337 -0.0080  0.1399
  505ERGO   ROH 6043  10.627   8.897  10.597  0.0665 -0.1024  0.0450
  505ERGO    R1 6044  10.505   8.739  10.396  0.1238 -0.0871 -0.0021
  505ERGO    R2 6045  10.231   8.713  10.374  0.1312 -0.1319 -0.0469
  505ERGO    R3 6046  10.276   8.795  10.119  0.1544 -0.0763 -0.0250
  505ERGO    R4 6047  10.023   8.648  10.105  0.1081  0.0085 -0.0640
  505ERGO    R5 6048  10.201   8.613   9.983  0.0954 -0.0143 -0.0749
  505ERGO    C1 6049   9.945   8.687   9.709  0.1164  0.1426 -0.0533
  505ERGO    C2 6050   9.705   8.591   9.467  0.3201  0.3172  0.1273
  506ERGO   ROH 6051   7.160  14.643   6.618 -0.1586 -0.2133  0.1314
  506ERGO    R1 6052   7.106  14.614   6.895  0.1995 -0.1143  0.2162
  506ERGO    R2 6053   7.221  14.775   7.087 -0.0146  0.3649 -0.0520
  506ERGO    R3 6054   6.962  14.819   7.159 -0.0720 -0.2440  0.1761
  506ERGO    R4 6055   7.117  14.865   7.404  0.1485  0.6785 -0.0815
  506ERGO    R5 6056   6.947  14.730   7.381  0.4797  0.1185  0.3878
  506ERGO    C1 6057   6.813  14.958   7.656  0.1896  0.2896  0.1154
  506ERGO    C2 6058   6.791  15.093   7.858 -0.0544 -0.0871  0.0534
  507ERGO   ROH 6059   1.823   7.366   9.918 -0.0842  0.0013 -0.0346
  507ERGO    R1 6060   2.000   7.365   9.697  0.0724 -0.0336  0.0894
  507ERGO    R2 6061   1.951   7.217   9.469  0.2389 -0.0772  0.0829
  507ERGO    R3 6062   1.984   7.456   9.345  0.3180 -0.1000  0.0589
  507ERGO    R4 6063   1.972   7.260   9.127 -0.0278 -0.0936  0.0626
  507ERGO    R5 6064   2.129   7.408   9.160  0.1209 -0.2146 -0.0714
  507ERGO    C1 6065   2.014   7.511   8.811 -0.1088 -0.1244  0.0283
  507ERGO    C2 6066   1.917   7.604   8.557 -0.0008 -0.3501  0.2576
  508ERGO   ROH 6067   6.328  10.031   7.272 -0.0737  0.1590 -0.1240
  508ERGO    R1 6068   6.414   9.899   7.508 -0.0576  0.3580 -0.0164
  508ERGO    R2 6069   6.297   9.944   7.755 -0.4101  0.1661 -0.1414
  508ERGO    R3 6070   6.268   9.673   7.753  0.1224  0.0976 -0.1439
  508ERGO    R4 6071   6.252   9.747   8.036 -0.2974  0.1085 -0.1630
  508ERGO    R5 6072   6.385   9.599   7.948  0.0860  0.3521 -0.0205
  508ERGO    C1 6073   6.198   9.379   8.197  0.2681  0.0108 -0.1781
  508ERGO    C2 6074   6.151   9.166   8.445 -0.0341  0.4390 -0.1909
  509ERGO   ROH 6075  15.147  15.512  10.410 -0.0438  0.0492  0.1085
  509ERGO    R1 6076  15.146  15.569  10.133  0.0456  0.0381  0.1067
  509ERGO    R2 6077  15.350  15.494   9.964  0.0474 -0.0589  0.1604
  509ERGO    R3 6078  15.149  15.379   9.823  0.0314  0.0259  0.1125
  509ERGO    R4 6079  15.329  15.491   9.619  0.1087 -0.0021  0.1550
  509ERGO    R5 6080  15.114  15.528   9.638  0.1132  0.0672  0.1256
  509ERGO    C1 6081  15.127  15.382   9.285  0.1294  0.1106  0.1069
  509ERGO    C2 6082  15.184  15.336   9.001 -0.0505 -0.1493 -0.2144
  510ERGO   ROH 6083  13.597   7.002   9.993  0.0092  0.2585 -0.0600
  510ERGO    R1 6084  13.532   7.063   9.724  0.0968 -0.0059 -0.1442
  510ERGO    R2 6085  13.562   6.880   9.519 -0.0154 -0.2751  0.0713
  510ERGO    R3 6086  13.301   6.938   9.473  0.0351 -0.1219 -0.0302
  510ERGO    R4 6087  13.440   7.029   9.232  0.1988 -0.0527  0.0917
  510ERGO    R5 6088  13.305   7.147   9.356  0.1943 -0.0580  0.0885
  510ERGO    C1 6089  13.122   7.170   9.022  0.3708  0.2206  0.0083
  510ERGO    C2 6090  13.074   7.293   8.693 -0.0838 -0.0667 -0.2384
  511ERGO   ROH 6091   4.219   3.047   6.512  0.3626 -0.0133 -0.1211
  511ERGO    R1 6092   4.195   2.843   6.708  0.0010  0.2004  0.0677
  511ERGO    R2 6093   4.395   2.659   6.756 -0.4327 -0.3127  0.0123
  511ERGO    R3 6094   4.369   2.747   7.012  0.0520 -0.0189 -0.0296
  511ERGO    R4 6095   4.490   2.482   7.038 -0.5578 -0.3002  0.0626
  511ERGO    R5 6096   4.310   2.552   7.137 -0.2914  0.2259  0.2031
  511ERGO    C1 6097   4.522   2.462   7.441 -0.1757 -0.0171  0.0525
  511ERGO    C2 6098   4.437   2.213   7.763  0.3214  0.3191  0.1258
  512ERGO   ROH 6099  14.084  16.279   6.949  0.1404 -0.0693 -0.0319
  512ERGO    R1 6100  14.177  16.417   7.178 -0.0047 -0.0718  0.0298
  512ERGO    R2 6101  14.009  16.567   7.339 -0.1184 -0.1182 -0.0416
  512ERGO    R3 6102  14.111  16.410   7.536 -0.1898 -0.1177 -0.0045
  512ERGO    R4 6103  14.000  16.643   7.676 -0.0991 -0.0455 -0.0574
  512ERGO    R5 6104  14.203  16.564   7.694 -0.1329 -0.1237 -0.0335
  512ERGO    C1 6105  14.091  16.539   8.058 -0.1549 -0.0027 -0.0317
  512ERGO    C2 6106  13.910  16.657   8.343 -0.0139  0.4695 -0.1494
  513ERGO   ROH 6107   1.584  15.671   9.370 -0.0083 -0.0128  0.0737
  513ERGO    R1 6108   1.513  15.806   9.131 -0.0070  0.0708  0.1200
  513ERGO    R2 6109   1.652  15.772   8.894 -0.0206  0.1346  0.1025
  513ERGO    R3 6110   1.406  15.712   8.796 -0.0305  0.1883  0.0941
  513ERGO    R4 6111   1.544  15.847   8.575  0.0431  0.0661  0.0645
  513ERGO    R5 6112   1.349  15.900   8.659  0.0516  0.1626  0.0243
  513ERGO    C1 6113   1.249  15.834   8.297  0.0710  0.0766  0.0345
  513ERGO    C2 6114   1.074  15.833   8.140  0.1899  0.0529  0.1727
  514ERGO   ROH 6115  13.655   1.302   6.705  0.1638 -0.0325  0.1034
  514ERGO    R1 6116  13.695   1.235   6.977  0.2189 -0.1346  0.0705
  514ERGO    R2 6117  13.896   1.066   7.061  0.3066 -0.0750 -0.0230
  514ERGO    R3 6118  13.961   1.275   7.223  0.2210 -0.1168  0.0662
  514ERGO    R4 6119  14.058   1.037   7.365  0.2697 -0.1469 -0.0100
  514ERGO    R5 6120  13.925   1.191   7.444  0.2113 -0.2143  0.0298
  514ERGO    C1 6121  14.212   1.216   7.694  0.1680 -0.2279  0.0814
  514ERGO    C2 6122  14.269   1.100   7.983 -0.0025  0.2069  0.1844
  515ERGO   ROH 6123   5.344  17.031   9.587 -0.0724  0.0334  0.0395
  515ERGO    R1 6124   5.480  17.098   9.348  0.0042  0.0539  0.0864
  515ERGO    R2 6125   5.590  16.906   9.181  0.1678  0.0699  0.1611
  515ERGO    R3 6126   5.438  17.030   8.993  0.1874 -0.0296  0.0818
  515ERGO    R4 6127   5.665  16.921   8.844  0.1704 -0.1326  0.1534
  515ERGO    R5 6128   5.597  17.127   8.842  0.1915 -0.1343  0.0269
  515ERGO    C1 6129   5.566  17.045   8.471  0.1904 -0.3441  0.0742
  515ERGO    C2 6130   5.763  16.916   8.180  0.0605 -0.0310  0.0909
  516ERGO   ROH 6131  13.436   2.666   6.827  0.0202  0.0562 -0.0377
  516ERGO    R1 6132  13.388   2.422   6.962  0.1093 -0.0195 -0.1416
  516ERGO    R2 6133  13.592   2.253   7.042  0.1836  0.1193 -0.0387
  516ERGO    R3 6134  13.474   2.278   7.285 -0.0181 -0.0417 -0.1167
  516ERGO    R4 6135  13.632   2.033   7.305  0.2650  0.1413 -0.0318
  516ERGO    R5 6136  13.420   2.054   7.349  0.2043 -0.1156 -0.1762
  516ERGO    C1 6137  13.544   1.928   7.687  0.1233  0.0030 -0.1009
  516ERGO    C2 6138  13.442   1.889   8.078  0.1232  0.2949  0.1636
  517ERGO   ROH 6139   0.943  14.536   6.262 -0.0955  0.0905  0.1013
  517ERGO    R1 6140   0.856  14.496   6.529 -0.0772  0.1342  0.1114
  517ERGO    R2 6141   1.032  14.477   6.740 -0.0673  0.1320  0.0876
  517ERGO    R3 6142   0.878  14.675   6.845 -0.0270  0.1629  0.0955
  517ERGO    R4 6143   1.022  14.562   7.075 -0.1251  0.0291  0.1143
  517ERGO    R5 6144   0.806  14.588   7.056 -0.1216  0.1163  0.0541
  517ERGO    C1 6145   0.871  14.797   7.369 -0.1209 -0.0021  0.1372
  517ERGO    C2 6146   0.900  14.905   7.718  0.0497  0.0903  0.0664
  518ERGO   ROH 6147  13.594   5.733   9.840 -0.2515 -0.0838  0.0180
  518ERGO    R1 6148  13.566   5.642   9.573 -0.1477 -0.1482  0.0297
  518ERGO    R2 6149  13.646   5.792   9.355 -0.1959 -0.1424  0.0215
  518ERGO    R3 6150  13.789   5.569   9.295 -0.0535 -0.0697  0.0817
  518ERGO    R4 6151  13.722   5.685   9.035 -0.0080 -0.0932  0.0481
  518ERGO    R5 6152  13.683   5.481   9.099  0.0689 -0.1197  0.0318
  518ERGO    C1 6153  13.900   5.414   8.793  0.2353  0.0039  0.1200
  518ERGO    C2 6154  13.904   5.370   8.504 -0.0161  0.0641 -0.1263
  519ERGO   ROH 6155  10.510   1.502  10.071 -0.1212 -0.0049 -0.0255
  519ERGO    R1 6156  10.411   1.524   9.807  0.0415  0.0872 -0.0810
  519ERGO    R2 6157  10.576   1.572   9.590  0.2201 -0.1476 -0.0074
  519ERGO    R3 6158  10.458   1.348   9.492 -0.0150 -0.0159 -0.0311
  519ERGO    R4 6159  10.539   1.500   9.254  0.0240 -0.0222 -0.0137
  519ERGO    R5 6160  10.339   1.423   9.298 -0.0241  0.1410  0.0381
  519ERGO    C1 6161  10.406   1.247   8.966 -0.3110  0.1744 -0.0396
  519ERGO    C2 6162  10.206   1.210   8.644 -0.0580  0.1403 -0.0158
  520ERGO   ROH 6163   0.650  15.711   9.578 -0.0294  0.0181 -0.0503
  520ERGO    R1 6164   0.542  15.745   9.318  0.0378 -0.0277 -0.0858
  520ERGO    R2 6165   0.671  15.659   9.090  0.1512  0.0296 -0.0496
  520ERGO    R3 6166   0.436  15.529   9.045  0.2219 -0.0743 -0.1196
  520ERGO    R4 6167   0.557  15.556   8.780  0.3259 -0.1113 -0.0681
  520ERGO    R5 6168   0.357  15.619   8.838  0.2788 -0.1723 -0.1804
  520ERGO    C1 6169   0.271  15.375   8.558  0.4940 -0.2907 -0.1447
  520ERGO    C2 6170   0.255  15.358   8.213 -0.1808  0.0845 -0.1779
  521ERGO   ROH 6171   4.070   8.843  10.222 -0.0427 -0.0767  0.1300
  521ERGO    R1 6172   4.062   8.904   9.946  0.0146 -0.0700  0.1309
  521ERGO    R2 6173   4.270   8.846   9.774  0.0211 -0.1195  0.1661
  521ERGO    R3 6174   4.076   8.718   9.633  0.0125 -0.0655  0.1257
  521ERGO    R4 6175   4.265   8.814   9.430  0.0996 -0.1204  0.1637
  521ERGO    R5 6176   4.050   8.850   9.435  0.1017 -0.0538  0.1145
  521ERGO    C1 6177   4.079   8.675   9.098  0.1372 -0.0701  0.1243
  521ERGO    C2 6178   4.227   8.669   8.744  0.0272 -0.0117  0.0561
  522ERGO   ROH 6179  12.929   2.579   9.638 -0.1138  0.2712 -0.1042
  522ERGO    R1 6180  12.949   2.560   9.356  0.0314  0.4091 -0.1052
  522ERGO    R2 6181  12.736   2.485   9.197  0.1978  0.1637 -0.2226
  522ERGO    R3 6182  12.792   2.718   9.068 -0.0802  0.3006 -0.1040
  522ERGO    R4 6183  12.628   2.566   8.879  0.1353  0.1880 -0.1954
  522ERGO    R5 6184  12.824   2.654   8.840  0.0294  0.4545 -0.1315
  522ERGO    C1 6185  12.618   2.831   8.573 -0.1621  0.3305 -0.0682
  522ERGO    C2 6186  12.348   2.628   8.400 -0.1737 -0.1398  0.1224
  523ERGO   ROH 6187   5.377  10.438  10.375 -0.2266  0.1463  0.2425
  523ERGO    R1 6188   5.287  10.443  10.106 -0.2461  0.0320  0.2461
  523ERGO    R2 6189   5.043  10.548  10.033 -0.1682  0.1815  0.1959
  523ERGO    R3 6190   5.195  10.698   9.864 -0.0598 -0.0585  0.0773
  523ERGO    R4 6191   4.918  10.760   9.790 -0.0181  0.1781  0.1147
  523ERGO    R5 6192   5.075  10.692   9.656 -0.1180 -0.0513  0.1104
  523ERGO    C1 6193   4.987  11.024   9.490  0.1712 -0.0492 -0.0440
  523ERGO    C2 6194   4.895  11.421   9.319 -0.2522 -0.2211  0.2935
  524ERGO   ROH 6195   5.658   3.877   6.368 -0.1534  0.0788 -0.0150
  524ERGO    R1 6196   5.574   4.056   6.571 -0.1700 -0.0240  0.0693
  524ERGO    R2 6197   5.529   3.975   6.831  0.0449 -0.1111  0.0812
  524ERGO    R3 6198   5.705   4.174   6.889 -0.0699  0.0122  0.0159
  524ERGO    R4 6199   5.549   4.140   7.135  0.0260 -0.0803  0.0661
  524ERGO    R5 6200   5.581   4.325   7.027 -0.1322 -0.0631  0.0449
  524ERGO    C1 6201   5.726   4.422   7.366 -0.0929  0.0534 -0.0041
  524ERGO    C2 6202   5.750   4.711   7.661  0.0494  0.1688  0.4735
  525ERGO   ROH 6203   8.208   0.349   9.700 -0.0849  0.1127 -0.2140
  525ERGO    R1 6204   8.258   0.397   9.425 -0.1790  0.1119 -0.2309
  525ERGO    R2 6205   8.253   0.196   9.236 -0.1849  0.1024 -0.2172
  525ERGO    R3 6206   8.075   0.361   9.113 -0.2628  0.0513 -0.1758
  525ERGO    R4 6207   8.151   0.165   8.907 -0.2310  0.0903 -0.2028
  525ERGO    R5 6208   8.159   0.383   8.889 -0.3077  0.0958 -0.1896
  525ERGO    C1 6209   7.925   0.302   8.600 -0.3311  0.0354 -0.1554
  525ERGO    C2 6210   7.796   0.254   8.343  0.0095  0.0461  0.0787
  526ERGO   ROH 6211  14.415   9.889  10.534  0.1032 -0.2783  0.0090
  526ERGO    R1 6212  14.384   9.751  10.288  0.1127 -0.1945 -0.0402
  526ERGO    R2 6213  14.140   9.653  10.202  0.1358 -0.2700 -0.0289
  526ERGO    R3 6214  14.197   9.800   9.980  0.0250 -0.1536  0.0197
  526ERGO    R4 6215  14.011   9.593   9.887  0.1367 -0.2281 -0.0365
  526ERGO    R5 6216  14.206   9.639   9.803  0.1002 -0.0811 -0.0414
  526ERGO    C1 6217  13.988   9.696   9.496  0.0333 -0.0944  0.0048
  526ERGO    C2 6218  13.992   9.626   9.132 -0.1102 -0.0236 -0.1618
  527ERGO   ROH 6219   9.853  13.810   8.777  0.0315  0.0544 -0.0874
  527ERGO    R1 6220  10.055  13.908   8.950 -0.0666 -0.0801  0.1078
  527ERGO    R2 6221  10.111  14.178   8.975  0.2230 -0.1272  0.0048
  527ERGO    R3 6222  10.071  14.129   9.239 -0.1753  0.0829 -0.0086
  527ERGO    R4 6223  10.249  14.361   9.233  0.1482 -0.1563  0.0657
  527ERGO    R5 6224  10.283  14.175   9.341 -0.2343 -0.1411  0.2264
  527ERGO    C1 6225  10.292  14.422   9.631 -0.2692  0.0241  0.0887
  527ERGO    C2 6226  10.428  14.459   9.924 -0.0610  0.0903 -0.2983
  528ERGO   ROH 6227  11.083  13.134   7.081  0.3621  0.0940  0.0411
  528ERGO    R1 6228  10.959  13.125   7.335  0.1991 -0.0208 -0.0416
  528ERGO    R2 6229  10.792  12.918   7.412  0.2037 -0.0885 -0.2171
  528ERGO    R3 6230  10.962  12.903   7.623  0.0692 -0.1123 -0.1090
  528ERGO    R4 6231  10.705  12.808   7.727 -0.0546  0.0747 -0.2281
  528ERGO    R5 6232  10.828  12.966   7.812 -0.0107  0.0350 -0.2113
  528ERGO    C1 6233  10.813  12.729   8.110 -0.3314  0.1475 -0.1331
  528ERGO    C2 6234  10.945  12.464   8.293  0.0948 -0.2968 -0.2901
  529ERGO   ROH 6235   5.373  14.313   6.732  0.1108  0.1262  0.0648
  529ERGO    R1 6236   5.293  14.382   6.995 -0.0802  0.1652 -0.0022
  529ERGO    R2 6237   5.035  14.459   7.056 -0.2112 -0.1420 -0.1435
  529ERGO    R3 6238   5.053  14.258   7.238 -0.0110 -0.0228 -0.0285
  529ERGO    R4 6239   4.870  14.453   7.360 -0.2294 -0.1504 -0.1534
  529ERGO    R5 6240   5.051  14.370   7.450 -0.1476  0.0928 -0.0907
  529ERGO    C1 6241   4.792  14.261   7.708 -0.0521 -0.0434 -0.0513
  529ERGO    C2 6242   4.533  14.177   7.836 -0.0959  0.3997  0.0227
  530ERGO   ROH 6243   3.213  16.089   6.370  0.0604 -0.0390  0.1023
  530ERGO    R1 6244   3.263  16.009   6.637 -0.2278 -0.2192  0.1068
  530ERGO    R2 6245   3.369  16.181   6.826  0.2048 -0.5241  0.1554
  530ERGO    R3 6246   3.149  16.108   6.969 -0.0520  0.0605  0.0866
  530ERGO    R4 6247   3.336  16.214   7.169  0.2136 -0.5136  0.1558
  530ERGO    R5 6248   3.237  16.019   7.173 -0.3477 -0.2483  0.0876
  530ERGO    C1 6249   3.111  16.165   7.502 -0.0224  0.0413  0.0916
  530ERGO    C2 6250   3.107  16.193   7.895 -0.0277  0.0192  0.1044
  531ERGO   ROH 6251   4.214  11.413   6.854 -0.1896  0.0640  0.0544
  531ERGO    R1 6252   4.007  11.370   7.043 -0.1399  0.0187  0.0967
  531ERGO    R2 6253   4.021  11.174   7.237  0.0005  0.1085  0.1690
  531ERGO    R3 6254   3.973  11.383   7.405 -0.1056  0.1439  0.0979
  531ERGO    R4 6255   3.943  11.145   7.573 -0.0359  0.1714  0.1676
  531ERGO    R5 6256   3.798  11.305   7.548 -0.1002  0.1121  0.0956
  531ERGO    C1 6257   3.852  11.323   7.925 -0.1567  0.2413  0.0999
  531ERGO    C2 6258   3.967  11.408   8.198  0.0846  0.0719  0.2371
  532ERGO   ROH 6259   5.420  14.585  10.085  0.0182  0.1153 -0.0862
  532ERGO    R1 6260   5.436  14.479   9.823  0.0966  0.0389 -0.0511
  532ERGO    R2 6261   5.251  14.537   9.626  0.1178 -0.0708 -0.1060
  532ERGO    R3 6262   5.471  14.612   9.486  0.1252 -0.0548 -0.0852
  532ERGO    R4 6263   5.283  14.517   9.282  0.2328 -0.2762 -0.0844
  532ERGO    R5 6264   5.488  14.449   9.310  0.2572 -0.1602  0.0228
  532ERGO    C1 6265   5.508  14.575   8.951  0.3067 -0.3809 -0.0524
  532ERGO    C2 6266   5.605  14.799   8.765  0.1128  0.3684 -0.2075
  533ERGO   ROH 6267  15.652   1.876   9.746  0.4043  0.1071 -0.1962
  533ERGO    R1 6268  15.766   1.771   9.509  0.1173 -0.2164 -0.1991
  533ERGO    R2 6269  15.629   1.600   9.341 -0.3629  0.1351 -0.1825
  533ERGO    R3 6270  15.693   1.785   9.152  0.1294 -0.0353 -0.1967
  533ERGO    R4 6271  15.686   1.530   9.007 -0.5280 -0.0566 -0.1729
  533ERGO    R5 6272  15.851   1.673   9.011 -0.1424 -0.4706 -0.1798
  533ERGO    C1 6273  15.780   1.663   8.636 -0.1622 -0.3280 -0.1806
  533ERGO    C2 6274  15.931   1.763   8.308 -0.0260 -0.3008 -0.0284
  534ERGO   ROH 6275   9.170   7.921  10.095 -0.2304 -0.0479 -0.0600
  534ERGO    R1 6276   9.174   7.841   9.823 -0.2339 -0.1012 -0.0443
  534ERGO    R2 6277   8.944   7.820   9.671 -0.2198  0.0304 -0.0837
  534ERGO    R3 6278   9.079   7.986   9.503 -0.0718 -0.0942 -0.0904
  534ERGO    R4 6279   8.889   7.844   9.331 -0.1276 -0.0090 -0.1018
  534ERGO    R5 6280   9.104   7.859   9.302 -0.1094 -0.1569 -0.0566
  534ERGO    C1 6281   8.983   8.014   8.975  0.0651 -0.1489 -0.1185
  534ERGO    C2 6282   8.945   7.970   8.561  0.0754  0.1438  0.1620
  535ERGO   ROH 6283   6.825   0.403   9.770 -0.0506 -0.0555 -0.0629
  535ERGO    R1 6284   6.768   0.395   9.493 -0.0129 -0.0724 -0.0687
  535ERGO    R2 6285   6.963   0.431   9.300  0.0116 -0.0983 -0.0387
  535ERGO    R3 6286   6.870   0.192   9.208  0.0115 -0.0982 -0.0441
  535ERGO    R4 6287   6.991   0.321   8.974  0.2713 -0.2060  0.0165
  535ERGO    R5 6288   6.789   0.241   8.988  0.2237 -0.1337 -0.1381
  535ERGO    C1 6289   6.921   0.033   8.697  0.4225 -0.2686  0.0436
  535ERGO    C2 6290   7.204  -0.032   8.439  0.2294 -0.1553 -0.0062
  536ERGO   ROH 6291   0.126  14.269   9.788  0.0142  0.0026 -0.0441
  536ERGO    R1 6292   0.227  14.099   9.585  0.0616  0.0054 -0.0217
  536ERGO    R2 6293   0.144  14.115   9.322  0.0897 -0.0237 -0.0278
  536ERGO    R3 6294   0.410  14.141   9.273  0.0912  0.0094 -0.0058
  536ERGO    R4 6295   0.297  14.030   9.025  0.0817  0.1865 -0.0939
  536ERGO    R5 6296   0.464  13.948   9.140  0.0839  0.0978 -0.1473
  536ERGO    C1 6297   0.636  14.004   8.805  0.0785  0.3398 -0.1119
  536ERGO    C2 6298   0.636  14.080   8.500 -0.0644 -0.3410 -0.1050
  537ERGO   ROH 6299   2.392   2.217   6.050 -0.1359 -0.2491  0.1004
  537ERGO    R1 6300   2.312   2.343   6.291 -0.0397 -0.0985  0.0563
  537ERGO    R2 6301   2.090   2.264   6.434 -0.0505  0.0579  0.1445
  537ERGO    R3 6302   2.268   2.246   6.638 -0.0104  0.0840  0.1096
  537ERGO    R4 6303   2.023   2.347   6.763  0.0177  0.0506  0.1590
  537ERGO    R5 6304   2.221   2.436   6.776  0.0006  0.0716  0.1186
  537ERGO    C1 6305   2.151   2.378   7.146  0.0950  0.0708  0.1346
  537ERGO    C2 6306   2.249   2.185   7.496 -0.3098 -0.0322  0.1749
  538ERGO   ROH 6307   2.269  12.724   9.454 -0.0807 -0.2150  0.2814
  538ERGO    R1 6308   2.294  12.484   9.306 -0.1931 -0.1619  0.1740
  538ERGO    R2 6309   2.118  12.415   9.104 -0.1217  0.0962  0.0159
  538ERGO    R3 6310   2.347  12.393   8.958 -0.0398 -0.0248  0.1608
  538ERGO    R4 6311   2.134  12.315   8.774  0.0549 -0.0385  0.0637
  538ERGO    R5 6312   2.312  12.199   8.821 -0.0069 -0.0674  0.2162
  538ERGO    C1 6313   2.357  12.235   8.444  0.2347 -0.2306  0.2277
  538ERGO    C2 6314   2.259  12.168   8.150  0.1060  0.1395  0.0640
  539ERGO   ROH 6315  17.672  14.100   9.825 -0.0476 -0.1867 -0.0802
  539ERGO    R1 6316  17.774  14.021   9.573 -0.0122 -0.0852 -0.0977
  539ERGO    R2 6317  17.624  13.878   9.390  0.0330 -0.0581 -0.1522
  539ERGO    R3 6318  17.692  14.082   9.224  0.0018  0.0074 -0.0856
  539ERGO    R4 6319  17.634  13.858   9.045  0.1463  0.0178 -0.1544
  539ERGO    R5 6320  17.816  13.977   9.047  0.1001  0.0928 -0.0715
  539ERGO    C1 6321  17.703  14.038   8.688  0.1832  0.1234 -0.0932
  539ERGO    C2 6322  17.559  14.011   8.483 -0.1299  0.1540 -0.0657
  540ERGO   ROH 6323   6.354  11.920   6.881  0.1190 -0.1247  0.0030
  540ERGO    R1 6324   6.203  11.922   7.120  0.0963  0.1210 -0.0117
  540ERGO    R2 6325   6.289  11.800   7.352 -0.1610 -0.0991 -0.0313
  540ERGO    R3 6326   6.247  12.045   7.459  0.3055 -0.0303  0.0191
  540ERGO    R4 6327   6.236  11.862   7.688 -0.0266 -0.0688 -0.0146
  540ERGO    R5 6328   6.085  12.008   7.632  0.2364  0.2349  0.0206
  540ERGO    C1 6329   6.166  12.128   7.984  0.4896  0.0135  0.0424
  540ERGO    C2 6330   6.370  12.106   8.191  0.2599  0.6115  0.0282
  541ERGO   ROH 6331  11.950  16.358   7.144 -0.1980 -0.0857 -0.1218
  541ERGO    R1 6332  11.776  16.421   7.358 -0.1850 -0.0721 -0.1156
  541ERGO    R2 6333  11.860  16.430   7.621 -0.1872 -0.1338 -0.1146
  541ERGO    R3 6334  11.753  16.680   7.613 -0.1227 -0.1039 -0.0765
  541ERGO    R4 6335  11.748  16.605   7.897 -0.0807 -0.1222 -0.0780
  541ERGO    R5 6336  11.579  16.675   7.778 -0.0893 -0.0693 -0.0384
  541ERGO    C1 6337  11.582  16.942   8.050  0.0420 -0.0875 -0.0211
  541ERGO    C2 6338  11.478  17.163   8.286 -0.0837  0.1360  0.1776
  542ERGO   ROH 6339   0.270   4.256   6.585 -0.1026  0.2324 -0.0174
  542ERGO    R1 6340   0.137   4.156   6.814 -0.1296  0.1992 -0.0475
  542ERGO    R2 6341   0.258   4.138   7.062 -0.1121  0.0282 -0.0671
  542ERGO    R3 6342   0.043   4.282   7.142 -0.0308  0.1032  0.0185
  542ERGO    R4 6343   0.130   4.140   7.382 -0.1095 -0.0889 -0.0648
  542ERGO    R5 6344  -0.071   4.140   7.297 -0.1106  0.0744 -0.0655
  542ERGO    C1 6345  -0.148   4.277   7.644 -0.0317 -0.0866  0.0169
  542ERGO    C2 6346  -0.216   4.409   7.930 -0.1148 -0.1104 -0.2202
  543ERGO   ROH 6347  16.907  17.835   9.640  0.0759  0.0386 -0.0860
  543ERGO    R1 6348  16.869  17.894   9.366 -0.0287  0.0673 -0.0662
  543ERGO    R2 6349  16.855  17.697   9.173 -0.0725  0.0894 -0.0857
  543ERGO    R3 6350  16.620  17.818   9.112 -0.1093  0.0667  0.0117
  543ERGO    R4 6351  16.690  17.667   8.871  0.0186  0.3957 -0.1695
  543ERGO    R5 6352  16.642  17.879   8.881 -0.0748  0.3677  0.0888
  543ERGO    C1 6353  16.372  17.763   8.638  0.0373  0.5528 -0.1268
  543ERGO    C2 6354  16.038  17.718   8.526 -0.0197 -0.1349 -0.0262
  544ERGO   ROH 6355   1.442  11.494   6.561 -0.1308 -0.0339 -0.0307
  544ERGO    R1 6356   1.352  11.690   6.745  0.0972  0.0262  0.0175
  544ERGO    R2 6357   1.148  11.642   6.925 -0.0076  0.2421 -0.0545
  544ERGO    R3 6358   1.333  11.723   7.107  0.0595 -0.0724  0.0279
  544ERGO    R4 6359   1.079  11.721   7.254 -0.0439  0.3884 -0.0952
  544ERGO    R5 6360   1.218  11.888   7.238  0.2745  0.1515 -0.0445
  544ERGO    C1 6361   1.212  11.844   7.617 -0.0020  0.1783 -0.0416
  544ERGO    C2 6362   1.177  11.887   8.010  0.0730  0.0735 -0.1166
  545ERGO   ROH 6363   6.836   5.134   6.165 -0.0086 -0.0456 -0.1165
  545ERGO    R1 6364   6.940   5.112   6.427 -0.0284 -0.1019 -0.1117
  545ERGO    R2 6365   6.935   5.321   6.607  0.1540 -0.0672 -0.1360
  545ERGO    R3 6366   6.811   5.139   6.766 -0.0114  0.0595 -0.1190
  545ERGO    R4 6367   6.941   5.326   6.952  0.3265 -0.1593 -0.1375
  545ERGO    R5 6368   6.963   5.109   6.950  0.0357 -0.1868 -0.1997
  545ERGO    C1 6369   6.828   5.158   7.303  0.2715 -0.0940 -0.1224
  545ERGO    C2 6370   6.764   5.191   7.672 -0.2092  0.0054 -0.0106
  546ERGO   ROH 6371  14.610   2.072   9.656 -0.0229  0.1335  0.0418
  546ERGO    R1 6372  14.702   1.918   9.437  0.1269  0.0253  0.1776
  546ERGO    R2 6373  14.743   1.645   9.454 -0.1539 -0.0165  0.2638
  546ERGO    R3 6374  14.576   1.640   9.239  0.1234  0.1256  0.0386
  546ERGO    R4 6375  14.751   1.407   9.203 -0.0912 -0.0847  0.3302
  546ERGO    R5 6376  14.715   1.566   9.058  0.2837 -0.0750  0.2391
  546ERGO    C1 6377  14.600   1.264   8.855  0.2056  0.0090  0.1575
  546ERGO    C2 6378  14.521   1.162   8.618 -0.1305  0.0582  0.0198
  547ERGO   ROH 6379   9.143  10.586  10.475  0.0827 -0.1009  0.0988
  547ERGO    R1 6380   9.219  10.641  10.208  0.0347 -0.0235  0.1017
  547ERGO    R2 6381   9.370  10.466  10.056  0.0278  0.0340  0.0345
  547ERGO    R3 6382   9.164  10.492   9.880  0.0005  0.0575  0.0689
  547ERGO    R4 6383   9.396  10.430   9.713 -0.0362 -0.0263  0.0352
  547ERGO    R5 6384   9.261  10.599   9.690 -0.0025  0.0068  0.0344
  547ERGO    C1 6385   9.219  10.433   9.349 -0.0991 -0.0395  0.0680
  547ERGO    C2 6386   9.106  10.266   9.107 -0.3585 -0.0109  0.2096
  548ERGO   ROH 6387  11.863  11.736  10.728  0.2145  0.0278  0.0494
  548ERGO    R1 6388  11.763  11.705  10.465 -0.0026  0.0727  0.1235
  548ERGO    R2 6389  11.758  11.912  10.282  0.0905  0.0397  0.0806
  548ERGO    R3 6390  11.895  11.736  10.127 -0.2010 -0.1431  0.0243
  548ERGO    R4 6391  11.854  11.969   9.955  0.1645 -0.0244  0.0911
  548ERGO    R5 6392  11.801  11.763   9.908 -0.1726  0.0690  0.0374
  548ERGO    C1 6393  12.038  11.837   9.619 -0.0661 -0.2334  0.0443
  548ERGO    C2 6394  12.257  11.962   9.354  0.1765  0.0728 -0.0151
  549ERGO   ROH 6395  15.941   3.867   9.775 -0.0019  0.0093 -0.1860
  549ERGO    R1 6396  15.978   3.971   9.515 -0.0053  0.0578 -0.1672
  549ERGO    R2 6397  16.222   4.066   9.426  0.0099  0.0129 -0.1748
  549ERGO    R3 6398  16.180   3.889   9.223 -0.0619  0.0683 -0.2091
  549ERGO    R4 6399  16.367   4.087   9.113  0.1257 -0.0649 -0.1273
  549ERGO    R5 6400  16.176   4.025   9.026  0.1060  0.0928 -0.1954
  549ERGO    C1 6401  16.412   3.933   8.740  0.1258 -0.0583 -0.1319
  549ERGO    C2 6402  16.455   4.127   8.449  0.1654 -0.2824 -0.1827
  550ERGO   ROH 6403   1.366   3.343   9.679  0.1704 -0.3027 -0.0076
  550ERGO    R1 6404   1.241   3.234   9.450  0.0382 -0.2842  0.0535
  550ERGO    R2 6405   0.982   3.136   9.454 -0.0237 -0.1350  0.1518
  550ERGO    R3 6406   0.949   3.309   9.247  0.0217 -0.1588  0.1259
  550ERGO    R4 6407   0.699   3.157   9.257 -0.0116 -0.0857  0.1410
  550ERGO    R5 6408   0.827   3.183   9.083 -0.0067 -0.1451  0.1431
  550ERGO    C1 6409   0.502   3.331   8.948  0.0380 -0.0793  0.1105
  550ERGO    C2 6410   0.406   3.388   8.716 -0.1794 -0.0477 -0.0420
  551ERGO   ROH 6411   6.033  13.362   7.008  0.0066  0.4159  0.0538
  551ERGO    R1 6412   5.788  13.405   7.143 -0.0578  0.1152  0.0407
  551ERGO    R2 6413   5.665  13.209   7.294  0.2924  0.0287  0.2250
  551ERGO    R3 6414   5.672  13.400   7.487 -0.0095  0.2158  0.0588
  551ERGO    R4 6415   5.439  13.235   7.554  0.2807 -0.1386  0.2321
  551ERGO    R5 6416   5.441  13.451   7.529 -0.0995 -0.1479  0.0423
  551ERGO    C1 6417   5.314  13.429   7.887 -0.0094 -0.0603  0.0802
  551ERGO    C2 6418   5.427  13.386   8.218 -0.0335  0.0201  0.2412
  552ERGO   ROH 6419  10.360   5.817   9.959  0.0277 -0.0060  0.0060
  552ERGO    R1 6420  10.456   5.922   9.715 -0.0413  0.0636  0.0094
  552ERGO    R2 6421  10.480   5.769   9.486  0.0370  0.0927  0.0042
  552ERGO    R3 6422  10.328   5.967   9.377 -0.0767  0.0130  0.0140
  552ERGO    R4 6423  10.484   5.861   9.153  0.1951  0.2801  0.0552
  552ERGO    R5 6424  10.471   6.069   9.215 -0.0477  0.2417  0.1717
  552ERGO    C1 6425  10.344   6.100   8.857  0.1803  0.3143  0.0942
  552ERGO    C2 6426  10.329   6.097   8.489 -0.1480 -0.1761  0.3010
  553ERGO   ROH 6427   9.899  11.874  10.576 -0.0962  0.2262 -0.0174
  553ERGO    R1 6428   9.970  11.968  10.319  0.0192  0.1466 -0.0157
  553ERGO    R2 6429  10.055  11.800  10.117  0.0120  0.0724  0.0428
  553ERGO    R3 6430   9.854  11.919   9.978  0.1019  0.1262 -0.0415
  553ERGO    R4 6431   9.997  11.757   9.779  0.2247  0.1873 -0.0099
  553ERGO    R5 6432   9.951  11.970   9.765  0.2397  0.1958  0.0352
  553ERGO    C1 6433   9.774  11.844   9.452  0.4330  0.3046 -0.1198
  553ERGO    C2 6434   9.696  11.894   9.078 -0.0973 -0.1325  0.1234
  554ERGO   ROH 6435  14.224  14.430   7.111 -0.0752 -0.3913  0.0094
  554ERGO    R1 6436  14.093  14.511   7.348  0.0852 -0.2012  0.0352
  554ERGO    R2 6437  13.934  14.340   7.496 -0.1552  0.0334  0.0496
  554ERGO    R3 6438  14.099  14.414   7.699 -0.0070 -0.2290  0.0300
  554ERGO    R4 6439  13.828  14.453   7.805  0.0552  0.2076  0.0610
  554ERGO    R5 6440  13.988  14.601   7.801  0.2994 -0.0441  0.0414
  554ERGO    C1 6441  13.921  14.588   8.176  0.3168  0.0626  0.0490
  554ERGO    C2 6442  13.959  14.762   8.502 -0.2738 -0.1121  0.0490
  555ERGO   ROH 6443   2.783   9.566   9.754  0.1000  0.1063 -0.0410
  555ERGO    R1 6444   2.883   9.492   9.500  0.1527  0.1480 -0.0330
  555ERGO    R2 6445   2.731   9.354   9.315  0.2602 -0.0132 -0.0057
  555ERGO    R3 6446   2.798   9.561   9.153  0.0779  0.0199 -0.0401
  555ERGO    R4 6447   2.793   9.328   8.976  0.2947 -0.0127  0.0007
  555ERGO    R5 6448   2.957   9.469   9.000  0.1661  0.1395 -0.0190
  555ERGO    C1 6449   2.891   9.508   8.626  0.1436  0.0188 -0.0279
  555ERGO    C2 6450   2.851   9.616   8.318 -0.2446  0.1002  0.0329
  556ERGO   ROH 6451   2.669  14.944   9.466  0.0853 -0.2286 -0.0915
  556ERGO    R1 6452   2.604  15.082   9.227 -0.1072 -0.1795 -0.0115
  556ERGO    R2 6453   2.739  15.040   8.990 -0.1953 -0.0156 -0.0897
  556ERGO    R3 6454   2.489  14.992   8.894 -0.2140 -0.1236  0.0091
  556ERGO    R4 6455   2.658  15.016   8.655 -0.3036 -0.1243 -0.0570
  556ERGO    R5 6456   2.474  15.127   8.696 -0.3277 -0.1751 -0.0198
  556ERGO    C1 6457   2.376  14.957   8.369 -0.3840 -0.2888  0.0548
  556ERGO    C2 6458   2.205  14.897   8.026 -0.0058 -0.2250 -0.0686
  557ERGO   ROH 6459  17.866   8.305   8.774 -0.1010  0.0966  0.2444
  557ERGO    R1 6460  17.811   8.521   8.599  0.0650  0.1192  0.2187
  557ERGO    R2 6461  17.557   8.579   8.509  0.1653  0.0385 -0.1362
  557ERGO    R3 6462  17.613   8.826   8.609 -0.0756  0.0365  0.0128
  557ERGO    R4 6463  17.391   8.870   8.422  0.1005 -0.0216 -0.2145
  557ERGO    R5 6464  17.583   8.973   8.423  0.0468  0.0839  0.0300
  557ERGO    C1 6465  17.348   9.270   8.465 -0.1634 -0.0585 -0.1202
  557ERGO    C2 6466  17.006   9.389   8.452 -0.1848 -0.1200 -0.1987
  558ERGO   ROH 6467  10.062   1.305   6.864 -0.0253 -0.0973 -0.1654
  558ERGO    R1 6468  10.000   1.395   7.125 -0.0684 -0.0248 -0.2007
  558ERGO    R2 6469   9.790   1.292   7.272 -0.0461 -0.0362 -0.1790
  558ERGO    R3 6470   9.983   1.250   7.458 -0.0454  0.0865 -0.1502
  558ERGO    R4 6471   9.732   1.200   7.600 -0.0366 -0.1005 -0.1950
  558ERGO    R5 6472   9.891   1.336   7.661 -0.1408  0.0081 -0.1588
  558ERGO    C1 6473   9.880   1.106   7.965 -0.0305 -0.0227 -0.1773
  558ERGO    C2 6474   9.942   1.066   8.257  0.0402  0.0420 -0.0404
  559ERGO   ROH 6475   0.318  15.512   6.297 -0.1844  0.0590 -0.0159
  559ERGO    R1 6476   0.380  15.415   6.555 -0.2720 -0.0527 -0.0360
  559ERGO    R2 6477   0.481  15.578   6.754  0.0145 -0.2126 -0.0474
  559ERGO    R3 6478   0.270  15.481   6.896 -0.1038  0.0904 -0.0074
  559ERGO    R4 6479   0.459  15.576   7.099  0.0715 -0.1662 -0.0429
  559ERGO    R5 6480   0.370  15.377   7.087 -0.2148 -0.0456 -0.0201
  559ERGO    C1 6481   0.249  15.484   7.433 -0.0064  0.1452 -0.0027
  559ERGO    C2 6482   0.167  15.583   7.771 -0.0566 -0.1303  0.3070
  560ERGO   ROH 6483   1.793   9.192   9.849 -0.2180  0.2130  0.0276
  560ERGO    R1 6484   1.824   9.025   9.622 -0.2416  0.0788  0.1211
  560ERGO    R2 6485   1.610   8.946   9.465 -0.2282  0.2089  0.0327
  560ERGO    R3 6486   1.760   9.052   9.265 -0.0089 -0.0219  0.0710
  560ERGO    R4 6487   1.531   8.928   9.130 -0.1515  0.3051  0.0093
  560ERGO    R5 6488   1.742   8.892   9.087 -0.1881 -0.0076  0.0764
  560ERGO    C1 6489   1.626   9.016   8.746  0.0991  0.1445  0.0317
  560ERGO    C2 6490   1.562   8.935   8.395  0.0547  0.0212 -0.1197
  561ERGO   ROH 6491   2.087  13.977   9.645 -0.0862 -0.1018  0.0466
  561ERGO    R1 6492   2.006  13.775   9.464 -0.1343 -0.0466  0.0063
  561ERGO    R2 6493   1.919  13.832   9.208 -0.0661  0.0210 -0.0015
  561ERGO    R3 6494   2.113  13.655   9.137 -0.1241 -0.0479  0.0100
  561ERGO    R4 6495   1.953  13.691   8.894 -0.0111  0.1229 -0.0419
  561ERGO    R5 6496   2.003  13.501   8.990 -0.1421  0.0611 -0.0923
  561ERGO    C1 6497   2.155  13.443   8.645 -0.0336  0.1174 -0.0545
  561ERGO    C2 6498   2.128  13.457   8.255 -0.4094  0.0417 -0.0745
  562ERGO   ROH 6499   0.546   7.470   9.797  0.2935  0.2294  0.0066
  562ERGO    R1 6500   0.474   7.518   9.527  0.0819 -0.0075  0.0171
  562ERGO    R2 6501   0.594   7.714   9.374 -0.2184  0.0288 -0.1705
  562ERGO    R3 6502   0.641   7.508   9.203 -0.0999 -0.0208 -0.0798
  562ERGO    R4 6503   0.617   7.745   9.031 -0.0990 -0.0681 -0.1719
  562ERGO    R5 6504   0.505   7.558   9.012 -0.0481 -0.1117 -0.1493
  562ERGO    C1 6505   0.674   7.570   8.670  0.0819 -0.1711 -0.0874
  562ERGO    C2 6506   0.488   7.668   8.342  0.0613  0.0125 -0.1096
  563ERGO   ROH 6507  14.573   6.406  10.142  0.0600 -0.0437 -0.0724
  563ERGO    R1 6508  14.523   6.605   9.948 -0.0576 -0.0713 -0.0705
  563ERGO    R2 6509  14.690   6.648   9.731 -0.1452 -0.0483 -0.1322
  563ERGO    R3 6510  14.461   6.615   9.589 -0.1883 -0.1139 -0.0496
  563ERGO    R4 6511  14.651   6.729   9.398 -0.3113  0.0111 -0.0998
  563ERGO    R5 6512  14.453   6.806   9.445 -0.3268 -0.0835 -0.0042
  563ERGO    C1 6513  14.413   6.746   9.070 -0.4484 -0.0159 -0.0033
  563ERGO    C2 6514  14.520   6.822   8.865  0.0023 -0.1654  0.0334
  564ERGO   ROH 6515  12.336   3.024   6.513 -0.1299 -0.0805  0.0095
  564ERGO    R1 6516  12.137   3.098   6.700 -0.1110 -0.0459  0.0175
  564ERGO    R2 6517  11.989   2.913   6.841 -0.1874 -0.0240 -0.0242
  564ERGO    R3 6518  12.078   3.053   7.056 -0.1388 -0.1005  0.0046
  564ERGO    R4 6519  11.796   3.000   7.115 -0.1813  0.0926 -0.0573
  564ERGO    R5 6520  11.894   3.194   7.116 -0.0502  0.0215 -0.0222
  564ERGO    C1 6521  11.767   3.182   7.476 -0.1321  0.0887 -0.0495
  564ERGO    C2 6522  11.544   2.967   7.773 -0.0363  0.1316 -0.0475
  565ERGO   ROH 6523  16.509   5.136   6.715 -0.0969 -0.1459  0.1883
  565ERGO    R1 6524  16.594   4.957   6.917  0.1720 -0.1762  0.0556
  565ERGO    R2 6525  16.831   4.989   7.055  0.1603  0.0456  0.0434
  565ERGO    R3 6526  16.669   4.976   7.273  0.1996 -0.3113  0.0553
  565ERGO    R4 6527  16.940   4.946   7.380  0.2668  0.2254  0.0318
  565ERGO    R5 6528  16.772   4.812   7.413  0.5406 -0.1218  0.0290
  565ERGO    C1 6529  16.852   4.908   7.774  0.3655 -0.0049  0.0362
  565ERGO    C2 6530  16.972   5.043   8.027  0.3041 -0.1102 -0.1338
  566ERGO   ROH 6531  16.180   9.403   6.972 -0.1119  0.4598  0.0929
  566ERGO    R1 6532  16.125   9.313   7.235 -0.1297  0.2784  0.0297
  566ERGO    R2 6533  16.322   9.214   7.402 -0.1560  0.0454 -0.0608
  566ERGO    R3 6534  16.227   9.403   7.572 -0.0461 -0.0352  0.0896
  566ERGO    R4 6535  16.321   9.186   7.746  0.1353 -0.0672 -0.0675
  566ERGO    R5 6536  16.123   9.278   7.748  0.1263 -0.1067  0.1343
  566ERGO    C1 6537  16.232   9.347   8.107  0.4078 -0.2086  0.0697
  566ERGO    C2 6538  16.121   9.515   8.383  0.2013  0.0490 -0.0916
  567ERGO   ROH 6539  10.728  12.870   8.619 -0.0952 -0.2238  0.1035
  567ERGO    R1 6540  10.586  13.041   8.795 -0.0278 -0.1886  0.1236
  567ERGO    R2 6541  10.707  13.171   9.006  0.0746 -0.0663 -0.0097
  567ERGO    R3 6542  10.599  13.392   8.890 -0.0610 -0.1439 -0.0330
  567ERGO    R4 6543  10.681  13.482   9.155  0.1055 -0.0052 -0.1296
  567ERGO    R5 6544  10.483  13.502   9.067  0.0369 -0.0928 -0.0000
  567ERGO    C1 6545  10.564  13.869   9.133 -0.0039 -0.0423 -0.2212
  567ERGO    C2 6546  10.744  14.224   9.030  0.1014 -0.1133  0.2816
  568ERGO   ROH 6547   3.174   2.890   9.809  0.2257 -0.0770  0.0980
  568ERGO    R1 6548   3.270   2.987   9.561  0.1265 -0.1145  0.0450
  568ERGO    R2 6549   3.244   2.845   9.325 -0.0713 -0.0969  0.0588
  568ERGO    R3 6550   3.127   3.075   9.239 -0.0189 -0.0436  0.1265
  568ERGO    R4 6551   3.255   2.963   9.001 -0.0570 -0.0199  0.0867
  568ERGO    R5 6552   3.282   3.164   9.079 -0.0008 -0.0432  0.1398
  568ERGO    C1 6553   3.152   3.247   8.730  0.0006  0.0750  0.1664
  568ERGO    C2 6554   3.120   3.530   8.465 -0.0442  0.0935 -0.0240
  569ERGO   ROH 6555  15.684  13.111   7.170  0.0237  0.1316 -0.0203
  569ERGO    R1 6556  15.615  12.963   7.401  0.1263  0.0484 -0.0434
  569ERGO    R2 6557  15.800  12.889   7.591  0.1761  0.1466 -0.0600
  569ERGO    R3 6558  15.628  13.012   7.761  0.0926 -0.0009 -0.0338
  569ERGO    R4 6559  15.795  12.845   7.934  0.2925  0.1572 -0.0557
  569ERGO    R5 6560  15.577  12.846   7.926  0.2819 -0.0458 -0.0127
  569ERGO    C1 6561  15.629  12.935   8.293  0.2819  0.0248 -0.0287
  569ERGO    C2 6562  15.500  12.950   8.592 -0.2850 -0.5328 -0.0672
  570ERGO   ROH 6563   4.930  11.974   6.701  0.2491  0.1043  0.1353
  570ERGO    R1 6564   4.898  11.970   6.982  0.1351  0.0256  0.1224
  570ERGO    R2 6565   4.953  12.190   7.141  0.0394 -0.0071  0.2039
  570ERGO    R3 6566   4.698  12.149   7.228  0.0090 -0.0674  0.0882
  570ERGO    R4 6567   4.818  12.324   7.430 -0.1230 -0.0500  0.1491
  570ERGO    R5 6568   4.718  12.134   7.466 -0.0964 -0.0726  0.0958
  570ERGO    C1 6569   4.501  12.365   7.679 -0.2461 -0.1315  0.0085
  570ERGO    C2 6570   4.489  12.607   7.939 -0.1158  0.3129  0.0824
  571ERGO   ROH 6571   1.668   2.949   9.488 -0.1428  0.0665 -0.1236
  571ERGO    R1 6572   1.815   2.916   9.248 -0.1028  0.2046 -0.1184
  571ERGO    R2 6573   1.816   2.679   9.105  0.1886  0.1770 -0.0750
  571ERGO    R3 6574   1.739   2.840   8.900 -0.0139  0.0480 -0.1040
  571ERGO    R4 6575   1.879   2.617   8.771  0.3163  0.2269 -0.0614
  571ERGO    R5 6576   1.921   2.829   8.745  0.0225  0.2858 -0.0808
  571ERGO    C1 6577   1.844   2.732   8.384  0.2006  0.1349 -0.0808
  571ERGO    C2 6578   1.747   2.763   8.078 -0.3132  0.1843 -0.0744
  572ERGO   ROH 6579   0.558   1.491   9.496  0.0831 -0.0545  0.0337
  572ERGO    R1 6580   0.560   1.491   9.213  0.1133 -0.2330  0.0325
  572ERGO    R2 6581   0.726   1.328   9.065  0.0427 -0.4137  0.1517
  572ERGO    R3 6582   0.493   1.252   8.947  0.0150 -0.3654  0.1748
  572ERGO    R4 6583   0.670   1.324   8.724 -0.0648 -0.1892  0.1651
  572ERGO    R5 6584   0.469   1.401   8.761 -0.0646 -0.2408  0.2827
  572ERGO    C1 6585   0.418   1.250   8.415 -0.1534 -0.0131  0.1945
  572ERGO    C2 6586   0.309   1.187   8.064 -0.0697  0.1083 -0.0617
  573ERGO   ROH 6587  17.639   7.278   9.755 -0.0253 -0.0602 -0.0670
  573ERGO    R1 6588  17.594   7.359   9.487  0.0899 -0.0097 -0.0718
  573ERGO    R2 6589  17.798   7.441   9.319  0.1823 -0.1169 -0.0139
  573ERGO    R3 6590  17.698   7.248   9.156  0.1072 -0.0438 -0.0551
  573ERGO    R4 6591  17.790   7.458   8.974  0.1438 -0.0196 -0.0083
  573ERGO    R5 6592  17.592   7.369   8.979  0.1191  0.0352 -0.0086
  573ERGO    C1 6593  17.692   7.287   8.621  0.0510  0.1056 -0.0437
  573ERGO    C2 6594  17.731   7.075   8.329 -0.1352  0.0889  0.0435
  574ERGO   ROH 6595   8.705  12.550  10.331 -0.0255 -0.1068 -0.0055
  574ERGO    R1 6596   8.529  12.460  10.128  0.0007 -0.1680 -0.0018
  574ERGO    R2 6597   8.506  12.588   9.884 -0.1096 -0.1268  0.0276
  574ERGO    R3 6598   8.561  12.340   9.785  0.0283 -0.0732 -0.0322
  574ERGO    R4 6599   8.333  12.435   9.627 -0.0505 -0.1798  0.0197
  574ERGO    R5 6600   8.345  12.247   9.736  0.0793 -0.1952 -0.0226
  574ERGO    C1 6601   8.283  12.114   9.385  0.1132 -0.1602 -0.0412
  574ERGO    C2 6602   8.229  11.901   9.117  0.2998  0.1715  0.0864
  575ERGO   ROH 6603   1.824   6.401   6.982  0.2248 -0.0641  0.1116
  575ERGO    R1 6604   1.763   6.488   7.245  0.0089 -0.1582  0.0946
  575ERGO    R2 6605   1.678   6.314   7.442  0.2683 -0.3066  0.0799
  575ERGO    R3 6606   1.887   6.420   7.580  0.0548  0.0734  0.1261
  575ERGO    R4 6607   1.738   6.263   7.779  0.4719 -0.4915  0.0178
  575ERGO    R5 6608   1.795   6.473   7.795 -0.0313 -0.3545  0.2039
  575ERGO    C1 6609   1.969   6.332   8.104  0.3900 -0.2424  0.0251
  575ERGO    C2 6610   2.074   6.079   8.338  0.2579 -0.1676  0.1456
  576ERGO   ROH 6611  15.335  10.397   7.081 -0.0011  0.0609 -0.0127
  576ERGO    R1 6612  15.426  10.488   7.333  0.0992  0.0646 -0.0484
  576ERGO    R2 6613  15.265  10.634   7.504  0.1516  0.0332  0.0335
  576ERGO    R3 6614  15.332  10.438   7.681  0.2632  0.0333 -0.0089
  576ERGO    R4 6615  15.235  10.659   7.848 -0.0367 -0.1272  0.0301
  576ERGO    R5 6616  15.426  10.556   7.867  0.0572  0.0570  0.0805
  576ERGO    C1 6617  15.281  10.490   8.214 -0.0415 -0.2204 -0.0118
  576ERGO    C2 6618  15.135  10.579   8.474 -0.3155  0.0688 -0.1291
  577ERGO   ROH 6619   9.506   6.115   6.273  0.0676 -0.1132  0.1165
  577ERGO    R1 6620   9.309   5.947   6.387  0.0091 -0.0472  0.1143
  577ERGO    R2 6621   9.238   5.960   6.654 -0.1062  0.0864  0.0812
  577ERGO    R3 6622   8.988   5.991   6.553 -0.0593  0.0535 -0.0446
  577ERGO    R4 6623   8.947   5.858   6.810 -0.1746  0.0439 -0.0735
  577ERGO    R5 6624   8.872   5.792   6.617 -0.0663  0.0392 -0.1104
  577ERGO    C1 6625   8.543   5.827   6.805 -0.1704 -0.0117 -0.2815
  577ERGO    C2 6626   8.261   5.900   6.988  0.1844 -0.1640  0.1540
  578ERGO   ROH 6627   4.581  16.164   9.578 -0.0691  0.1661  0.1075
  578ERGO    R1 6628   4.560  16.220   9.301 -0.1906  0.0162  0.0849
  578ERGO    R2 6629   4.634  16.462   9.193 -0.2988 -0.0208 -0.0707
  578ERGO    R3 6630   4.788  16.307   9.031 -0.3184 -0.0607 -0.0507
  578ERGO    R4 6631   4.778  16.569   8.897 -0.2856 -0.0663 -0.0802
  578ERGO    R5 6632   4.728  16.375   8.809 -0.3119 -0.0738 -0.0596
  578ERGO    C1 6633   5.007  16.485   8.573 -0.2963 -0.1305 -0.0670
  578ERGO    C2 6634   5.202  16.715   8.315  0.4026  0.1332  0.1160
  579ERGO   ROH 6635  14.034   7.716  10.373 -0.0532  0.0340  0.0005
  579ERGO    R1 6636  13.823   7.761  10.189 -0.0337 -0.0890 -0.0530
  579ERGO    R2 6637  13.784   8.005  10.065 -0.2096 -0.0795  0.0222
  579ERGO    R3 6638  13.794   7.855   9.839 -0.0011  0.0093 -0.0303
  579ERGO    R4 6639  13.714   8.122   9.748 -0.2308 -0.0263  0.0463
  579ERGO    R5 6640  13.611   7.935   9.707 -0.0429 -0.1147 -0.0518
  579ERGO    C1 6641  13.683   8.049   9.350 -0.0476  0.0880  0.0109
  579ERGO    C2 6642  13.534   8.101   8.950 -0.2190  0.1766 -0.2080
  580ERGO   ROH 6643   1.673  10.626   9.829 -0.0480 -0.2919 -0.0398
  580ERGO    R1 6644   1.660  10.636   9.546 -0.1743 -0.2089 -0.0322
  580ERGO    R2 6645   1.883  10.610   9.386 -0.2231 -0.0186 -0.1381
  580ERGO    R3 6646   1.737  10.412   9.270 -0.1508 -0.0737 -0.1355
  580ERGO    R4 6647   1.867  10.548   9.046 -0.0751 -0.1348 -0.1247
  580ERGO    R5 6648   1.654  10.510   9.068 -0.0779 -0.1523 -0.2021
  580ERGO    C1 6649   1.721  10.327   8.739  0.0790 -0.2540 -0.1144
  580ERGO    C2 6650   1.837  10.197   8.406 -0.0648  0.1015 -0.1619
  581ERGO   ROH 6651   7.385   3.849   9.233  0.0608 -0.1458 -0.0729
  581ERGO    R1 6652   7.582   3.794   9.037  0.0104 -0.1739 -0.1159
  581ERGO    R2 6653   7.522   3.777   8.767 -0.0330 -0.0611 -0.1152
  581ERGO    R3 6654   7.718   3.964   8.745  0.0496 -0.1433 -0.0794
  581ERGO    R4 6655   7.676   3.869   8.471 -0.0643  0.0031 -0.1115
  581ERGO    R5 6656   7.865   3.876   8.578 -0.0339 -0.1352 -0.1565
  581ERGO    C1 6657   7.950   4.098   8.279 -0.0049 -0.0366 -0.0757
  581ERGO    C2 6658   8.093   4.085   7.979 -0.0507 -0.0775 -0.1046
  582ERGO   ROH 6659   3.298   7.357  10.328 -0.1124  0.0786  0.0755
  582ERGO    R1 6660   3.451   7.192  10.157 -0.0037  0.1929  0.0616
  582ERGO    R2 6661   3.337   7.021   9.972  0.0962 -0.0696  0.2373
  582ERGO    R3 6662   3.498   7.154   9.798 -0.2042  0.0593  0.0477
  582ERGO    R4 6663   3.414   6.915   9.652  0.1236 -0.2161  0.2914
  582ERGO    R5 6664   3.619   6.982   9.685  0.0341  0.1584  0.1425
  582ERGO    C1 6665   3.611   6.978   9.303 -0.1424 -0.1803  0.1450
  582ERGO    C2 6666   3.589   7.091   8.962 -0.3097  0.3567 -0.0211
  583ERGO   ROH 6667  14.921   3.278   9.813  0.0312 -0.0810  0.0596
  583ERGO    R1 6668  14.974   3.169   9.557  0.0041 -0.2070  0.1074
  583ERGO    R2 6669  14.843   2.945   9.461 -0.1907 -0.1041  0.1296
  583ERGO    R3 6670  14.787   3.109   9.251  0.0405 -0.1044  0.0643
  583ERGO    R4 6671  14.697   2.843   9.165 -0.1857 -0.0443  0.1064
  583ERGO    R5 6672  14.834   2.975   9.058 -0.0188 -0.2033  0.1169
  583ERGO    C1 6673  14.559   2.938   8.795  0.0342 -0.0097  0.0316
  583ERGO    C2 6674  14.252   2.738   8.748  0.1178 -0.0073  0.4162
  584ERGO   ROH 6675   9.364   6.891  10.014  0.3237 -0.0699 -0.1898
  584ERGO    R1 6676   9.419   7.041   9.781  0.1028  0.0663 -0.1571
  584ERGO    R2 6677   9.549   6.933   9.561  0.2020  0.2859 -0.2084
  584ERGO    R3 6678   9.330   7.024   9.428  0.0663  0.0565 -0.1476
  584ERGO    R4 6679   9.521   6.952   9.217  0.1695  0.4485 -0.1977
  584ERGO    R5 6680   9.420   7.144   9.241 -0.1040  0.2966 -0.0812
  584ERGO    C1 6681   9.299   7.048   8.892  0.0232  0.3278 -0.1344
  584ERGO    C2 6682   9.176   7.123   8.557  0.2371  0.3455  0.0442
  585ERGO   ROH 6683  10.409   6.344   6.616 -0.0536  0.0921 -0.0262
  585ERGO    R1 6684  10.252   6.231   6.822 -0.0269  0.1760  0.0398
  585ERGO    R2 6685  10.357   6.060   7.012 -0.0342  0.1392  0.0047
  585ERGO    R3 6686  10.249   6.238   7.186  0.1143  0.1950  0.0427
  585ERGO    R4 6687  10.282   5.990   7.342  0.0510  0.1698  0.0314
  585ERGO    R5 6688  10.098   6.106   7.318  0.0947  0.2630  0.0953
  585ERGO    C1 6689  10.136   6.117   7.698  0.2401  0.2401  0.0827
  585ERGO    C2 6690  10.123   5.976   7.929 -0.0368 -0.1842  0.2415
  586ERGO   ROH 6691   6.877   8.043   6.984  0.0505 -0.3771 -0.0648
  586ERGO    R1 6692   6.896   8.102   7.260 -0.1127 -0.3024 -0.0684
  586ERGO    R2 6693   6.870   7.909   7.455  0.0181 -0.2933 -0.0418
  586ERGO    R3 6694   7.111   8.005   7.537 -0.1095 -0.0236  0.0303
  586ERGO    R4 6695   7.048   7.791   7.727  0.2135 -0.3135 -0.1764
  586ERGO    R5 6696   7.101   7.997   7.776 -0.0799 -0.2802  0.0260
  586ERGO    C1 6697   7.378   7.813   7.962  0.2075 -0.0720 -0.1870
  586ERGO    C2 6698   7.562   7.649   8.195  0.1298 -0.2423 -0.1880
  587ERGO   ROH 6699   9.331  14.374   7.268  0.4739  0.0233  0.1276
  587ERGO    R1 6700   9.380  14.465   7.531  0.2996  0.1030  0.1342
  587ERGO    R2 6701   9.242  14.676   7.644  0.1530  0.0732  0.0163
  587ERGO    R3 6702   9.189  14.495   7.840  0.1253  0.0948  0.0285
  587ERGO    R4 6703   9.183  14.755   7.976  0.1297  0.1067  0.0040
  587ERGO    R5 6704   9.302  14.582   8.033  0.1138  0.1051  0.0300
  587ERGO    C1 6705   9.099  14.630   8.352  0.0902  0.1464  0.0084
  587ERGO    C2 6706   9.051  14.736   8.589 -0.1999  0.0929 -0.1476
  588ERGO   ROH 6707   5.592   5.196   6.235  0.4450 -0.1558 -0.1191
  588ERGO    R1 6708   5.760   5.186   6.462  0.3375  0.1860 -0.0186
  588ERGO    R2 6709   5.837   5.412   6.601 -0.2720  0.3444  0.0821
  588ERGO    R3 6710   5.736   5.277   6.814 -0.0913  0.0558 -0.0079
  588ERGO    R4 6711   5.964   5.425   6.922 -0.3267  0.3650  0.1036
  588ERGO    R5 6712   5.928   5.211   6.940  0.0074  0.2865 -0.0254
  588ERGO    C1 6713   5.943   5.306   7.309 -0.1889  0.1061  0.0316
  588ERGO    C2 6714   5.950   5.252   7.703 -0.1304 -0.0249  0.0819
  589ERGO   ROH 6715  16.790   0.161   6.569  0.1397  0.5249 -0.3227
  589ERGO    R1 6716  16.898   0.333   6.767  0.0852  0.2436 -0.0396
  589ERGO    R2 6717  16.951   0.248   7.024  0.0805 -0.1505 -0.1608
  589ERGO    R3 6718  17.199   0.345   6.970  0.0644 -0.0084  0.0099
  589ERGO    R4 6719  17.179   0.355   7.262 -0.0610 -0.2235  0.0099
  589ERGO    R5 6720  17.232   0.520   7.130 -0.0735 -0.1076  0.1485
  589ERGO    C1 6721  17.544   0.508   7.349 -0.1586 -0.1327  0.2696
  589ERGO    C2 6722  17.820   0.569   7.605  0.0619 -0.0352 -0.3281
  590ERGO   ROH 6723  11.022   9.355   7.032 -0.0365 -0.2581  0.0349
  590ERGO    R1 6724  11.155   9.389   7.280 -0.0392 -0.0319  0.0068
  590ERGO    R2 6725  11.066   9.564   7.474 -0.3097 -0.1916  0.0297
  590ERGO    R3 6726  11.074   9.344   7.632  0.1150 -0.1889  0.0239
  590ERGO    R4 6727  11.053   9.569   7.819 -0.5277 -0.2295  0.0235
  590ERGO    R5 6728  11.204   9.412   7.822 -0.1498  0.1162  0.1055
  590ERGO    C1 6729  11.052   9.365   8.169 -0.2560 -0.2489  0.0143
  590ERGO    C2 6730  11.049   9.204   8.418 -0.0823 -0.0366 -0.2754
  591ERGO   ROH 6731   7.970   3.038   9.459 -0.0510 -0.0110 -0.1494
  591ERGO    R1 6732   8.083   3.105   9.209  0.0738  0.0670 -0.0749
  591ERGO    R2 6733   8.355   3.136   9.171  0.1175 -0.1483  0.0175
  591ERGO    R3 6734   8.316   2.952   8.975 -0.0010  0.0212 -0.1191
  591ERGO    R4 6735   8.559   3.096   8.896  0.1523 -0.1457  0.0446
  591ERGO    R5 6736   8.381   3.066   8.774  0.1553  0.1010 -0.0239
  591ERGO    C1 6737   8.642   2.901   8.551  0.0615  0.0150 -0.0679
  591ERGO    C2 6738   8.845   2.788   8.331  0.3825 -0.1531  0.0012
  592ERGO   ROH 6739  15.157  16.488  10.338  0.3835 -0.0486 -0.0925
  592ERGO    R1 6740  15.014  16.419  10.103  0.2620  0.0517 -0.0495
  592ERGO    R2 6741  15.116  16.460   9.849  0.2334 -0.0608 -0.0797
  592ERGO    R3 6742  15.064  16.195   9.821 -0.0042 -0.0201 -0.0419
  592ERGO    R4 6743  15.093  16.295   9.547  0.2588 -0.1153 -0.0519
  592ERGO    R5 6744  14.924  16.182   9.627  0.1000  0.0658 -0.1240
  592ERGO    C1 6745  15.031  15.949   9.344  0.0505 -0.1087 -0.0003
  592ERGO    C2 6746  15.046  15.818   9.022 -0.1736 -0.0978 -0.2243
  593ERGO   ROH 6747   8.667   2.316   9.595  0.0286  0.2651 -0.0714
  593ERGO    R1 6748   8.812   2.126   9.443  0.1893  0.2359  0.1155
  593ERGO    R2 6749   8.730   2.043   9.192  0.2559 -0.0825  0.2010
  593ERGO    R3 6750   8.982   2.119   9.121  0.1921  0.0588  0.1177
  593ERGO    R4 6751   8.901   1.930   8.913  0.1517  0.1385  0.0437
  593ERGO    R5 6752   9.082   1.920   9.034  0.2227  0.1394 -0.0484
  593ERGO    C1 6753   9.236   1.935   8.685  0.0310  0.3998 -0.1260
  593ERGO    C2 6754   9.433   1.880   8.517  0.3548 -0.0140  0.0680
  594ERGO   ROH 6755   6.611   6.749   9.949  0.0142 -0.0670 -0.0870
  594ERGO    R1 6756   6.741   6.899   9.747  0.0314 -0.1207 -0.1158
  594ERGO    R2 6757   6.778   6.803   9.490 -0.1392 -0.1048 -0.1471
  594ERGO    R3 6758   6.653   7.034   9.421 -0.0144 -0.0087 -0.0577
  594ERGO    R4 6759   6.799   6.952   9.180 -0.2772 -0.1419 -0.1751
  594ERGO    R5 6760   6.811   7.146   9.279 -0.0403 -0.1429 -0.1954
  594ERGO    C1 6761   6.694   7.257   8.933 -0.2403 -0.0732 -0.1075
  594ERGO    C2 6762   6.746   7.329   8.609 -0.2557  0.2357 -0.0487
  595ERGO   ROH 6763  17.771   3.176   6.352  0.0268 -0.1018  0.1101
  595ERGO    R1 6764  17.753   3.108   6.626 -0.0403  0.0164  0.1360
  595ERGO    R2 6765  17.933   3.199   6.814  0.0299 -0.0623  0.1081
  595ERGO    R3 6766  17.709   3.286   6.940  0.0961  0.1737  0.0674
  595ERGO    R4 6767  17.879   3.178   7.154 -0.0691 -0.0390  0.0938
  595ERGO    R5 6768  17.672   3.124   7.113 -0.1226  0.1950  0.0422
  595ERGO    C1 6769  17.636   3.248   7.472 -0.0645  0.1961  0.0473
  595ERGO    C2 6770  17.798   3.309   7.907  0.2258 -0.2271 -0.0466
  596ERGO   ROH 6771   1.822  14.883   9.615 -0.1341 -0.1102 -0.1467
  596ERGO    R1 6772   1.634  14.951   9.414 -0.1072  0.0167 -0.1295
  596ERGO    R2 6773   1.611  15.206   9.312 -0.0095  0.0532 -0.0577
  596ERGO    R3 6774   1.646  15.079   9.074 -0.0572  0.1074 -0.0944
  596ERGO    R4 6775   1.520  15.335   9.004  0.3725  0.3383 -0.0598
  596ERGO    R5 6776   1.450  15.136   8.947  0.1014  0.4648 -0.1920
  596ERGO    C1 6777   1.499  15.290   8.602  0.5503  0.5551 -0.0955
  596ERGO    C2 6778   1.488  15.354   8.216  0.1816  0.1040  0.3575
  597ERGO   ROH 6779   0.354  17.886   9.222 -0.0881  0.0163  0.2007
  597ERGO    R1 6780   0.526  18.006   9.032 -0.0118  0.0190  0.2716
  597ERGO    R2 6781   0.765  17.892   8.954 -0.0905 -0.0918  0.2017
  597ERGO    R3 6782   0.660  17.919   8.705 -0.0729  0.1293  0.2156
  597ERGO    R4 6783   0.948  17.887   8.661 -0.0779  0.0565  0.2056
  597ERGO    R5 6784   0.823  18.049   8.586 -0.0188  0.1603  0.3177
  597ERGO    C1 6785   0.956  17.911   8.256 -0.0542  0.3500  0.2210
  597ERGO    C2 6786   1.028  17.871   7.912  0.0065  0.0111 -0.1029
  598ERGO   ROH 6787   8.075   6.433   9.789 -0.1319  0.1872 -0.0395
  598ERGO    R1 6788   8.250   6.430   9.567 -0.0948  0.1606 -0.0099
  598ERGO    R2 6789   8.208   6.269   9.347 -0.0185  0.0797  0.0341
  598ERGO    R3 6790   8.228   6.504   9.212 -0.0555  0.0422 -0.0373
  598ERGO    R4 6791   8.316   6.300   9.020  0.0873  0.0112  0.0618
  598ERGO    R5 6792   8.426   6.480   9.078  0.0011  0.0702  0.0416
  598ERGO    C1 6793   8.397   6.539   8.703  0.1141 -0.0639  0.0108
  598ERGO    C2 6794   8.488   6.698   8.442 -0.0179  0.0795 -0.0407
  599ERGO   ROH 6795  13.005  16.075   7.021  0.0289 -0.2145 -0.0663
  599ERGO    R1 6796  12.914  15.981   7.271  0.0523 -0.0875 -0.0088
  599ERGO    R2 6797  13.062  16.006   7.503  0.0882  0.0018 -0.0404
  599ERGO    R3 6798  12.836  16.125   7.596  0.1159  0.0731 -0.0640
  599ERGO    R4 6799  12.965  16.013   7.835  0.0902  0.0908 -0.0417
  599ERGO    R5 6800  12.760  15.979   7.770  0.0823  0.1256 -0.0346
  599ERGO    C1 6801  12.697  16.128   8.115  0.1173  0.2094 -0.0645
  599ERGO    C2 6802  12.817  16.180   8.351 -0.0018  0.2735 -0.1390
  600ERGO   ROH 6803  17.089  13.143   9.967  0.0223  0.1211 -0.1316
  600ERGO    R1 6804  17.002  13.095   9.702 -0.0216  0.1621 -0.1235
  600ERGO    R2 6805  17.162  13.145   9.482  0.0915 -0.1780 -0.1161
  600ERGO    R3 6806  17.108  12.885   9.423 -0.3245 -0.1184 -0.0357
  600ERGO    R4 6807  17.086  13.025   9.167  0.3369 -0.2013 -0.1698
  600ERGO    R5 6808  16.935  12.896   9.258 -0.0657  0.1330 -0.3093
  600ERGO    C1 6809  16.990  12.711   8.928  0.0891 -0.1589 -0.1257
  600ERGO    C2 6810  16.813  12.511   8.717 -0.0666 -0.1442 -0.0229
  601ERGO   ROH 6811   4.910   9.338   7.012 -0.1005 -0.0403  0.0037
  601ERGO    R1 6812   4.913   9.513   7.233  0.1376 -0.0844  0.0388
  601ERGO    R2 6813   4.697   9.541   7.404  0.2272  0.0665  0.1305
  601ERGO    R3 6814   4.882   9.483   7.595  0.2559 -0.1290  0.0457
  601ERGO    R4 6815   4.645   9.571   7.745  0.3823  0.0322  0.1574
  601ERGO    R5 6816   4.848   9.650   7.763  0.4569 -0.1371  0.0978
  601ERGO    C1 6817   4.789   9.534   8.122  0.4996 -0.1712  0.0935
  601ERGO    C2 6818   4.633   9.296   8.369  0.0606 -0.0755  0.1942
  602ERGO   ROH 6819  10.276  10.793  10.289  0.1418 -0.2755  0.0875
  602ERGO    R1 6820  10.403  10.937  10.081 -0.0948 -0.1914 -0.0012
  602ERGO    R2 6821  10.675  10.927  10.037 -0.0816  0.1767 -0.0353
  602ERGO    R3 6822  10.599  10.858   9.785 -0.0235 -0.0538  0.0081
  602ERGO    R4 6823  10.844  11.016   9.749  0.0268 -0.1450 -0.0757
  602ERGO    R5 6824  10.651  11.051   9.653  0.0617 -0.1928 -0.1675
  602ERGO    C1 6825  10.871  11.004   9.344  0.1443 -0.5487 -0.0585
  602ERGO    C2 6826  10.964  10.839   9.005  0.0516  0.1890  0.0118
  603ERGO   ROH 6827  15.635   6.414  10.039  0.0161  0.0172 -0.0631
  603ERGO    R1 6828  15.551   6.300   9.794  0.0159 -0.0133 -0.0500
  603ERGO    R2 6829  15.473   6.453   9.577 -0.0392 -0.0394 -0.0535
  603ERGO    R3 6830  15.662   6.306   9.448 -0.0189 -0.0051 -0.0604
  603ERGO    R4 6831  15.444   6.333   9.255  0.0030  0.0182 -0.0777
  603ERGO    R5 6832  15.537   6.147   9.320  0.0051  0.0129 -0.1029
  603ERGO    C1 6833  15.605   6.126   8.945  0.0465  0.0840 -0.0983
  603ERGO    C2 6834  15.646   5.932   8.624  0.0203  0.0171  0.0431
  604ERGO   ROH 6835   0.199  11.113   9.780 -0.3262 -0.0986 -0.0693
  604ERGO    R1 6836   0.338  11.132   9.534 -0.1980  0.0176  0.0113
  604ERGO    R2 6837   0.293  10.956   9.325  0.0384  0.0104 -0.0278
  604ERGO    R3 6838   0.250  11.185   9.185 -0.0323 -0.0066 -0.0366
  604ERGO    R4 6839   0.374  11.003   8.992 -0.0408 -0.0122 -0.0514
  604ERGO    R5 6840   0.441  11.204   9.041 -0.0614  0.0087 -0.0811
  604ERGO    C1 6841   0.380  11.245   8.667 -0.1533 -0.0415 -0.0733
  604ERGO    C2 6842   0.403  11.429   8.364  0.3554  0.1095 -0.0426
  605ERGO   ROH 6843  12.873  14.764   7.113  0.0499  0.1338  0.0523
  605ERGO    R1 6844  12.958  14.860   7.366 -0.0345  0.1483  0.0763
  605ERGO    R2 6845  12.782  14.916   7.571 -0.0985  0.0805  0.0452
  605ERGO    R3 6846  12.941  14.746   7.711 -0.0722  0.1223  0.0648
  605ERGO    R4 6847  12.788  14.889   7.916 -0.2411 -0.0311  0.0394
  605ERGO    R5 6848  13.005  14.870   7.905 -0.2291  0.0899  0.1347
  605ERGO    C1 6849  12.941  14.714   8.247 -0.2995 -0.0568  0.0545
  605ERGO    C2 6850  12.947  14.691   8.556  0.1384  0.1042 -0.2607
  606ERGO   ROH 6851   1.589   1.911   9.151  0.1244  0.1938 -0.0390
  606ERGO    R1 6852   1.726   1.731   8.982  0.1082  0.0522  0.0964
  606ERGO    R2 6853   1.615   1.493   8.896 -0.0010  0.1030  0.0951
  606ERGO    R3 6854   1.677   1.590   8.650  0.2180 -0.0067  0.1045
  606ERGO    R4 6855   1.628   1.304   8.607 -0.2174  0.0596  0.1117
  606ERGO    R5 6856   1.806   1.416   8.548 -0.0229 -0.2183  0.1513
  606ERGO    C1 6857   1.694   1.284   8.208 -0.1378 -0.0687  0.1302
  606ERGO    C2 6858   1.768   1.046   8.051  0.0759  0.2407 -0.0570
  607ERGO   ROH 6859  13.203  13.117   7.579 -0.0174 -0.1091 -0.2214
  607ERGO    R1 6860  13.277  13.218   7.833  0.0751 -0.0520 -0.2703
  607ERGO    R2 6861  13.147  13.146   8.066  0.0768  0.0981 -0.2206
  607ERGO    R3 6862  13.399  13.081   8.147  0.0585  0.0026 -0.2400
  607ERGO    R4 6863  13.284  13.228   8.373  0.1297  0.0431 -0.2295
  607ERGO    R5 6864  13.472  13.271   8.272  0.1388 -0.0263 -0.2427
  607ERGO    C1 6865  13.599  13.216   8.627  0.1434 -0.0786 -0.2529
  607ERGO    C2 6866  13.855  13.256   8.876 -0.1532  0.0651  0.0446
  608ERGO   ROH 6867  13.156  16.247   9.982  0.1182 -0.0235  0.0260
  608ERGO    R1 6868  13.080  16.191   9.715  0.0275 -0.0461  0.0558
  608ERGO    R2 6869  13.208  16.305   9.498 -0.0708 -0.0343  0.0035
  608ERGO    R3 6870  13.238  16.046   9.421 -0.0585 -0.0330  0.0031
  608ERGO    R4 6871  13.276  16.202   9.175 -0.2753 -0.0420 -0.0387
  608ERGO    R5 6872  13.137  16.037   9.204 -0.2126 -0.0767  0.0752
  608ERGO    C1 6873  13.344  15.899   8.915 -0.3829 -0.0451 -0.0637
  608ERGO    C2 6874  13.597  15.726   8.618 -0.0349 -0.1512  0.0002
  609ERGO   ROH 6875  11.503   6.096   9.918  0.1910  0.1549  0.0827
  609ERGO    R1 6876  11.442   6.009   9.656  0.1511 -0.0133  0.1463
  609ERGO    R2 6877  11.401   6.185   9.447 -0.1607 -0.1360  0.1008
  609ERGO    R3 6878  11.594   6.036   9.326 -0.0523  0.0391  0.0544
  609ERGO    R4 6879  11.476   6.197   9.110 -0.3278 -0.1342  0.0629
  609ERGO    R5 6880  11.500   5.980   9.113 -0.0927 -0.1143  0.1091
  609ERGO    C1 6881  11.701   6.064   8.800 -0.3235  0.0311 -0.0026
  609ERGO    C2 6882  11.798   6.151   8.471  0.1594 -0.0741 -0.1139
  610ERGO   ROH 6883  11.225   7.136   9.843 -0.0354  0.0330  0.1715
  610ERGO    R1 6884  11.196   7.304   9.617 -0.0738 -0.0238  0.1334
  610ERGO    R2 6885  11.198   7.208   9.357 -0.0057 -0.0757  0.1526
  610ERGO    R3 6886  10.960   7.338   9.342 -0.0544 -0.1712  0.0977
  610ERGO    R4 6887  11.035   7.287   9.063  0.1462  0.0581  0.1039
  610ERGO    R5 6888  10.982   7.480   9.150  0.0057 -0.0249  0.2098
  610ERGO    C1 6889  10.717   7.456   8.877  0.1888  0.0465  0.0239
  610ERGO    C2 6890  10.542   7.557   8.721  0.2316 -0.0653 -0.0516
  611ERGO   ROH 6891  11.534  10.196   8.327  0.0576 -0.1011 -0.3520
  611ERGO    R1 6892  11.273  10.304   8.317  0.1105  0.0626 -0.0631
  611ERGO    R2 6893  11.049  10.159   8.389  0.0727  0.0863 -0.1465
  611ERGO    R3 6894  11.005  10.371   8.554  0.2722 -0.1132  0.1762
  611ERGO    R4 6895  10.794  10.178   8.621 -0.0576  0.0576 -0.2843
  611ERGO    R5 6896  10.766  10.388   8.566  0.2786  0.2033  0.0368
  611ERGO    C1 6897  10.604  10.388   8.912  0.0539 -0.1463 -0.0614
  611ERGO    C2 6898  10.532  10.275   9.186 -0.1899 -0.1334  0.0336
  612ERGO   ROH 6899  15.866  11.026  10.369  0.2056  0.2076 -0.1164
  612ERGO    R1 6900  15.847  11.098  10.096  0.0549  0.1583 -0.1199
  612ERGO    R2 6901  15.898  10.920   9.891  0.3608  0.2317 -0.1137
  612ERGO    R3 6902  15.650  10.993   9.809  0.2146 -0.2166 -0.0974
  612ERGO    R4 6903  15.779  10.887   9.569  0.4911  0.2492 -0.1640
  612ERGO    R5 6904  15.683  11.081   9.589  0.0764  0.0403 -0.0183
  612ERGO    C1 6905  15.476  10.936   9.303  0.4297 -0.1616 -0.1779
  612ERGO    C2 6906  15.393  10.843   8.962 -0.0654 -0.4215 -0.2825
  613ERGO   ROH 6907   1.644   4.244   9.691  0.1698 -0.1832 -0.0369
  613ERGO    R1 6908   1.704   4.050   9.494  0.1484 -0.0803 -0.1462
  613ERGO    R2 6909   1.559   4.026   9.260  0.1083  0.0286 -0.1346
  613ERGO    R3 6910   1.803   4.050   9.144  0.0870  0.1045 -0.1638
  613ERGO    R4 6911   1.623   3.980   8.923  0.0935  0.0148 -0.1357
  613ERGO    R5 6912   1.808   3.878   8.978  0.1348  0.0892 -0.1444
  613ERGO    C1 6913   1.890   3.976   8.618  0.0649  0.0780 -0.1636
  613ERGO    C2 6914   1.995   4.023   8.247  0.2414  0.0147 -0.1465
  614ERGO   ROH 6915   6.035   9.231  10.536  0.1283 -0.0558 -0.0266
  614ERGO    R1 6916   6.063   9.187  10.258  0.1552 -0.1616 -0.0076
  614ERGO    R2 6917   5.861   9.244  10.078  0.1541 -0.2786 -0.0426
  614ERGO    R3 6918   6.055   9.391   9.957  0.1291 -0.2843 -0.0906
  614ERGO    R4 6919   5.867   9.322   9.741 -0.1339  0.0511  0.0232
  614ERGO    R5 6920   6.083   9.288   9.742 -0.1523 -0.0924 -0.2264
  614ERGO    C1 6921   6.053   9.507   9.432 -0.3251  0.2379  0.0164
  614ERGO    C2 6922   6.109   9.731   9.228  0.1086  0.2684 -0.1221
  615ERGO   ROH 6923  13.431   5.185   9.930  0.1444 -0.0258 -0.0949
  615ERGO    R1 6924  13.458   5.095   9.664  0.0819  0.0260 -0.1204
  615ERGO    R2 6925  13.254   5.114   9.478 -0.0147 -0.0673 -0.0346
  615ERGO    R3 6926  13.443   5.243   9.331 -0.1501  0.0665 -0.0915
  615ERGO    R4 6927  13.245   5.154   9.135 -0.1070 -0.1176 -0.0374
  615ERGO    R5 6928  13.459   5.115   9.129 -0.0821  0.0579 -0.0750
  615ERGO    C1 6929  13.416   5.299   8.797 -0.2878 -0.0214 -0.0925
  615ERGO    C2 6930  13.459   5.490   8.520  0.1169  0.0246  0.0186
  616ERGO   ROH 6931   4.334   2.128   6.241 -0.0273  0.1741  0.1884
  616ERGO    R1 6932   4.397   2.047   6.504  0.0362  0.1859  0.1781
  616ERGO    R2 6933   4.337   2.201   6.725 -0.1673  0.0716  0.2112
  616ERGO    R3 6934   4.213   1.974   6.810  0.0801 -0.0929  0.1390
  616ERGO    R4 6935   4.316   2.101   7.055 -0.3368  0.1063  0.2107
  616ERGO    R5 6936   4.352   1.895   6.989  0.0246  0.1443  0.2861
  616ERGO    C1 6937   4.187   1.829   7.327 -0.2032 -0.0280  0.1427
  616ERGO    C2 6938   4.350   1.697   7.553 -0.1109  0.2885 -0.1620
  617ERGO   ROH 6939  17.697   5.917  10.295  0.1238 -0.1645  0.0241
  617ERGO    R1 6940  17.699   5.965  10.016  0.1704  0.0384  0.0567
  617ERGO    R2 6941  17.932   6.008   9.873  0.2169 -0.0640  0.0914
  617ERGO    R3 6942  17.838   5.804   9.721  0.0336  0.1253 -0.0549
  617ERGO    R4 6943  18.078   5.898   9.580  0.3136 -0.2151  0.1954
  617ERGO    R5 6944  17.878   5.875   9.496  0.3545  0.1255  0.0021
  617ERGO    C1 6945  18.075   5.642   9.266  0.1977 -0.1253  0.1186
  617ERGO    C2 6946  18.143   5.548   9.082  0.2368  0.1879 -0.3106
  618ERGO   ROH 6947   3.992   2.155   9.892  0.5189 -0.0620  0.0081
  618ERGO    R1 6948   4.141   2.218   9.660  0.2929  0.1351 -0.0874
  618ERGO    R2 6949   4.040   2.185   9.404  0.1562  0.0514 -0.0204
  618ERGO    R3 6950   4.109   2.447   9.379 -0.1549  0.1353 -0.0441
  618ERGO    R4 6951   4.056   2.357   9.105  0.1524 -0.0200 -0.0624
  618ERGO    R5 6952   4.236   2.455   9.176 -0.0168  0.2322  0.0425
  618ERGO    C1 6953   4.129   2.703   8.906 -0.1418  0.0172 -0.1092
  618ERGO    C2 6954   3.896   2.767   8.612 -0.0757 -0.0728 -0.0541
  619ERGO   ROH 6955  14.788   8.948  10.496  0.2171  0.0198  0.0278
  619ERGO    R1 6956  14.951   8.974  10.267  0.1395  0.1666 -0.0122
  619ERGO    R2 6957  14.912   8.823  10.039  0.2789  0.0578  0.0328
  619ERGO    R3 6958  14.904   9.066   9.918 -0.0506  0.0225 -0.0262
  619ERGO    R4 6959  14.862   8.874   9.700  0.3449 -0.0981 -0.0011
  619ERGO    R5 6960  15.013   9.031   9.707  0.0978  0.1426  0.0296
  619ERGO    C1 6961  14.826   9.132   9.390  0.0740 -0.2220 -0.0761
  619ERGO    C2 6962  14.811   9.019   9.066 -0.1964  0.0914 -0.0395
  620ERGO   ROH 6963   3.742   5.239  10.174 -0.1483 -0.1590 -0.0689
  620ERGO    R1 6964   3.768   5.134   9.913  0.1025 -0.0728 -0.0814
  620ERGO    R2 6965   3.591   5.197   9.709  0.0531 -0.3286 -0.1197
  620ERGO    R3 6966   3.818   5.269   9.578 -0.0217  0.0737 -0.0428
  620ERGO    R4 6967   3.608   5.286   9.376  0.0033 -0.2914 -0.1122
  620ERGO    R5 6968   3.794   5.174   9.360  0.2123  0.0301 -0.0548
  620ERGO    C1 6969   3.830   5.405   9.059 -0.0960  0.1080 -0.0358
  620ERGO    C2 6970   3.842   5.574   8.817 -0.4861  0.0325 -0.1617
  621ERGO   ROH 6971   4.435  16.670   6.330  0.1725 -0.0237  0.0547
  621ERGO    R1 6972   4.360  16.654   6.603  0.1137 -0.0225  0.0392
  621ERGO    R2 6973   4.544  16.637   6.807  0.0729  0.0683  0.0869
  621ERGO    R3 6974   4.410  16.852   6.904 -0.0310  0.0294  0.0296
  621ERGO    R4 6975   4.529  16.726   7.140 -0.0011  0.1296  0.0668
  621ERGO    R5 6976   4.319  16.777   7.112 -0.0195  0.0324  0.0347
  621ERGO    C1 6977   4.394  16.980   7.425 -0.1417  0.1291  0.0014
  621ERGO    C2 6978   4.427  17.198   7.717  0.1486 -0.0671 -0.1411
  622ERGO   ROH 6979  11.192   7.315   6.887 -0.2931  0.2877  0.1329
  622ERGO    R1 6980  11.208   7.326   7.169 -0.1720  0.1706  0.1322
  622ERGO    R2 6981  11.050   7.169   7.333 -0.1203  0.1203  0.1363
  622ERGO    R3 6982  11.289   7.096   7.439 -0.0820  0.0502  0.0033
  622ERGO    R4 6983  11.103   7.093   7.666  0.0909  0.3196  0.1508
  622ERGO    R5 6984  11.293   7.200   7.655  0.1482  0.1981 -0.0694
  622ERGO    C1 6985  11.358   6.980   7.960  0.2498  0.3699  0.0345
  622ERGO    C2 6986  11.291   6.928   8.409  0.2170 -0.0685 -0.1437
  623ERGO   ROH 6987   1.587  17.667   9.466 -0.0608  0.2257 -0.0169
  623ERGO    R1 6988   1.599  17.572   9.200 -0.1898  0.4107 -0.0902
  623ERGO    R2 6989   1.469  17.342   9.118  0.1351  0.2171 -0.0746
  623ERGO    R3 6990   1.361  17.508   8.931 -0.3895  0.1420  0.1436
  623ERGO    R4 6991   1.361  17.243   8.805  0.3699  0.2645 -0.1723
  623ERGO    R5 6992   1.447  17.426   8.723 -0.1727  0.6334  0.0239
  623ERGO    C1 6993   1.198  17.340   8.447  0.0142  0.2214 -0.0246
  623ERGO    C2 6994   0.973  17.407   8.141  0.0407 -0.3953  0.0754
  624ERGO   ROH 6995  14.909   4.224   6.732  0.1387  0.0510 -0.1735
  624ERGO    R1 6996  14.980   4.057   6.950  0.0022  0.0614 -0.1202
  624ERGO    R2 6997  15.244   3.999   7.013 -0.0426 -0.0126 -0.0103
  624ERGO    R3 6998  15.171   4.092   7.258 -0.1049  0.0454 -0.0506
  624ERGO    R4 6999  15.450   4.011   7.290 -0.1838 -0.1949  0.1062
  624ERGO    R5 7000  15.282   3.948   7.412 -0.3124 -0.0561  0.0114
  624ERGO    C1 7001  15.502   4.106   7.680 -0.3245 -0.2465  0.1363
  624ERGO    C2 7002  15.672   4.111   7.987  0.2213 -0.2881  0.0848
  625ERGO   ROH 7003  14.933   7.253   7.221 -0.0128  0.0835 -0.0639
  625ERGO    R1 7004  14.835   7.116   7.449  0.1783 -0.0123 -0.0381
  625ERGO    R2 7005  15.000   7.026   7.651  0.3015  0.3229  0.0117
  625ERGO    R3 7006  14.832   7.170   7.809  0.0351  0.0940 -0.0527
  625ERGO    R4 7007  14.966   6.984   7.993  0.1801  0.2247 -0.0114
  625ERGO    R5 7008  14.751   7.012   7.969  0.1490 -0.0396 -0.1194
  625ERGO    C1 7009  14.788   7.095   8.340 -0.1406 -0.0474 -0.0854
  625ERGO    C2 7010  14.946   7.361   8.590  0.0603  0.2482 -0.0366
  626ERGO   ROH 7011   8.671   2.063   6.426 -0.1178  0.1966  0.0220
  626ERGO    R1 7012   8.673   2.074   6.709 -0.1709  0.1901  0.0251
  626ERGO    R2 7013   8.441   2.085   6.860 -0.2121 -0.0357 -0.0029
  626ERGO    R3 7014   8.550   1.868   6.983 -0.0194  0.0607 -0.0053
  626ERGO    R4 7015   8.336   1.955   7.162  0.0553 -0.0041  0.1038
  626ERGO    R5 7016   8.544   1.923   7.216  0.1027  0.1230 -0.0209
  626ERGO    C1 7017   8.377   1.677   7.454  0.3919  0.1047  0.1637
  626ERGO    C2 7018   8.446   1.500   7.722 -0.0527 -0.1874 -0.0536
  627ERGO   ROH 7019  12.677  11.278  10.614  0.0309  0.1771 -0.1849
  627ERGO    R1 7020  12.742  11.322  10.342  0.1953  0.0002 -0.1760
  627ERGO    R2 7021  12.884  11.139  10.192 -0.1801 -0.3488 -0.1229
  627ERGO    R3 7022  12.672  11.161  10.024 -0.1041  0.1166 -0.1719
  627ERGO    R4 7023  12.905  11.135   9.847 -0.1170 -0.4995 -0.1183
  627ERGO    R5 7024  12.754  11.293   9.841  0.2567 -0.1282 -0.1962
  627ERGO    C1 7025  12.717  11.153   9.488 -0.0090 -0.1503 -0.1618
  627ERGO    C2 7026  12.765  10.850   9.345 -0.1210 -0.0706 -0.0410
  628ERGO   ROH 7027  11.079   3.711  10.017 -0.2669  0.1642 -0.0833
  628ERGO    R1 7028  10.932   3.636   9.787 -0.2929  0.3353 -0.1248
  628ERGO    R2 7029  10.822   3.821   9.614  0.0549  0.4704 -0.2154
  628ERGO    R3 7030  10.962   3.681   9.427 -0.0758  0.2107 -0.1228
  628ERGO    R4 7031  10.775   3.846   9.273  0.0958  0.2885 -0.2351
  628ERGO    R5 7032  10.800   3.630   9.258 -0.1158  0.2566 -0.0935
  628ERGO    C1 7033  10.878   3.730   8.898 -0.0030 -0.0613 -0.1597
  628ERGO    C2 7034  10.897   3.973   8.581 -0.0690 -0.1869  0.2111
  629ERGO   ROH 7035   4.619   8.970   6.937 -0.0743  0.1467 -0.0623
  629ERGO    R1 7036   4.767   8.866   7.155 -0.0556  0.1123 -0.0914
  629ERGO    R2 7037   4.919   9.026   7.321 -0.0546  0.0877 -0.0694
  629ERGO    R3 7038   4.771   8.908   7.516 -0.0360  0.0416 -0.0830
  629ERGO    R4 7039   5.013   9.001   7.653 -0.0551  0.0771 -0.0702
  629ERGO    R5 7040   4.932   8.799   7.656 -0.0164  0.0603 -0.0899
  629ERGO    C1 7041   4.928   8.876   8.029 -0.0378  0.0274 -0.0834
  629ERGO    C2 7042   5.083   8.689   8.228 -0.1416 -0.1838 -0.2498
  630ERGO   ROH 7043   9.778   4.612   9.676 -0.2812 -0.2407 -0.1516
  630ERGO    R1 7044   9.703   4.572   9.406 -0.0821 -0.0995 -0.2274
  630ERGO    R2 7045   9.654   4.781   9.234  0.0640 -0.0173 -0.1507
  630ERGO    R3 7046   9.839   4.655   9.079  0.1640  0.0525 -0.0937
  630ERGO    R4 7047   9.621   4.725   8.894  0.1279 -0.1071 -0.1446
  630ERGO    R5 7048   9.708   4.527   8.924  0.2444 -0.0619 -0.0831
  630ERGO    C1 7049   9.775   4.573   8.551  0.2590 -0.0939 -0.0875
  630ERGO    C2 7050   9.640   4.463   8.264 -0.2004  0.4161 -0.1200
  631ERGO   ROH 7051  16.098   7.910   7.208 -0.0331  0.0107  0.1547
  631ERGO    R1 7052  16.185   7.849   7.471  0.1547 -0.1322  0.0619
  631ERGO    R2 7053  16.424   7.721   7.522  0.3572  0.1421 -0.1617
  631ERGO    R3 7054  16.467   7.936   7.683  0.1221  0.0489  0.0326
  631ERGO    R4 7055  16.613   7.716   7.811  0.3668  0.0889 -0.1690
  631ERGO    R5 7056  16.464   7.846   7.905  0.2233 -0.1566 -0.0473
  631ERGO    C1 7057  16.764   7.915   8.131  0.1515 -0.0298  0.0092
  631ERGO    C2 7058  17.143   7.721   8.126  0.0281  0.0408 -0.2303
  632ERGO   ROH 7059   9.317  13.177  10.300  0.1160  0.0190  0.1430
  632ERGO    R1 7060   9.188  13.216  10.051 -0.0644 -0.0545  0.2223
  632ERGO    R2 7061   9.328  13.263   9.817 -0.2411  0.2922  0.1771
  632ERGO    R3 7062   9.183  13.051   9.727  0.0532  0.1028  0.1395
  632ERGO    R4 7063   9.238  13.212   9.487 -0.3463  0.3362  0.1990
  632ERGO    R5 7064   9.043  13.144   9.556 -0.1994 -0.0270  0.2736
  632ERGO    C1 7065   9.050  12.984   9.210 -0.1314  0.1839  0.1766
  632ERGO    C2 7066   8.963  12.921   8.920 -0.3295 -0.0739  0.1193
  633ERGO   ROH 7067  11.923   5.076  10.012 -0.1605  0.1003 -0.0717
  633ERGO    R1 7068  12.025   5.217   9.789 -0.1431  0.1049 -0.0625
  633ERGO    R2 7069  12.228   5.117   9.629 -0.0460  0.1583  0.0171
  633ERGO    R3 7070  12.049   5.163   9.430 -0.0036  0.0509 -0.0443
  633ERGO    R4 7071  12.311   5.176   9.299  0.0229  0.1069  0.0264
  633ERGO    R5 7072  12.155   5.328   9.292 -0.0230  0.0504 -0.0545
  633ERGO    C1 7073  12.192   5.253   8.920  0.1029 -0.0238 -0.0259
  633ERGO    C2 7074  12.480   5.230   8.678 -0.2786 -0.5166 -0.0804
  634ERGO   ROH 7075   3.708   5.934  10.312  0.2841 -0.0310 -0.0382
  634ERGO    R1 7076   3.638   6.123  10.113  0.1313 -0.0458  0.0009
  634ERGO    R2 7077   3.816   6.312  10.018  0.0354 -0.0042 -0.0949
  634ERGO    R3 7078   3.749   6.207   9.777 -0.0721 -0.0167 -0.0605
  634ERGO    R4 7079   3.783   6.493   9.726  0.1339 -0.0522 -0.1366
  634ERGO    R5 7080   3.609   6.372   9.676  0.0371  0.0631 -0.0847
  634ERGO    C1 7081   3.701   6.500   9.329  0.0903 -0.0919 -0.1287
  634ERGO    C2 7082   3.723   6.564   8.978 -0.2028 -0.1138 -0.4627
  635ERGO   ROH 7083   4.229  15.370   6.089 -0.0484 -0.0727 -0.1436
  635ERGO    R1 7084   4.270  15.421   6.365 -0.0131 -0.1737 -0.1297
  635ERGO    R2 7085   4.209  15.664   6.483  0.1748 -0.1520 -0.0698
  635ERGO    R3 7086   4.064  15.508   6.651  0.0481 -0.0823 -0.1135
  635ERGO    R4 7087   4.184  15.711   6.824  0.1793 -0.2065 -0.0618
  635ERGO    R5 7088   4.196  15.495   6.850  0.0215 -0.2199 -0.1050
  635ERGO    C1 7089   4.032  15.592   7.181  0.0630 -0.1729 -0.0982
  635ERGO    C2 7090   3.961  15.707   7.442  0.2110 -0.0876 -0.2183
  636ERGO   ROH 7091   6.066   8.159  10.278 -0.1845  0.0183  0.0908
  636ERGO    R1 7092   6.092   8.281  10.024 -0.1613  0.0852  0.1246
  636ERGO    R2 7093   6.099   8.135   9.789  0.1316  0.1250  0.1018
  636ERGO    R3 7094   5.894   8.300   9.719 -0.0041 -0.0781  0.0110
  636ERGO    R4 7095   6.001   8.202   9.465 -0.0376 -0.2569  0.0693
  636ERGO    R5 7096   5.972   8.410   9.521 -0.1536 -0.2200 -0.1270
  636ERGO    C1 7097   5.752   8.396   9.210 -0.2636 -0.6701 -0.0348
  636ERGO    C2 7098   5.558   8.240   8.980 -0.1317  0.0098  0.1665
  637ERGO   ROH 7099   1.399   4.166   6.458  0.0878 -0.0347  0.1236
  637ERGO    R1 7100   1.476   4.172   6.730  0.1318 -0.1625  0.1146
  637ERGO    R2 7101   1.328   4.303   6.923  0.3231  0.0066  0.1514
  637ERGO    R3 7102   1.334   4.061   7.047  0.0299 -0.0178  0.1188
  637ERGO    R4 7103   1.378   4.256   7.262  0.0076 -0.1003  0.1869
  637ERGO    R5 7104   1.504   4.085   7.214 -0.0916 -0.1869  0.2639
  637ERGO    C1 7105   1.414   4.001   7.575 -0.4514 -0.1853  0.1769
  637ERGO    C2 7106   1.601   3.872   7.879 -0.1767 -0.3156 -0.0663
  638ERGO   ROH 7107  13.139  13.229  10.451  0.0134  0.0400 -0.2834
  638ERGO    R1 7108  13.051  13.039  10.260  0.0470 -0.0196 -0.2405
  638ERGO    R2 7109  13.036  13.095   9.989  0.0262 -0.0797 -0.2560
  638ERGO    R3 7110  13.190  12.873   9.968  0.0746 -0.0501 -0.2083
  638ERGO    R4 7111  13.047  12.888   9.714  0.1817 -0.0685 -0.2585
  638ERGO    R5 7112  13.055  12.717   9.848  0.1587 -0.0701 -0.2694
  638ERGO    C1 7113  13.200  12.558   9.533  0.3177 -0.0343 -0.2152
  638ERGO    C2 7114  13.261  12.610   9.226  0.0217  0.1471 -0.2405
  639ERGO   ROH 7115   2.619  17.654   9.417 -0.0874 -0.0632  0.0865
  639ERGO    R1 7116   2.661  17.515   9.174 -0.1766 -0.1891  0.1427
  639ERGO    R2 7117   2.476  17.339   9.070 -0.4668  0.1776  0.0220
  639ERGO    R3 7118   2.499  17.495   8.849  0.0422  0.1049  0.0103
  639ERGO    R4 7119   2.404  17.237   8.747 -0.3895  0.2635 -0.0233
  639ERGO    R5 7120   2.580  17.347   8.679 -0.0987 -0.0916  0.1078
  639ERGO    C1 7121   2.384  17.325   8.352  0.1334  0.2454 -0.0606
  639ERGO    C2 7122   2.256  17.200   8.073  0.2436 -0.0226 -0.2462
  640ERGO   ROH 7123   5.068  13.537   9.829  0.0407  0.0724  0.0918
  640ERGO    R1 7124   5.073  13.562   9.547 -0.0074  0.0679  0.0900
  640ERGO    R2 7125   5.309  13.573   9.404 -0.0296  0.1360  0.0538
  640ERGO    R3 7126   5.198  13.366   9.267  0.0120  0.0989  0.0780
  640ERGO    R4 7127   5.402  13.473   9.086 -0.0916  0.1877  0.0196
  640ERGO    R5 7128   5.191  13.441   9.040 -0.0906  0.1052  0.0847
  640ERGO    C1 7129   5.352  13.221   8.772 -0.0885  0.1831  0.0224
  640ERGO    C2 7130   5.712  13.114   8.489 -0.0261 -0.0562 -0.2482
  641ERGO   ROH 7131  13.651  13.464  10.452  0.0768 -0.2488  0.0163
  641ERGO    R1 7132  13.644  13.359  10.189  0.0632 -0.2346  0.0101
  641ERGO    R2 7133  13.408  13.317  10.051  0.0524 -0.2254  0.0164
  641ERGO    R3 7134  13.529  13.471   9.862  0.0477 -0.2130  0.0247
  641ERGO    R4 7135  13.413  13.246   9.713  0.0769 -0.2081  0.0135
  641ERGO    R5 7136  13.620  13.313   9.707  0.0662 -0.1941  0.0233
  641ERGO    C1 7137  13.528  13.349   9.339  0.0866 -0.1863  0.0197
  641ERGO    C2 7138  13.407  13.176   9.068  0.0729 -0.1014  0.0292
  642ERGO   ROH 7139   2.761   3.766   9.979  0.2357 -0.0904 -0.0407
  642ERGO    R1 7140   2.833   3.820   9.710  0.1780  0.0248 -0.0341
  642ERGO    R2 7141   2.649   3.821   9.504  0.1344  0.1059  0.0034
  642ERGO    R3 7142   2.750   4.069   9.459  0.1169  0.1285  0.0882
  642ERGO    R4 7143   2.708   3.956   9.192  0.2247  0.1778  0.0513
  642ERGO    R5 7144   2.893   4.042   9.269  0.1862  0.1869  0.1323
  642ERGO    C1 7145   2.836   4.269   8.967  0.2609  0.2407  0.1587
  642ERGO    C2 7146   2.933   4.414   8.565  0.0031  0.3798 -0.1105
  643ERGO   ROH 7147   4.369  17.129   9.705 -0.2039 -0.0729 -0.0185
  643ERGO    R1 7148   4.309  17.271   9.468 -0.0498 -0.1156 -0.0840
  643ERGO    R2 7149   4.472  17.469   9.367  0.0270 -0.1500 -0.0255
  643ERGO    R3 7150   4.463  17.318   9.141  0.1502 -0.1932 -0.0024
  643ERGO    R4 7151   4.638  17.542   9.072  0.1492 -0.1786  0.0352
  643ERGO    R5 7152   4.462  17.477   8.962  0.2067 -0.2249 -0.0326
  643ERGO    C1 7153   4.726  17.442   8.689  0.3361 -0.2359  0.0922
  643ERGO    C2 7154   4.879  17.639   8.566 -0.1657 -0.1580  0.2125
  644ERGO   ROH 7155  14.241  17.324  10.063  0.0982 -0.1219 -0.0267
  644ERGO    R1 7156  14.263  17.482   9.829 -0.2330 -0.0020  0.0170
  644ERGO    R2 7157  14.440  17.421   9.625 -0.0078  0.4874  0.0518
  644ERGO    R3 7158  14.215  17.433   9.472 -0.0082 -0.0470 -0.0083
  644ERGO    R4 7159  14.430  17.523   9.295 -0.1298  0.1624 -0.0497
  644ERGO    R5 7160  14.245  17.629   9.338 -0.3261 -0.1158 -0.1880
  644ERGO    C1 7161  14.214  17.594   8.959 -0.2012 -0.5288 -0.1653
  644ERGO    C2 7162  14.337  17.802   8.745 -0.2572  0.0569 -0.1398
  645ERGO   ROH 7163  14.138  14.863  10.210  0.2356  0.1547  0.0282
  645ERGO    R1 7164  14.218  14.868   9.939 -0.0263  0.0885 -0.0530
  645ERGO    R2 7165  14.038  14.886   9.731 -0.2209  0.1662  0.1206
  645ERGO    R3 7166  14.191  15.099   9.659 -0.1765  0.0784 -0.0483
  645ERGO    R4 7167  14.074  15.003   9.408 -0.1227 -0.1615  0.0098
  645ERGO    R5 7168  14.286  15.035   9.448 -0.1275 -0.1461  0.0368
  645ERGO    C1 7169  14.239  15.270   9.152 -0.0241 -0.4347 -0.2134
  645ERGO    C2 7170  14.242  15.406   8.800  0.0303 -0.0457  0.1769
  646ERGO   ROH 7171   6.480  13.293   6.998  0.2468  0.2779 -0.1145
  646ERGO    R1 7172   6.577  13.238   7.258  0.1267  0.1476 -0.0962
  646ERGO    R2 7173   6.703  13.429   7.414  0.0889  0.0591  0.0424
  646ERGO    R3 7174   6.513  13.360   7.595  0.0012  0.0071 -0.0673
  646ERGO    R4 7175   6.695  13.537   7.742 -0.0928  0.0109  0.0550
  646ERGO    R5 7176   6.633  13.337   7.801 -0.0998 -0.0086 -0.0072
  646ERGO    C1 7177   6.512  13.535   8.103 -0.2809 -0.0660 -0.0407
  646ERGO    C2 7178   6.536  13.726   8.320  0.2114 -0.1878  0.0216
  647ERGO   ROH 7179  17.559  12.115   9.871  0.1402 -0.1419  0.0583
  647ERGO    R1 7180  17.558  11.928   9.658  0.1551 -0.1477  0.0632
  647ERGO    R2 7181  17.493  11.998   9.399 -0.0354 -0.1986  0.0960
  647ERGO    R3 7182  17.734  11.886   9.342  0.0133 -0.0312 -0.0323
  647ERGO    R4 7183  17.595  11.900   9.084 -0.2055 -0.2874  0.0673
  647ERGO    R5 7184  17.685  11.723   9.174  0.0124 -0.1652  0.0961
  647ERGO    C1 7185  17.881  11.738   8.847 -0.2589 -0.1821 -0.0698
  647ERGO    C2 7186  18.029  11.671   8.610 -0.1508 -0.2211  0.2047
  648ERGO   ROH 7187  13.938   2.417   9.524 -0.1749 -0.0788  0.0821
  648ERGO    R1 7188  13.883   2.313   9.267 -0.0289 -0.1269  0.0703
  648ERGO    R2 7189  13.781   2.469   9.063 -0.2148 -0.2393  0.0830
  648ERGO    R3 7190  13.997   2.376   8.927 -0.0889  0.0466  0.0792
  648ERGO    R4 7191  13.823   2.493   8.721 -0.2721 -0.1884  0.0790
  648ERGO    R5 7192  13.906   2.291   8.722  0.0067 -0.0869  0.0845
  648ERGO    C1 7193  14.051   2.420   8.394 -0.1873  0.1096  0.0730
  648ERGO    C2 7194  14.325   2.600   8.168 -0.1225  0.3030 -0.1260
  649ERGO   ROH 7195  13.871  10.941   7.260 -0.0906 -0.0119  0.1729
  649ERGO    R1 7196  13.964  11.042   7.508 -0.2245  0.0038  0.2186
  649ERGO    R2 7197  13.814  11.213   7.665 -0.3321 -0.0217  0.1528
  649ERGO    R3 7198  13.861  11.025   7.856 -0.3876 -0.0191  0.1681
  649ERGO    R4 7199  13.783  11.264   8.006 -0.3727 -0.0142  0.1478
  649ERGO    R5 7200  13.963  11.146   8.035 -0.3993 -0.0348  0.1792
  649ERGO    C1 7201  13.808  11.118   8.383 -0.4484 -0.0073  0.1593
  649ERGO    C2 7202  13.668  11.246   8.587  0.0641 -0.3350 -0.2159
  650ERGO   ROH 7203   9.584  11.551  10.597 -0.0044  0.0296 -0.1320
  650ERGO    R1 7204   9.579  11.688  10.349 -0.1025  0.0236 -0.1328
  650ERGO    R2 7205   9.647  11.565  10.110 -0.0199  0.0689 -0.1293
  650ERGO    R3 7206   9.402  11.654  10.033 -0.0832 -0.1020 -0.1323
  650ERGO    R4 7207   9.547  11.609   9.782 -0.0800 -0.1095 -0.1361
  650ERGO    R5 7208   9.446  11.792   9.842 -0.1823 -0.1428 -0.1891
  650ERGO    C1 7209   9.259  11.717   9.518 -0.1744 -0.3738 -0.1428
  650ERGO    C2 7210   9.127  11.792   9.176  0.1736 -0.0791  0.0909
  651ERGO   ROH 7211   7.576   7.149  10.134  0.0124 -0.3180  0.1995
  651ERGO    R1 7212   7.559   7.259   9.874 -0.0962 -0.2896  0.2188
  651ERGO    R2 7213   7.782   7.328   9.727 -0.1652  0.0107  0.2547
  651ERGO    R3 7214   7.669   7.166   9.540  0.0512 -0.0929  0.2098
  651ERGO    R4 7215   7.838   7.350   9.386 -0.2248  0.2159  0.2562
  651ERGO    R5 7216   7.626   7.310   9.354 -0.1777 -0.0835  0.2644
  651ERGO    C1 7217   7.764   7.210   9.013 -0.0563  0.2381  0.2151
  651ERGO    C2 7218   7.639   7.122   8.666 -0.2227 -0.2267 -0.1048
  652ERGO   ROH 7219  13.163   3.567   9.627 -0.2908 -0.0248 -0.1021
  652ERGO    R1 7220  13.022   3.603   9.385 -0.2223 -0.0064 -0.1404
  652ERGO    R2 7221  12.930   3.850   9.302 -0.2115  0.0003 -0.1434
  652ERGO    R3 7222  13.070   3.791   9.077 -0.1402  0.0287 -0.1057
  652ERGO    R4 7223  12.856   3.971   8.986 -0.1604 -0.0296 -0.1659
  652ERGO    R5 7224  12.903   3.774   8.906 -0.0904 -0.0186 -0.1474
  652ERGO    C1 7225  12.945   3.986   8.591 -0.0637 -0.0204 -0.1436
  652ERGO    C2 7226  13.163   4.165   8.303  0.4439  0.1055 -0.0816
  653ERGO   ROH 7227   7.217  10.797  10.402 -0.2927 -0.0233  0.0555
  653ERGO    R1 7228   7.094  10.741  10.153 -0.1964  0.0498 -0.0094
  653ERGO    R2 7229   7.216  10.799   9.912 -0.0087 -0.0722  0.0506
  653ERGO    R3 7230   7.170  10.536   9.862 -0.1933 -0.0420  0.0564
  653ERGO    R4 7231   7.241  10.649   9.601  0.0411 -0.1297  0.0827
  653ERGO    R5 7232   7.062  10.533   9.648 -0.0779  0.0192 -0.0018
  653ERGO    C1 7233   7.212  10.314   9.374 -0.1032 -0.1349  0.1069
  653ERGO    C2 7234   7.439  10.169   9.180 -0.2421  0.0307  0.1055
  654ERGO   ROH 7235   0.850   4.596   9.889  0.0350 -0.2799  0.0076
  654ERGO    R1 7236   0.807   4.645   9.614 -0.1160 -0.4076  0.0073
  654ERGO    R2 7237   0.981   4.794   9.460 -0.5219  0.0769 -0.0080
  654ERGO    R3 7238   0.981   4.573   9.302  0.0798  0.0511  0.0030
  654ERGO    R4 7239   1.013   4.795   9.115 -0.3978  0.1286  0.0030
  654ERGO    R5 7240   0.862   4.639   9.105 -0.0188 -0.2518 -0.0443
  654ERGO    C1 7241   1.031   4.588   8.767  0.2394  0.1344  0.0197
  654ERGO    C2 7242   1.153   4.636   8.454 -0.0663 -0.2925 -0.2959
  655ERGO   ROH 7243  12.353   8.936  10.371 -0.0355  0.1551  0.0126
  655ERGO    R1 7244  12.323   9.053  10.115 -0.0734  0.1959  0.0359
  655ERGO    R2 7245  12.355   8.909   9.881  0.0366  0.2671  0.0085
  655ERGO    R3 7246  12.107   9.005   9.826 -0.0132  0.1369 -0.0005
  655ERGO    R4 7247  12.222   8.939   9.564  0.0031  0.1203  0.0074
  655ERGO    R5 7248  12.136   9.131   9.624 -0.0833  0.0981 -0.0367
  655ERGO    C1 7249  11.911   9.047   9.328 -0.0630 -0.0874 -0.0016
  655ERGO    C2 7250  11.887   8.957   9.001 -0.0448 -0.0465 -0.0759
  656ERGO   ROH 7251   0.931   5.973   6.647  0.2074  0.0147  0.1018
  656ERGO    R1 7252   0.765   6.084   6.848  0.0166 -0.0988  0.0097
  656ERGO    R2 7253   0.608   5.928   7.013  0.0677 -0.2124 -0.0436
  656ERGO    R3 7254   0.738   6.064   7.210 -0.1366 -0.0748 -0.0004
  656ERGO    R4 7255   0.600   5.845   7.349  0.0607 -0.2268 -0.0477
  656ERGO    R5 7256   0.588   6.058   7.396 -0.1842 -0.2420 -0.0449
  656ERGO    C1 7257   0.719   5.924   7.729 -0.1351 -0.1059 -0.0094
  656ERGO    C2 7258   0.852   5.788   8.059  0.0290  0.2845 -0.0679
  657ERGO   ROH 7259  17.580  16.388   9.796  0.0514 -0.1935 -0.1295
  657ERGO    R1 7260  17.564  16.355   9.515 -0.2411 -0.0268 -0.1376
  657ERGO    R2 7261  17.441  16.540   9.350  0.0213  0.3307  0.0474
  657ERGO    R3 7262  17.680  16.535   9.221 -0.0752 -0.1282 -0.1342
  657ERGO    R4 7263  17.490  16.626   9.019 -0.0459  0.3208  0.0352
  657ERGO    R5 7264  17.628  16.460   9.000 -0.3978  0.0357 -0.1176
  657ERGO    C1 7265  17.743  16.672   8.705 -0.1755 -0.1155 -0.1423
  657ERGO    C2 7266  17.788  16.979   8.457 -0.1048 -0.0385  0.4016
  658ERGO   ROH 7267   9.421   3.576   9.349 -0.0079 -0.1014 -0.0485
  658ERGO    R1 7268   9.532   3.627   9.094 -0.0551 -0.1579 -0.0799
  658ERGO    R2 7269   9.799   3.584   9.036 -0.0477 -0.0790 -0.0911
  658ERGO    R3 7270   9.697   3.433   8.834 -0.0101 -0.1946 -0.0252
  658ERGO    R4 7271   9.931   3.567   8.717 -0.1240 -0.0684 -0.1240
  658ERGO    R5 7272   9.728   3.568   8.638 -0.1514 -0.2184 -0.0674
  658ERGO    C1 7273   9.913   3.415   8.342 -0.1330 -0.1708 -0.0812
  658ERGO    C2 7274   9.914   3.359   7.980 -0.3001  0.3328  0.1820
  659ERGO   ROH 7275  16.317  17.133   6.614  0.2174 -0.4229  0.0378
  659ERGO    R1 7276  16.162  17.187   6.844  0.0875 -0.4070 -0.0525
  659ERGO    R2 7277  16.182  17.039   7.076  0.1611 -0.2185  0.0634
  659ERGO    R3 7278  16.225  17.282   7.190 -0.1181 -0.0892 -0.0969
  659ERGO    R4 7279  16.159  17.103   7.415  0.2254 -0.0608  0.0386
  659ERGO    R5 7280  16.062  17.293   7.366 -0.0594 -0.2147 -0.0309
  659ERGO    C1 7281  16.186  17.368   7.719  0.0008  0.1525 -0.1263
  659ERGO    C2 7282  16.114  17.374   8.044  0.1767 -0.3130 -0.2074
  660ERGO   ROH 7283  12.805   9.793   7.157  0.0227 -0.0471 -0.0773
  660ERGO    R1 7284  12.958   9.774   7.394 -0.0060 -0.0567 -0.0589
  660ERGO    R2 7285  12.910   9.933   7.615  0.0542  0.0311 -0.1040
  660ERGO    R3 7286  12.894   9.694   7.744 -0.0775  0.0724 -0.0427
  660ERGO    R4 7287  13.034   9.870   7.932  0.0294  0.0337 -0.0944
  660ERGO    R5 7288  13.102   9.676   7.861 -0.0863 -0.0208 -0.0468
  660ERGO    C1 7289  13.091   9.610   8.237 -0.1086  0.0740 -0.0312
  660ERGO    C2 7290  13.113   9.674   8.561 -0.0089  0.1477  0.2778
  661ERGO   ROH 7291   6.532   9.227  10.507  0.1270 -0.1544 -0.1563
  661ERGO    R1 7292   6.438   9.381  10.289 -0.0011 -0.1231 -0.0794
  661ERGO    R2 7293   6.576   9.598  10.189 -0.1063 -0.0552 -0.0705
  661ERGO    R3 7294   6.554   9.464   9.954 -0.1522  0.0070 -0.1019
  661ERGO    R4 7295   6.586   9.747   9.878 -0.1184  0.0319 -0.0295
  661ERGO    R5 7296   6.426   9.612   9.814 -0.1489  0.0678 -0.0471
  661ERGO    C1 7297   6.571   9.708   9.475 -0.1687  0.1410 -0.0350
  661ERGO    C2 7298   6.813   9.862   9.230  0.0018  0.1005  0.1564
  662ERGO   ROH 7299  10.052   8.499   7.039 -0.3162 -0.1078 -0.1021
  662ERGO    R1 7300  10.158   8.459   7.299  0.0712 -0.2210 -0.2722
  662ERGO    R2 7301   9.998   8.422   7.522  0.3851  0.1659  0.0262
  662ERGO    R3 7302  10.147   8.196   7.551  0.0118 -0.1192 -0.1663
  662ERGO    R4 7303  10.030   8.241   7.814  0.3313  0.0434 -0.0413
  662ERGO    R5 7304  10.241   8.214   7.770  0.2530 -0.3306 -0.2448
  662ERGO    C1 7305  10.189   7.924   8.012 -0.0505 -0.2956 -0.2613
  662ERGO    C2 7306  10.333   7.689   8.283  0.0165  0.2818  0.0920
  663ERGO   ROH 7307   9.745  16.550   7.180 -0.1817 -0.1067 -0.0225
  663ERGO    R1 7308   9.919  16.466   7.386 -0.0817 -0.1385 -0.1181
  663ERGO    R2 7309   9.953  16.609   7.620  0.0445 -0.1642 -0.1177
  663ERGO    R3 7310   9.888  16.372   7.736  0.0883 -0.1727 -0.1117
  663ERGO    R4 7311  10.084  16.493   7.918 -0.1846  0.0218  0.0583
  663ERGO    R5 7312  10.094  16.294   7.831  0.0469  0.0004  0.1298
  663ERGO    C1 7313  10.099  16.203   8.201 -0.2771  0.1221  0.1664
  663ERGO    C2 7314  10.010  16.172   8.596  0.0095  0.0711 -0.2155
  664ERGO   ROH 7315  11.441   1.394  10.129 -0.1866 -0.2611 -0.0723
  664ERGO    R1 7316  11.582   1.348   9.888 -0.0628 -0.1608 -0.0206
  664ERGO    R2 7317  11.501   1.160   9.703  0.0606 -0.1203 -0.1174
  664ERGO    R3 7318  11.511   1.371   9.532  0.1018 -0.0659 -0.0479
  664ERGO    R4 7319  11.435   1.143   9.364 -0.0642  0.0280 -0.1019
  664ERGO    R5 7320  11.602   1.280   9.330 -0.0110 -0.0392 -0.1112
  664ERGO    C1 7321  11.407   1.331   9.006 -0.0984  0.1655 -0.0276
  664ERGO    C2 7322  11.245   1.313   8.712 -0.0962  0.1736 -0.0805
  665ERGO   ROH 7323   4.259  14.264   9.359 -0.5120 -0.0204 -0.1044
  665ERGO    R1 7324   4.230  14.407   9.116 -0.2869  0.1300 -0.0451
  665ERGO    R2 7325   4.327  14.664   9.083  0.0182  0.0378  0.1005
  665ERGO    R3 7326   4.452  14.554   8.868 -0.0534 -0.0048  0.0802
  665ERGO    R4 7327   4.477  14.843   8.828  0.0570 -0.0121  0.0877
  665ERGO    R5 7328   4.396  14.699   8.686 -0.0194  0.0246  0.0926
  665ERGO    C1 7329   4.681  14.845   8.478  0.0123 -0.0813  0.0613
  665ERGO    C2 7330   4.817  15.035   8.166  0.1937 -0.1824 -0.0845
  666ERGO   ROH 7331  16.020   7.319   9.734 -0.0274  0.0272 -0.0990
  666ERGO    R1 7332  16.170   7.273   9.499 -0.0706 -0.0540 -0.1107
  666ERGO    R2 7333  16.068   7.137   9.281 -0.2082  0.1204 -0.1545
  666ERGO    R3 7334  16.145   7.361   9.147  0.0264  0.0857 -0.0842
  666ERGO    R4 7335  16.144   7.148   8.944 -0.1665  0.1370 -0.1449
  666ERGO    R5 7336  16.309   7.283   8.991 -0.0340 -0.0371 -0.0904
  666ERGO    C1 7337  16.260   7.365   8.622  0.0780  0.1141 -0.0733
  666ERGO    C2 7338  16.221   7.253   8.218  0.2974 -0.1285 -0.0441
  667ERGO   ROH 7339  10.922   8.482  10.405  0.0849  0.1277  0.0608
  667ERGO    R1 7340  10.906   8.656  10.182 -0.0683  0.0553  0.0130
  667ERGO    R2 7341  11.097   8.849  10.130 -0.2607  0.2481 -0.0110
  667ERGO    R3 7342  11.108   8.727   9.888 -0.0991  0.1903  0.0250
  667ERGO    R4 7343  11.196   9.001   9.835 -0.2662  0.2303 -0.0212
  667ERGO    R5 7344  11.037   8.894   9.732 -0.1592  0.0975 -0.0444
  667ERGO    C1 7345  11.264   8.973   9.436 -0.1177  0.1657  0.0066
  667ERGO    C2 7346  11.380   8.932   9.137 -0.0208 -0.2139  0.0076
  668ERGO   ROH 7347   2.447   9.600   7.008  0.0123  0.1443 -0.1220
  668ERGO    R1 7348   2.430   9.769   7.234 -0.0078  0.1701 -0.1454
  668ERGO    R2 7349   2.270   9.994   7.240 -0.1807  0.0362 -0.1095
  668ERGO    R3 7350   2.169   9.877   7.464  0.0217  0.0056 -0.0276
  668ERGO    R4 7351   2.145  10.166   7.512 -0.4979  0.0254 -0.2417
  668ERGO    R5 7352   2.242  10.020   7.643 -0.2274  0.2796 -0.1261
  668ERGO    C1 7353   1.977  10.157   7.881 -0.4925 -0.0097 -0.2419
  668ERGO    C2 7354   1.656  10.174   7.933 -0.1577  0.1289 -0.1516
  669ERGO   ROH 7355  11.503  17.265  10.124 -0.1328 -0.0813  0.0343
  669ERGO    R1 7356  11.391  17.221   9.867 -0.0471 -0.1573  0.0093
  669ERGO    R2 7357  11.503  17.324   9.637 -0.0161 -0.1563  0.0235
  669ERGO    R3 7358  11.497  17.064   9.556  0.0913 -0.1710  0.0631
  669ERGO    R4 7359  11.603  17.211   9.326 -0.0201 -0.1572  0.0226
  669ERGO    R5 7360  11.434  17.075   9.326  0.0446 -0.2365  0.0739
  669ERGO    C1 7361  11.657  16.902   9.069  0.0783 -0.1712  0.0593
  669ERGO    C2 7362  11.786  16.900   8.734 -0.1534  0.0275  0.0484
  670ERGO   ROH 7363   3.834  17.458   6.146 -0.1394 -0.1112  0.0650
  670ERGO    R1 7364   3.747  17.457   6.415 -0.0980 -0.0535  0.0792
  670ERGO    R2 7365   3.922  17.481   6.628 -0.0601 -0.0459  0.0503
  670ERGO    R3 7366   3.759  17.687   6.697 -0.0172 -0.0086  0.0389
  670ERGO    R4 7367   3.915  17.631   6.939 -0.0307 -0.0253  0.0404
  670ERGO    R5 7368   3.698  17.640   6.924 -0.0269  0.0189  0.0404
  670ERGO    C1 7369   3.757  17.912   7.186  0.0268  0.0221  0.0240
  670ERGO    C2 7370   3.751  18.141   7.531 -0.1523  0.0455 -0.1725
  671ERGO   ROH 7371   3.522  16.381   9.598  0.1111 -0.0693  0.1777
  671ERGO    R1 7372   3.613  16.489   9.353  0.0763 -0.1565  0.1260
  671ERGO    R2 7373   3.662  16.332   9.130 -0.1644 -0.2098  0.1076
  671ERGO    R3 7374   3.491  16.506   9.010 -0.0839 -0.0751  0.1866
  671ERGO    R4 7375   3.712  16.474   8.819 -0.1094 -0.1029  0.1649
  671ERGO    R5 7376   3.635  16.662   8.899 -0.0133 -0.0982  0.2460
  671ERGO    C1 7377   3.581  16.721   8.526 -0.0018  0.0858  0.2724
  671ERGO    C2 7378   3.622  16.805   8.208  0.1480  0.0417 -0.3543
  672PSPI    C1 7379  10.976   2.658   5.762  0.0363 -0.0852  0.0112
  672PSPI    C2 7380  10.646   2.858   5.658  0.0568  0.0556  0.2114
  672PSPI    C3 7381  10.703   2.485   5.526 -0.1480  0.0559  0.1177
  672PSPI   PO4 7382  10.935   2.657   6.079 -0.1235 -0.2512  0.1932
  672PSPI   GL1 7383  11.216   2.688   6.473  0.1747  0.1843  0.2456
  672PSPI   GL2 7384  11.479   2.737   6.577 -0.0255  0.0910  0.1736
  672PSPI   C1A 7385  11.014   2.691   6.840 -0.1361 -0.0560  0.1493
  672PSPI   C2A 7386  10.941   2.728   7.223 -0.3820 -0.1873 -0.0999
  672PSPI   C3A 7387  10.919   2.940   7.603 -0.0233 -0.1027  0.0426
  672PSPI   C4A 7388  10.948   3.141   8.082  0.1293  0.0259  0.2399
  672PSPI   C1B 7389  11.473   2.584   7.004 -0.0429  0.0761 -0.1081
  672PSPI   C2B 7390  11.435   2.692   7.371 -0.0534  0.1543  0.1555
  672PSPI   C3B 7391  11.181   2.586   7.820 -0.3311  0.0258  0.0425
  672PSPI   C4B 7392  11.346   2.789   8.226 -0.1050 -0.2339  0.2344
  673PSPI    C1 7393   3.153   2.862   5.612  0.2902  0.0147  0.2143
  673PSPI    C2 7394   3.421   2.965   5.333  0.0190 -0.0746 -0.0851
  673PSPI    C3 7395   3.066   2.816   5.224 -0.1425  0.0111  0.3072
  673PSPI   PO4 7396   3.217   2.959   5.819 -0.1535  0.2043 -0.0985
  673PSPI   GL1 7397   3.174   3.033   6.288  0.1320  0.0250  0.1184
  673PSPI   GL2 7398   2.998   2.779   6.260  0.0277 -0.1899  0.0391
  673PSPI   C1A 7399   3.163   2.886   6.705 -0.0204 -0.0072  0.3906
  673PSPI   C2A 7400   3.366   2.913   7.176  0.2297  0.0909 -0.0100
  673PSPI   C3A 7401   3.564   2.688   7.541 -0.1949  0.0000  0.0931
  673PSPI   C4A 7402   3.540   2.283   7.606  0.3499 -0.3687  0.0752
  673PSPI   C1B 7403   2.684   2.624   6.606 -0.1454  0.2563  0.0961
  673PSPI   C2B 7404   2.641   2.330   7.039  0.0688  0.2593  0.0126
  673PSPI   C3B 7405   2.784   2.053   7.411  0.0887  0.0351  0.0939
  673PSPI   C4B 7406   2.803   1.816   7.836  0.0572 -0.0893 -0.1994
  674PSPI    C1 7407  15.129  13.868   6.532  0.1008 -0.0571 -0.0570
  674PSPI    C2 7408  14.781  13.763   6.366  0.1232  0.1798 -0.2587
  674PSPI    C3 7409  15.104  13.533   6.315  0.0523  0.0818 -0.2680
  674PSPI   PO4 7410  14.979  13.974   6.801 -0.1080  0.1671  0.3348
  674PSPI   GL1 7411  15.039  14.192   7.183  0.1626 -0.2029  0.0258
  674PSPI   GL2 7412  14.688  14.048   7.241  0.0172 -0.3332 -0.3002
  674PSPI   C1A 7413  15.042  14.192   7.706  0.0729  0.3919 -0.1904
  674PSPI   C2A 7414  14.970  14.192   8.138  0.1337 -0.2106  0.1214
  674PSPI   C3A 7415  14.927  14.119   8.549  0.0653 -0.2645  0.0623
  674PSPI   C4A 7416  15.255  14.337   8.799  0.0548  0.1289 -0.1958
  674PSPI   C1B 7417  14.557  14.105   7.652 -0.0441  0.3164  0.3239
  674PSPI   C2B 7418  14.421  14.140   7.971 -0.3623 -0.2670 -0.4438
  674PSPI   C3B 7419  14.308  14.372   8.396 -0.2521 -0.2790  0.0927
  674PSPI   C4B 7420  14.117  14.386   8.758  0.0774  0.1058  0.2119
  675PSPI    C1 7421  13.861  12.647   6.565 -0.2082  0.2199 -0.0575
  675PSPI    C2 7422  13.707  12.302   6.434  0.0348  0.1099 -0.0585
  675PSPI    C3 7423  13.935  12.524   6.192  0.1357  0.1159  0.0410
  675PSPI   PO4 7424  13.798  12.743   6.819 -0.3810 -0.1276 -0.3662
  675PSPI   GL1 7425  13.594  12.799   7.269 -0.0645 -0.0022 -0.0880
  675PSPI   GL2 7426  13.583  12.488   7.443  0.1026 -0.0911  0.1679
  675PSPI   C1A 7427  13.695  12.933   7.703 -0.1115 -0.0447 -0.0869
  675PSPI   C2A 7428  13.830  12.795   8.142 -0.0547 -0.1631 -0.0035
  675PSPI   C3A 7429  13.928  12.678   8.562  0.2065  0.0827  0.1007
  675PSPI   C4A 7430  14.002  12.733   9.017  0.1237  0.2475 -0.1081
  675PSPI   C1B 7431  13.618  12.243   7.827  0.1737 -0.0518 -0.2310
  675PSPI   C2B 7432  13.536  12.386   8.179  0.0052  0.0042  0.1209
  675PSPI   C3B 7433  13.440  12.725   8.464 -0.2048  0.0368  0.1489
  675PSPI   C4B 7434  13.561  12.751   8.890 -0.4014  0.0567  0.1050
  676PSPI    C1 7435  17.423  13.254   5.888 -0.0318 -0.1661 -0.2239
  676PSPI    C2 7436  17.608  13.379   5.556  0.0334  0.0108 -0.1225
  676PSPI    C3 7437  17.387  13.634   5.770  0.0101 -0.0967 -0.0170
  676PSPI   PO4 7438  17.630  13.063   6.036  0.0230 -0.1196 -0.0416
  676PSPI   GL1 7439  17.452  12.919   6.572  0.2079 -0.3011 -0.2077
  676PSPI   GL2 7440  17.215  13.091   6.360  0.1564 -0.0598  0.4140
  676PSPI   C1A 7441  17.530  12.968   6.998 -0.0659 -0.0628  0.2301
  676PSPI   C2A 7442  17.560  12.851   7.417 -0.0814 -0.1995  0.1812
  676PSPI   C3A 7443  17.716  12.600   7.759  0.0914  0.1553  0.1434
  676PSPI   C4A 7444  17.740  12.425   8.236 -0.4181 -0.3390 -0.3459
  676PSPI   C1B 7445  17.228  13.358   6.757 -0.1668  0.1298  0.0094
  676PSPI   C2B 7446  17.244  13.344   7.168 -0.1264  0.3517 -0.2427
  676PSPI   C3B 7447  17.254  13.334   7.555 -0.2758 -0.0190 -0.1454
  676PSPI   C4B 7448  17.557  13.174   7.766 -0.1652  0.3281  0.1193
  677PSPI    C1 7449   7.943  15.098   6.511  0.1700 -0.3004 -0.0542
  677PSPI    C2 7450   8.279  15.188   6.314  0.0988 -0.2090 -0.1349
  677PSPI    C3 7451   7.964  15.044   6.116  0.0728 -0.2454 -0.0673
  677PSPI   PO4 7452   7.914  15.315   6.632  0.0222 -0.0359 -0.0733
  677PSPI   GL1 7453   7.959  15.522   6.897  0.0609 -0.1088 -0.6668
  677PSPI   GL2 7454   8.046  15.204   7.102  0.0343 -0.0110  0.0390
  677PSPI   C1A 7455   7.855  15.701   7.286 -0.1244  0.1567  0.1262
  677PSPI   C2A 7456   7.835  15.694   7.728  0.0047  0.1742  0.2336
  677PSPI   C3A 7457   7.622  15.483   8.122  0.0843  0.0653 -0.1100
  677PSPI   C4A 7458   7.390  15.357   8.522  0.0886  0.3552  0.1864
  677PSPI   C1B 7459   8.063  15.277   7.620  0.0149 -0.0582  0.0117
  677PSPI   C2B 7460   8.126  15.268   8.041 -0.1438  0.1138 -0.4498
  677PSPI   C3B 7461   8.266  15.298   8.455 -0.0058 -0.0364 -0.1902
  677PSPI   C4B 7462   8.447  15.247   8.813  0.0414 -0.1528 -0.0774
  678PSPI    C1 7463   8.926  14.281   6.739 -0.1964 -0.0550  0.1213
  678PSPI    C2 7464   9.266  14.206   6.541  0.0412 -0.0247  0.5067
  678PSPI    C3 7465   8.926  14.026   6.430  0.1718 -0.0301  0.0962
  678PSPI   PO4 7466   8.895  14.243   7.003  0.1824  0.1323 -0.0952
  678PSPI   GL1 7467   8.927  13.958   7.347  0.2259  0.0932  0.0963
  678PSPI   GL2 7468   9.074  13.592   7.338 -0.0359  0.0106 -0.0256
  678PSPI   C1A 7469   9.204  13.988   7.690  0.1630 -0.3470 -0.0260
  678PSPI   C2A 7470   9.265  14.031   8.092  0.1591 -0.0534  0.0886
  678PSPI   C3A 7471   9.094  14.117   8.436  0.2527 -0.1416 -0.1831
  678PSPI   C4A 7472   8.926  14.268   8.791 -0.1301  0.0266 -0.3765
  678PSPI   C1B 7473   8.994  13.579   7.764 -0.1450 -0.0116  0.0762
  678PSPI   C2B 7474   8.969  13.646   8.237  0.2014  0.2389 -0.0119
  678PSPI   C3B 7475   8.864  13.696   8.686  0.0797  0.2263 -0.1661
  678PSPI   C4B 7476   8.817  13.425   9.024  0.2777 -0.1235  0.1134
  679PSPI    C1 7477   3.690   0.077   5.693 -0.0609 -0.0660 -0.0437
  679PSPI    C2 7478   3.991   0.011   5.438 -0.0626 -0.2523  0.0008
  679PSPI    C3 7479   3.841  -0.291   5.652 -0.1534 -0.1233  0.1212
  679PSPI   PO4 7480   3.755   0.256   5.837 -0.1160  0.0977 -0.1412
  679PSPI   GL1 7481   3.956   0.220   6.259 -0.1263  0.0402  0.1382
  679PSPI   GL2 7482   3.786  -0.072   6.170  0.2609 -0.2454 -0.0637
  679PSPI   C1A 7483   3.834   0.257   6.679  0.0397  0.2779  0.1070
  679PSPI   C2A 7484   3.620   0.391   7.119  0.0395 -0.1153  0.1016
  679PSPI   C3A 7485   3.464   0.576   7.529 -0.0366 -0.0199 -0.0042
  679PSPI   C4A 7486   3.303   0.513   7.978  0.0760  0.1305 -0.1531
  679PSPI   C1B 7487   3.425  -0.000   6.500  0.1498 -0.0513 -0.0904
  679PSPI   C2B 7488   3.398   0.020   6.834 -0.0038  0.2482 -0.1036
  679PSPI   C3B 7489   3.297   0.075   7.360  0.0344  0.2464 -0.0183
  679PSPI   C4B 7490   3.210   0.094   7.771 -0.0450  0.3861  0.0480
  680PSPI    C1 7491  16.008  12.867   6.266 -0.0274  0.0487  0.0927
  680PSPI    C2 7492  15.682  13.098   6.297  0.0961  0.2389 -0.0039
  680PSPI    C3 7493  15.646  12.714   6.191 -0.0962  0.2589 -0.0145
  680PSPI   PO4 7494  16.165  13.067   6.415  0.2232  0.1710  0.1998
  680PSPI   GL1 7495  16.393  12.945   6.857 -0.0151 -0.2104 -0.0339
  680PSPI   GL2 7496  16.209  13.042   6.970 -0.0622 -0.0001 -0.2488
  680PSPI   C1A 7497  16.614  12.699   7.150 -0.0117  0.0029  0.3342
  680PSPI   C2A 7498  16.762  12.542   7.494 -0.3862  0.0982  0.1477
  680PSPI   C3A 7499  16.930  12.439   7.928  0.2341  0.1123 -0.1382
  680PSPI   C4A 7500  16.757  12.246   8.316  0.2109 -0.1731  0.0055
  680PSPI   C1B 7501  16.167  13.138   7.384 -0.3128  0.3989  0.0253
  680PSPI   C2B 7502  16.214  13.095   7.798 -0.0394  0.2383 -0.0675
  680PSPI   C3B 7503  16.110  13.095   8.262 -0.0696  0.4070  0.0131
  680PSPI   C4B 7504  16.040  13.008   8.610  0.1248  0.0319 -0.0957
  681PSPI    C1 7505   8.930   8.682   6.663  0.0614 -0.0477 -0.3194
  681PSPI    C2 7506   8.917   9.071   6.757 -0.1238 -0.1399  0.0583
  681PSPI    C3 7507   8.680   8.926   6.469 -0.0507  0.0259 -0.0867
  681PSPI   PO4 7508   8.982   8.552   6.894 -0.0652  0.1423 -0.1658
  681PSPI   GL1 7509   8.978   8.754   7.190  0.0753  0.0129  0.1869
  681PSPI   GL2 7510   8.869   8.977   7.295 -0.0556  0.0646  0.0868
  681PSPI   C1A 7511   9.220   8.785   7.582  0.1011  0.2341 -0.2070
  681PSPI   C2A 7512   9.385   8.767   8.067 -0.1533  0.0629  0.2825
  681PSPI   C3A 7513   9.367   8.572   8.408  0.2693 -0.1230  0.0261
  681PSPI   C4A 7514   9.030   8.503   8.752  0.2848 -0.1655  0.1062
  681PSPI   C1B 7515   9.144   9.261   7.481 -0.2339 -0.1256 -0.0760
  681PSPI   C2B 7516   9.130   9.379   7.930 -0.1859  0.0201  0.1611
  681PSPI   C3B 7517   9.256   9.246   8.349  0.0476 -0.1766  0.1406
  681PSPI   C4B 7518   9.264   9.011   8.765  0.2493  0.0436  0.0247
  682PSPI    C1 7519  14.924  11.326   6.503  0.1930 -0.0531 -0.1844
  682PSPI    C2 7520  15.132  11.561   6.752 -0.0505  0.0247 -0.0506
  682PSPI    C3 7521  14.794  11.695   6.586 -0.0427 -0.1319 -0.1963
  682PSPI   PO4 7522  14.911  11.099   6.641 -0.1714 -0.3091 -0.0272
  682PSPI   GL1 7523  15.173  11.012   6.987 -0.1953 -0.1106  0.0489
  682PSPI   GL2 7524  15.008  10.733   7.031 -0.2261 -0.1607 -0.2470
  682PSPI   C1A 7525  15.381  11.209   7.241 -0.1339  0.0360  0.0394
  682PSPI   C2A 7526  15.217  11.503   7.494  0.2378 -0.0030 -0.1927
  682PSPI   C3A 7527  15.280  11.472   7.922  0.3689 -0.2133  0.0028
  682PSPI   C4A 7528  15.246  11.822   8.247 -0.0288 -0.0431  0.2463
  682PSPI   C1B 7529  14.898  10.953   7.351 -0.1197  0.0902  0.0662
  682PSPI   C2B 7530  14.827  11.037   7.732  0.1100 -0.1186  0.1657
  682PSPI   C3B 7531  15.062  11.012   8.140 -0.1193 -0.1168  0.0683
  682PSPI   C4B 7532  15.387  11.317   8.363  0.2298 -0.1402  0.0019
  683PSPI    C1 7533   2.326   1.373   5.475  0.1764 -0.0395  0.1993
  683PSPI    C2 7534   2.380   1.293   5.087 -0.3019 -0.0903  0.1373
  683PSPI    C3 7535   2.412   1.669   5.220  0.0876 -0.1040  0.0937
  683PSPI   PO4 7536   2.426   1.254   5.570 -0.1382 -0.0575 -0.0327
  683PSPI   GL1 7537   2.421   1.121   6.000  0.0246  0.0564 -0.0291
  683PSPI   GL2 7538   2.091   1.002   6.047  0.1740 -0.1008  0.2140
  683PSPI   C1A 7539   2.485   1.408   6.378 -0.1247  0.0975 -0.0371
  683PSPI   C2A 7540   2.427   1.480   6.762  0.1400 -0.1126 -0.0138
  683PSPI   C3A 7541   2.416   1.326   7.219  0.1695 -0.3814  0.1747
  683PSPI   C4A 7542   2.519   1.384   7.641 -0.3451 -0.1337  0.0747
  683PSPI   C1B 7543   2.117   0.870   6.416  0.0299  0.1509 -0.0671
  683PSPI   C2B 7544   2.264   0.962   6.811  0.1636 -0.0033 -0.2095
  683PSPI   C3B 7545   2.039   0.975   7.136  0.1712 -0.0615 -0.1886
  683PSPI   C4B 7546   1.999   1.179   7.588 -0.1720 -0.0987  0.0287
  684PSPI    C1 7547   6.925  16.554   6.222 -0.2781 -0.3410  0.0111
  684PSPI    C2 7548   7.068  16.763   5.913  0.0486 -0.2115  0.2440
  684PSPI    C3 7549   6.946  16.387   5.859 -0.1605 -0.1000 -0.0959
  684PSPI   PO4 7550   7.110  16.553   6.399  0.0854 -0.0921 -0.1412
  684PSPI   GL1 7551   7.063  16.767   6.775 -0.1252 -0.2225  0.0055
  684PSPI   GL2 7552   7.373  16.745   6.950  0.0948  0.0680  0.2103
  684PSPI   C1A 7553   6.963  16.546   7.176 -0.0967 -0.1246  0.2026
  684PSPI   C2A 7554   6.908  16.628   7.672  0.1076  0.0851 -0.1254
  684PSPI   C3A 7555   6.671  16.809   7.982  0.1063 -0.0066 -0.1776
  684PSPI   C4A 7556   6.400  16.699   8.316  0.0174 -0.0209  0.1053
  684PSPI   C1B 7557   7.360  16.809   7.375  0.0844 -0.0504  0.1261
  684PSPI   C2B 7558   7.427  16.814   7.852 -0.0763 -0.0196 -0.0960
  684PSPI   C3B 7559   7.171  16.888   8.120  0.0992 -0.0918  0.0041
  684PSPI   C4B 7560   6.955  17.201   8.347  0.0130  0.0937 -0.0060
  685PSPI    C1 7561   7.913   9.696   6.546  0.0696  0.2487  0.2481
  685PSPI    C2 7562   8.276   9.825   6.439 -0.0491  0.2249 -0.2057
  685PSPI    C3 7563   7.952  10.040   6.346 -0.1704  0.1258 -0.0181
  685PSPI   PO4 7564   7.936   9.575   6.818  0.1730  0.0568 -0.0696
  685PSPI   GL1 7565   7.804   9.577   7.172 -0.2174 -0.0514 -0.1222
  685PSPI   GL2 7566   8.002   9.861   7.311  0.0703  0.1279  0.1504
  685PSPI   C1A 7567   7.679   9.571   7.545  0.0310 -0.1642  0.0388
  685PSPI   C2A 7568   7.658   9.619   7.948  0.2354  0.2405 -0.0641
  685PSPI   C3A 7569   7.814   9.598   8.301 -0.0679  0.2164  0.1552
  685PSPI   C4A 7570   7.978   9.535   8.621  0.3588 -0.0155 -0.2585
  685PSPI   C1B 7571   7.883  10.044   7.624 -0.1821  0.2118  0.1029
  685PSPI   C2B 7572   7.872  10.115   8.059  0.0282  0.0722  0.0339
  685PSPI   C3B 7573   8.075  10.059   8.492  0.3259  0.3628  0.1940
  685PSPI   C4B 7574   8.106  10.035   8.839 -0.1639 -0.0727  0.0200
  686PSPI    C1 7575   3.127  12.351   5.992 -0.0356  0.0425 -0.1077
  686PSPI    C2 7576   3.087  12.312   5.596 -0.1310  0.0620 -0.1003
  686PSPI    C3 7577   2.991  12.657   5.774  0.3394  0.2081 -0.1156
  686PSPI   PO4 7578   3.339  12.205   6.101 -0.1971  0.0247 -0.2127
  686PSPI   GL1 7579   3.426  11.961   6.485  0.1285 -0.1307 -0.0609
  686PSPI   GL2 7580   3.487  11.571   6.597 -0.1705  0.1708  0.0286
  686PSPI   C1A 7581   3.454  12.108   6.807  0.0376 -0.0256  0.2005
  686PSPI   C2A 7582   3.543  12.324   7.175 -0.0668  0.3568  0.0177
  686PSPI   C3A 7583   3.728  12.620   7.500 -0.0605 -0.1203  0.5301
  686PSPI   C4A 7584   3.999  12.774   7.849  0.0033  0.0343  0.2328
  686PSPI   C1B 7585   3.210  11.677   6.892 -0.2047  0.3240 -0.1700
  686PSPI   C2B 7586   3.214  11.838   7.257 -0.2868  0.0950  0.1195
  686PSPI   C3B 7587   3.224  12.128   7.612 -0.0730  0.3014 -0.1067
  686PSPI   C4B 7588   3.470  12.432   7.880  0.0485 -0.0686 -0.0008
  687PSPI    C1 7589   6.099   7.282   6.168 -0.0552 -0.0047 -0.1384
  687PSPI    C2 7590   5.746   7.341   5.990 -0.0824  0.3052  0.0120
  687PSPI    C3 7591   6.069   7.543   5.866 -0.0043  0.1845  0.0178
  687PSPI   PO4 7592   6.239   7.249   6.495 -0.0804  0.1616  0.3030
  687PSPI   GL1 7593   6.106   7.332   6.862 -0.1622 -0.2365  0.3670
  687PSPI   GL2 7594   5.982   7.007   6.856  0.1533  0.1086 -0.3175
  687PSPI   C1A 7595   6.060   7.365   7.311  0.1734 -0.4224  0.0793
  687PSPI   C2A 7596   6.353   7.210   7.677 -0.1807  0.0206  0.2348
  687PSPI   C3A 7597   6.398   7.208   8.146  0.0487  0.0975  0.3421
  687PSPI   C4A 7598   6.275   7.137   8.479 -0.1222  0.0435 -0.4221
  687PSPI   C1B 7599   5.946   6.847   7.142  0.1001  0.1975  0.0356
  687PSPI   C2B 7600   6.159   6.720   7.503 -0.1728  0.4184  0.1319
  687PSPI   C3B 7601   6.212   6.773   7.979 -0.1134 -0.4077  0.2704
  687PSPI   C4B 7602   6.437   6.663   8.303 -0.3206  0.2623 -0.1256
  688PSPI    C1 7603  12.201   6.615   6.115 -0.2211  0.0565  0.0985
  688PSPI    C2 7604  11.870   6.504   5.920 -0.2016  0.0338  0.0781
  688PSPI    C3 7605  12.114   6.777   5.760 -0.1495 -0.0359  0.0382
  688PSPI   PO4 7606  12.126   6.702   6.486 -0.1859 -0.0834 -0.0125
  688PSPI   GL1 7607  12.144   6.772   6.935 -0.1342  0.2038 -0.1861
  688PSPI   GL2 7608  11.961   6.855   7.123 -0.0959  0.1637  0.2515
  688PSPI   C1A 7609  12.006   6.374   7.228 -0.0633  0.1314 -0.2252
  688PSPI   C2A 7610  11.784   6.210   7.517  0.0221 -0.3829 -0.1312
  688PSPI   C3A 7611  11.850   6.059   7.892 -0.0432  0.1324 -0.0543
  688PSPI   C4A 7612  12.280   5.962   8.204  0.0619 -0.0015  0.4230
  688PSPI   C1B 7613  11.619   6.728   7.345 -0.1636  0.0244  0.2660
  688PSPI   C2B 7614  11.508   6.567   7.703  0.0629  0.0321 -0.2355
  688PSPI   C3B 7615  11.345   6.405   8.037 -0.0195  0.0890 -0.1316
  688PSPI   C4B 7616  11.408   5.960   8.163  0.1360  0.1309  0.2458
  689PSPI    C1 7617   6.907   2.831   5.667  0.0498  0.1121 -0.3370
  689PSPI    C2 7618   6.540   2.989   5.683 -0.0251 -0.0736 -0.1691
  689PSPI    C3 7619   6.586   2.599   5.610  0.1319 -0.0802 -0.0392
  689PSPI   PO4 7620   6.970   2.850   5.922 -0.5684 -0.1003 -0.0507
  689PSPI   GL1 7621   6.765   3.076   6.274  0.3149  0.1142 -0.0658
  689PSPI   GL2 7622   7.024   3.271   6.154 -0.0418 -0.0954  0.3309
  689PSPI   C1A 7623   6.740   3.192   6.580 -0.4839 -0.2178 -0.1016
  689PSPI   C2A 7624   6.789   3.401   6.882  0.3451  0.1140  0.4568
  689PSPI   C3A 7625   6.833   3.218   7.249 -0.3821 -0.1054  0.1675
  689PSPI   C4A 7626   6.760   3.273   7.652  0.1042  0.1144 -0.1314
  689PSPI   C1B 7627   7.232   3.338   6.500  0.0179  0.1296  0.1285
  689PSPI   C2B 7628   7.263   3.389   6.955 -0.0174  0.1526 -0.0041
  689PSPI   C3B 7629   7.244   3.387   7.434  0.1622  0.1357 -0.1890
  689PSPI   C4B 7630   7.124   2.956   7.791 -0.0151  0.1787 -0.1166
  690PSPI    C1 7631  16.696  17.947   6.073  0.0563 -0.0674  0.0950
  690PSPI    C2 7632  17.061  18.053   5.949 -0.0760  0.2146 -0.0636
  690PSPI    C3 7633  16.810  17.871   5.697 -0.0609  0.0582  0.0331
  690PSPI   PO4 7634  16.727  17.744   6.323  0.1658  0.1688  0.1077
  690PSPI   GL1 7635  17.034  17.473   6.533 -0.3241 -0.2070 -0.1589
  690PSPI   GL2 7636  17.140  17.257   6.315  0.0992 -0.0593 -0.2098
  690PSPI   C1A 7637  17.055  17.357   6.991 -0.0916  0.2096  0.2169
  690PSPI   C2A 7638  17.188  17.334   7.354 -0.0600 -0.0406 -0.0471
  690PSPI   C3A 7639  17.079  17.349   7.740 -0.0836 -0.0808  0.1436
  690PSPI   C4A 7640  17.148  17.290   8.159 -0.0220 -0.2408 -0.1321
  690PSPI   C1B 7641  16.829  17.026   6.627 -0.2299 -0.0638  0.1065
  690PSPI   C2B 7642  16.648  16.945   6.975 -0.1194 -0.0680  0.0749
  690PSPI   C3B 7643  16.653  17.062   7.361  0.0228 -0.3733 -0.0571
  690PSPI   C4B 7644  16.574  17.072   7.732 -0.2635 -0.2905  0.1458
  691PSPI    C1 7645   4.962   3.216   5.816  0.1858 -0.0146  0.0576
  691PSPI    C2 7646   4.817   3.543   5.637  0.1609  0.0650  0.2213
  691PSPI    C3 7647   4.843   3.199   5.434 -0.3108  0.0328  0.2023
  691PSPI   PO4 7648   5.252   3.209   5.918 -0.0044  0.1680  0.1018
  691PSPI   GL1 7649   5.647   3.333   6.184  0.1315 -0.1217  0.1443
  691PSPI   GL2 7650   5.984   3.454   6.348  0.6057 -0.0894 -0.1698
  691PSPI   C1A 7651   5.484   3.443   6.518  0.2660  0.0807 -0.3189
  691PSPI   C2A 7652   5.428   3.535   6.955  0.0718  0.3373 -0.0050
  691PSPI   C3A 7653   5.197   3.770   7.169 -0.2384 -0.3754 -0.0153
  691PSPI   C4A 7654   5.212   3.647   7.584 -0.4130 -0.1263 -0.2389
  691PSPI   C1B 7655   6.282   3.096   6.521 -0.1425  0.0731 -0.0211
  691PSPI   C2B 7656   6.432   3.079   6.972  0.0017  0.1389 -0.2293
  691PSPI   C3B 7657   6.339   2.875   7.398 -0.0782  0.2046  0.1376
  691PSPI   C4B 7658   6.433   2.447   7.473  0.2748 -0.1183 -0.1710
  692POPI    C1 7659   8.748  10.484   6.670  0.0725 -0.1455 -0.0738
  692POPI    C2 7660   8.481  10.333   6.413 -0.0047  0.0345 -0.1010
  692POPI    C3 7661   8.872  10.266   6.358 -0.0383 -0.1615 -0.1071
  692POPI   PO4 7662   8.635  10.380   6.872  0.0005 -0.1011 -0.0590
  692POPI   GL1 7663   8.812  10.122   7.190  0.1573 -0.4634  0.1213
  692POPI   GL2 7664   8.855  10.407   7.407  0.0182 -0.4911 -0.4573
  692POPI   C1A 7665   8.542   9.852   7.426 -0.0261  0.1459  0.0095
  692POPI   D2A 7666   8.259   9.867   7.806  0.0509  0.0064 -0.2090
  692POPI   C3A 7667   8.331   9.706   8.219  0.0188  0.0288  0.0842
  692POPI   C4A 7668   8.467   9.710   8.689 -0.0738 -0.1051  0.0731
  692POPI   C1B 7669   8.753  10.164   7.753  0.0697  0.1430 -0.0894
  692POPI   C2B 7670   8.629  10.056   8.249 -0.0246 -0.1747 -0.0388
  692POPI   C3B 7671   8.516  10.224   8.645 -0.1217 -0.1448  0.0518
  692POPI   C4B 7672   8.529  10.343   9.062 -0.0224  0.2469 -0.0015
  693POPI    C1 7673  16.077  13.530   6.284 -0.2158  0.1267 -0.2847
  693POPI    C2 7674  16.354  13.374   6.042  0.0636 -0.0073  0.1107
  693POPI    C3 7675  15.968  13.282   5.990  0.1325 -0.1357 -0.1990
  693POPI   PO4 7676  16.303  13.559   6.562  0.1498  0.0471 -0.2652
  693POPI   GL1 7677  16.221  13.531   7.063  0.2014  0.2030  0.1338
  693POPI   GL2 7678  16.456  13.811   7.026  0.2057 -0.1399  0.0030
  693POPI   C1A 7679  16.313  13.600   7.488  0.1691  0.1244  0.0275
  693POPI   D2A 7680  16.374  13.538   7.898  0.2046  0.1639  0.0523
  693POPI   C3A 7681  16.238  13.533   8.334  0.0865 -0.0637  0.0748
  693POPI   C4A 7682  16.346  13.417   8.736 -0.1374  0.2246 -0.1987
  693POPI   C1B 7683  16.580  14.047   7.416  0.1159  0.1741  0.2068
  693POPI   C2B 7684  16.561  14.002   7.784 -0.0702  0.2032  0.3455
  693POPI   C3B 7685  16.571  13.938   8.220 -0.1614 -0.1270 -0.1279
  693POPI   C4B 7686  16.583  13.892   8.641  0.0465  0.0856  0.0146
  694POPI    C1 7687  14.556   7.932   6.420 -0.1494  0.0339  0.1050
  694POPI    C2 7688  14.702   7.717   6.724 -0.0799  0.1271  0.1381
  694POPI    C3 7689  14.602   7.537   6.382 -0.0848  0.0329  0.1888
  694POPI   PO4 7690  14.343   8.062   6.550 -0.0711 -0.2224  0.0880
  694POPI   GL1 7691  14.470   8.115   7.069 -0.1287 -0.0389 -0.0264
  694POPI   GL2 7692  14.319   7.849   7.028 -0.0048 -0.0399 -0.5510
  694POPI   C1A 7693  14.365   8.043   7.585 -0.2280  0.1950 -0.0928
  694POPI   D2A 7694  14.404   8.033   7.982  0.2569 -0.2028 -0.0707
  694POPI   C3A 7695  14.807   8.010   8.107 -0.1076  0.0564 -0.1436
  694POPI   C4A 7696  14.907   8.359   8.311 -0.1163 -0.0525 -0.1671
  694POPI   C1B 7697  14.529   7.530   7.365 -0.0273  0.0341  0.0952
  694POPI   C2B 7698  14.624   7.628   7.735 -0.0524  0.2018  0.0539
  694POPI   C3B 7699  14.856   7.517   8.133 -0.2430  0.0607  0.0643
  694POPI   C4B 7700  15.210   7.380   8.119  0.2077 -0.2073 -0.0859
  695POPI    C1 7701   6.554   8.073   6.382  0.0094 -0.1488  0.1172
  695POPI    C2 7702   6.899   8.041   6.182 -0.0008  0.0520  0.0654
  695POPI    C3 7703   6.633   8.321   6.078 -0.0826  0.0436  0.2485
  695POPI   PO4 7704   6.590   8.053   6.607  0.1504  0.1527  0.1746
  695POPI   GL1 7705   6.489   8.344   6.990 -0.1315 -0.1253 -0.1964
  695POPI   GL2 7706   6.753   8.527   7.085 -0.0862  0.3673 -0.1355
  695POPI   C1A 7707   6.416   7.980   7.228  0.0973  0.0516  0.2132
  695POPI   D2A 7708   6.297   7.835   7.636 -0.0549 -0.1137 -0.3960
  695POPI   C3A 7709   6.550   7.692   7.894  0.1265 -0.1808 -0.2778
  695POPI   C4A 7710   6.808   7.331   7.858 -0.3244  0.1762 -0.0419
  695POPI   C1B 7711   6.967   8.538   7.510 -0.1715  0.1053 -0.0626
  695POPI   C2B 7712   7.097   8.468   7.903  0.0364 -0.0480  0.2455
  695POPI   C3B 7713   7.189   8.264   8.226 -0.0544  0.1374 -0.3615
  695POPI   C4B 7714   7.380   7.990   8.537  0.2284  0.3683  0.0292
  696POPI    C1 7715  15.411   3.184   6.213 -0.0686 -0.3064 -0.1022
  696POPI    C2 7716  15.536   3.401   5.901  0.0115 -0.0167  0.1262
  696POPI    C3 7717  15.196   3.191   5.876 -0.0503  0.1081 -0.1103
  696POPI   PO4 7718  15.542   3.349   6.408 -0.1501 -0.0042  0.1228
  696POPI   GL1 7719  15.406   3.624   6.676  0.2506  0.0764 -0.1752
  696POPI   GL2 7720  15.091   3.669   6.612 -0.1735  0.2446 -0.0772
  696POPI   C1A 7721  15.377   3.546   7.143 -0.2690  0.0706  0.1448
  696POPI   D2A 7722  15.454   3.431   7.500 -0.1211  0.2001 -0.2517
  696POPI   C3A 7723  15.400   3.154   7.795 -0.0007 -0.1544  0.0274
  696POPI   C4A 7724  15.189   2.815   8.042 -0.1167  0.0142 -0.1787
  696POPI   C1B 7725  14.937   3.434   6.865  0.1402 -0.0106  0.0778
  696POPI   C2B 7726  14.882   3.627   7.253 -0.2802  0.0015  0.2054
  696POPI   C3B 7727  14.948   3.650   7.692  0.0831 -0.2590  0.1307
  696POPI   C4B 7728  15.287   3.732   8.021 -0.0162 -0.0811  0.0743
  697POPI    C1 7729  12.723   8.078   6.505  0.2930 -0.1851 -0.1096
  697POPI    C2 7730  12.911   8.246   6.815  0.0141 -0.1200  0.0264
  697POPI    C3 7731  12.695   8.472   6.565 -0.2182 -0.2472  0.1086
  697POPI   PO4 7732  12.610   7.820   6.617 -0.2543  0.2048 -0.1435
  697POPI   GL1 7733  12.556   7.667   6.955 -0.1885  0.1075  0.0521
  697POPI   GL2 7734  12.208   7.702   7.122  0.0216  0.1977 -0.0682
  697POPI   C1A 7735  12.652   7.595   7.383 -0.1829 -0.4798  0.1491
  697POPI   D2A 7736  12.654   7.368   7.790  0.1400  0.0938  0.2421
  697POPI   C3A 7737  12.474   7.557   8.138 -0.0419  0.0396 -0.0659
  697POPI   C4A 7738  12.303   7.538   8.529  0.0541  0.0486  0.0368
  697POPI   C1B 7739  12.426   8.122   7.132 -0.1123 -0.0918 -0.1002
  697POPI   C2B 7740  12.721   8.320   7.419 -0.1198 -0.0989 -0.0057
  697POPI   C3B 7741  12.695   8.385   7.846 -0.1769 -0.3370 -0.1425
  697POPI   C4B 7742  12.656   8.393   8.260 -0.0463 -0.1155 -0.1429
  698POPI    C1 7743  12.309   4.458   6.033 -0.2025 -0.0749 -0.0539
  698POPI    C2 7744  12.466   4.143   5.844 -0.1062  0.0044 -0.1067
  698POPI    C3 7745  12.216   4.388   5.651 -0.1789 -0.0380 -0.0665
  698POPI   PO4 7746  12.184   4.416   6.287  0.2659  0.1342 -0.0193
  698POPI   GL1 7747  12.206   4.360   6.751  0.4604  0.3868 -0.1550
  698POPI   GL2 7748  12.280   4.118   6.637 -0.2866 -0.2642 -0.0031
  698POPI   C1A 7749  12.040   4.120   7.082 -0.2768  0.0819  0.1808
  698POPI   D2A 7750  12.050   4.164   7.502  0.0890 -0.1764  0.1092
  698POPI   C3A 7751  11.908   4.524   7.806  0.1264 -0.0025  0.1146
  698POPI   C4A 7752  12.002   4.945   7.626  0.3048  0.1451 -0.0960
  698POPI   C1B 7753  12.519   3.991   7.024  0.3552  0.2689 -0.0072
  698POPI   C2B 7754  12.500   3.963   7.384 -0.0958 -0.1120 -0.0130
  698POPI   C3B 7755  12.478   3.998   7.741 -0.2337  0.2400  0.1003
  698POPI   C4B 7756  12.260   4.100   8.054 -0.3238 -0.0282  0.2584
  699POPI    C1 7757   7.538   5.698   5.898  0.0928 -0.1367 -0.1395
  699POPI    C2 7758   7.646   5.895   5.567 -0.1669  0.2274 -0.0136
  699POPI    C3 7759   7.269   5.769   5.611  0.0025 -0.3365 -0.1058
  699POPI   PO4 7760   7.728   5.522   5.989 -0.0996 -0.1568 -0.0253
  699POPI   GL1 7761   7.937   5.464   6.247 -0.0386 -0.4254  0.1387
  699POPI   GL2 7762   8.203   5.441   6.286 -0.0749  0.2416 -0.0480
  699POPI   C1A 7763   7.831   5.484   6.682  0.0248  0.0635 -0.0177
  699POPI   D2A 7764   7.854   5.500   7.034  0.3019 -0.0728 -0.0833
  699POPI   C3A 7765   7.985   5.529   7.394  0.1921  0.0465  0.0847
  699POPI   C4A 7766   7.803   5.441   7.823  0.3151 -0.1992  0.1124
  699POPI   C1B 7767   8.297   5.394   6.769  0.1402 -0.2575  0.2207
  699POPI   C2B 7768   8.450   5.384   7.147 -0.0799  0.3490  0.1117
  699POPI   C3B 7769   8.435   5.577   7.558 -0.1813  0.1054  0.2214
  699POPI   C4B 7770   8.167   5.781   7.898 -0.0265 -0.2304  0.0774
  700POPI    C1 7771  12.362  16.126   6.175  0.0855  0.2198 -0.0662
  700POPI    C2 7772  11.971  16.191   6.125  0.0634  0.1201 -0.0252
  700POPI    C3 7773  12.232  16.317   5.849 -0.0283 -0.1299 -0.2304
  700POPI   PO4 7774  12.343  15.904   6.529 -0.2921  0.3882 -0.0892
  700POPI   GL1 7775  12.561  15.831   6.868 -0.0716 -0.1063 -0.1153
  700POPI   GL2 7776  12.449  16.165   7.000 -0.0334 -0.2004 -0.3332
  700POPI   C1A 7777  12.398  15.617   7.280 -0.0393  0.1095  0.1695
  700POPI   D2A 7778  12.323  15.692   7.710 -0.1922 -0.2123 -0.0285
  700POPI   C3A 7779  12.406  15.781   8.124  0.0109  0.0871  0.2713
  700POPI   C4A 7780  12.368  16.010   8.508  0.1600 -0.0724 -0.1729
  700POPI   C1B 7781  12.348  16.216   7.399  0.1945  0.0856  0.0742
  700POPI   C2B 7782  12.287  16.180   7.801 -0.0049  0.1110  0.1832
  700POPI   C3B 7783  12.225  16.362   8.157 -0.3312 -0.0356 -0.0422
  700POPI   C4B 7784  12.047  16.437   8.540  0.4519 -0.1608 -0.2389
  701POPI    C1 7785  17.361   9.894   5.909 -0.1526  0.0473 -0.0183
  701POPI    C2 7786  17.155  10.165   5.700  0.0807  0.3137  0.0902
  701POPI    C3 7787  17.540  10.099   5.616  0.0187 -0.0085  0.0457
  701POPI   PO4 7788  17.374   9.960   6.129  0.0659  0.0454  0.2033
  701POPI   GL1 7789  17.443   9.952   6.482  0.1192 -0.1562 -0.0106
  701POPI   GL2 7790  17.217  10.025   6.642  0.0178  0.0076  0.0312
  701POPI   C1A 7791  17.735   9.934   6.878 -0.0623 -0.0870 -0.1284
  701POPI   D2A 7792  17.939  10.166   7.159 -0.1358  0.1215  0.2480
  701POPI   C3A 7793  17.904  10.082   7.614  0.2501 -0.2990 -0.0655
  701POPI   C4A 7794  18.269  10.118   7.804  0.1795 -0.2257  0.0625
  701POPI   C1B 7795  17.335  10.104   7.118  0.1480 -0.0418  0.0802
  701POPI   C2B 7796  17.341  10.135   7.609  0.1884  0.0187 -0.3242
  701POPI   C3B 7797  17.322   9.929   7.996  0.0198  0.0151  0.1412
  701POPI   C4B 7798  16.978   9.667   8.085 -0.1540  0.0605  0.1763
  702POPI    C1 7799  13.183   3.170   6.160 -0.2314 -0.1026  0.0282
  702POPI    C2 7800  13.078   3.309   5.800 -0.0093 -0.0008  0.0008
  702POPI    C3 7801  13.131   2.916   5.856  0.0056 -0.0121 -0.0910
  702POPI   PO4 7802  12.984   3.224   6.408 -0.0162 -0.1091 -0.1002
  702POPI   GL1 7803  12.609   3.432   6.672  0.2510 -0.0078 -0.3833
  702POPI   GL2 7804  12.349   3.595   6.647 -0.2160 -0.2465  0.0121
  702POPI   C1A 7805  12.733   3.551   7.070 -0.0717 -0.1257  0.1067
  702POPI   D2A 7806  13.027   3.529   7.335  0.0518  0.0335  0.1211
  702POPI   C3A 7807  12.754   3.563   7.643  0.2858 -0.0104  0.0877
  702POPI   C4A 7808  12.987   3.842   7.928  0.0265  0.1636 -0.3023
  702POPI   C1B 7809  12.192   3.563   7.011  0.0112  0.0505 -0.0642
  702POPI   C2B 7810  12.088   3.549   7.486 -0.2690 -0.0283  0.0071
  702POPI   C3B 7811  12.258   3.510   7.919 -0.1023 -0.0014  0.0622
  702POPI   C4B 7812  12.598   3.732   8.232 -0.1344  0.1641  0.0794
  703POPI    C1 7813  13.356   0.058   6.013  0.2887  0.0224  0.0620
  703POPI    C2 7814  13.707   0.139   6.188  0.1202  0.3247  0.2680
  703POPI    C3 7815  13.564   0.381   5.904  0.4707 -0.2503 -0.4300
  703POPI   PO4 7816  13.250  -0.072   6.278 -0.0015  0.0446 -0.0075
  703POPI   GL1 7817  13.083  -0.286   6.669  0.3608  0.0171  0.2553
  703POPI   GL2 7818  13.326  -0.403   6.827  0.0579  0.0040 -0.0378
  703POPI   C1A 7819  12.891  -0.642   6.859  0.0048 -0.7139 -0.1471
  703POPI   D2A 7820  13.148  -0.960   6.935 -0.2921  0.2364  0.2217
  703POPI   C3A 7821  13.101  -1.043   7.359  0.1759  0.0313  0.0620
  703POPI   C4A 7822  13.129  -1.036   7.763 -0.0799  0.2640 -0.0421
  703POPI   C1B 7823  13.407  -0.212   7.181 -0.0023  0.2212 -0.1522
  703POPI   C2B 7824  13.350  -0.173   7.704 -0.1768  0.0200 -0.0741
  703POPI   C3B 7825  13.142   0.066   7.994  0.0928 -0.0501 -0.0304
  703POPI   C4B 7826  12.973   0.142   8.484  0.1948  0.0143 -0.1739
  704POPI    C1 7827  10.654  17.594   6.499 -0.3096 -0.0023  0.2186
  704POPI    C2 7828  10.864  17.785   6.781 -0.1390 -0.0475  0.1230
  704POPI    C3 7829  10.892  17.387   6.745 -0.2378 -0.0533  0.1066
  704POPI   PO4 7830  10.399  17.747   6.543 -0.0260  0.0526 -0.0621
  704POPI   GL1 7831  10.250  17.958   6.945  0.1752  0.3487 -0.0504
  704POPI   GL2 7832  10.514  18.228   6.918 -0.1376  0.0633 -0.0862
  704POPI   C1A 7833  10.038  17.789   7.292  0.0083  0.3414  0.0905
  704POPI   D2A 7834  10.077  17.720   7.629  0.0614 -0.0011 -0.0272
  704POPI   C3A 7835   9.611  17.676   7.781 -0.1515  0.1008  0.0631
  704POPI   C4A 7836   9.238  17.825   7.691 -0.0794  0.3637  0.1962
  704POPI   C1B 7837  10.320  18.334   7.237 -0.1201  0.0573 -0.3483
  704POPI   C2B 7838  10.276  18.231   7.653  0.1703  0.1983 -0.1086
  704POPI   C3B 7839  10.375  17.924   7.985 -0.0602 -0.0864  0.0823
  704POPI   C4B 7840  10.748  17.723   8.118  0.0592 -0.0800  0.1497
  705POPI    C1 7841  14.074   8.467   6.787 -0.0047  0.1567  0.1788
  705POPI    C2 7842  14.218   8.528   6.418  0.0041  0.0635  0.1667
  705POPI    C3 7843  14.463   8.549   6.735  0.0300 -0.0201  0.1526
  705POPI   PO4 7844  13.972   8.182   6.810 -0.3129  0.1415 -0.0504
  705POPI   GL1 7845  13.803   7.774   6.942  0.1214  0.1412 -0.1412
  705POPI   GL2 7846  13.816   7.430   6.981 -0.0077 -0.0136 -0.1523
  705POPI   C1A 7847  13.898   7.962   7.403  0.2157 -0.2786 -0.0189
  705POPI   D2A 7848  13.859   8.122   7.770  0.1812 -0.0100  0.1516
  705POPI   C3A 7849  13.865   8.146   8.194 -0.1570 -0.0241  0.0179
  705POPI   C4A 7850  13.743   7.913   8.499 -0.0509 -0.1200 -0.0045
  705POPI   C1B 7851  14.032   7.485   7.344 -0.1389  0.1733  0.0083
  705POPI   C2B 7852  14.086   7.634   7.753 -0.3176  0.3928  0.1956
  705POPI   C3B 7853  14.046   7.663   8.180 -0.1978  0.0685 -0.4332
  705POPI   C4B 7854  13.984   7.468   8.583  0.0521 -0.1126  0.0266
  706POPI    C1 7855   6.968   9.847   6.640 -0.3122  0.0850 -0.1206
  706POPI    C2 7856   7.015  10.166   6.404  0.2342  0.0229 -0.1086
  706POPI    C3 7857   6.874   9.825   6.252  0.0845  0.1351 -0.2242
  706POPI   PO4 7858   6.857   9.839   6.867  0.0152 -0.2022 -0.1905
  706POPI   GL1 7859   6.968   9.722   7.277  0.3399 -0.1098 -0.0096
  706POPI   GL2 7860   6.622   9.542   7.244 -0.2912 -0.1561  0.3009
  706POPI   C1A 7861   6.773   9.666   7.688 -0.1217  0.1786  0.1955
  706POPI   D2A 7862   6.839   9.514   8.082  0.2688  0.0909  0.2550
  706POPI   C3A 7863   6.528   9.612   8.466  0.3385  0.0476 -0.1009
  706POPI   C4A 7864   6.111   9.673   8.600  0.1915  0.1843  0.1622
  706POPI   C1B 7865   6.413   9.333   7.473 -0.2017  0.0510 -0.0860
  706POPI   C2B 7866   6.140   9.124   7.731 -0.0526 -0.0559 -0.0320
  706POPI   C3B 7867   6.062   8.698   7.933  0.0282  0.1017  0.1287
  706POPI   C4B 7868   6.228   8.417   8.241 -0.2218  0.0618 -0.3915
  707POPI    C1 7869   9.626  13.920   6.657 -0.0993  0.0795 -0.0654
  707POPI    C2 7870   9.959  13.858   6.444  0.0854  0.0812  0.2168
  707POPI    C3 7871   9.726  13.549   6.546  0.1696  0.0407  0.2875
  707POPI   PO4 7872   9.693  14.135   6.815  0.2068  0.2118 -0.3388
  707POPI   GL1 7873   9.684  14.052   7.271 -0.1075 -0.2278 -0.1608
  707POPI   GL2 7874   9.783  14.170   7.553  0.2882 -0.0317 -0.0781
  707POPI   C1A 7875   9.595  13.708   7.671  0.0613  0.1107 -0.1521
  707POPI   D2A 7876   9.687  13.754   8.084 -0.2898  0.0222 -0.1802
  707POPI   C3A 7877   9.419  13.660   8.454  0.2552 -0.0473 -0.1593
  707POPI   C4A 7878   9.333  13.843   8.779  0.3583 -0.1213  0.3558
  707POPI   C1B 7879   9.681  14.331   7.942  0.1668 -0.0984  0.2155
  707POPI   C2B 7880   9.732  14.256   8.256  0.1829  0.2552  0.0001
  707POPI   C3B 7881   9.756  14.264   8.623  0.0953 -0.0348 -0.1953
  707POPI   C4B 7882   9.445  14.305   8.850  0.2717  0.1728 -0.1084
  708POPI    C1 7883   5.552   4.166   5.934 -0.1920  0.0240  0.0572
  708POPI    C2 7884   5.570   4.344   5.576 -0.0351  0.1474  0.1254
  708POPI    C3 7885   5.878   4.373   5.830 -0.0775 -0.0797  0.2056
  708POPI   PO4 7886   5.264   4.291   5.976 -0.1958 -0.1127 -0.2560
  708POPI   GL1 7887   4.898   4.243   6.314 -0.1403 -0.1809 -0.1227
  708POPI   GL2 7888   4.743   3.993   6.400  0.0689 -0.0310 -0.1912
  708POPI   C1A 7889   4.848   4.601   6.436 -0.3792  0.1434  0.4177
  708POPI   D2A 7890   4.714   4.829   6.532 -0.0836  0.0667  0.0162
  708POPI   C3A 7891   4.557   5.035   6.879 -0.1287  0.0156  0.0575
  708POPI   C4A 7892   4.513   5.437   6.994  0.1407 -0.3919  0.1787
  708POPI   C1B 7893   4.997   4.022   6.815 -0.0022  0.2371  0.1308
  708POPI   C2B 7894   5.052   4.222   7.258 -0.0110 -0.0626  0.0259
  708POPI   C3B 7895   5.293   4.159   7.632  0.0382 -0.2666  0.5036
  708POPI   C4B 7896   5.617   4.329   7.899 -0.0348  0.1825 -0.1540
  709POPI    C1 7897  14.770   1.144   6.167  0.1064  0.2163  0.1371
  709POPI    C2 7898  14.640   1.265   5.808 -0.0499 -0.2295  0.0376
  709POPI    C3 7899  14.926   0.986   5.834  0.1467 -0.0124  0.2629
  709POPI   PO4 7900  14.529   1.026   6.269  0.2084  0.2149  0.0211
  709POPI   GL1 7901  14.266   1.134   6.712  0.1114  0.2296 -0.0270
  709POPI   GL2 7902  14.367   1.407   6.805 -0.1425 -0.0878 -0.2966
  709POPI   C1A 7903  14.439   0.875   6.979  0.2935 -0.2059 -0.0084
  709POPI   D2A 7904  14.782   0.609   7.060  0.1022 -0.0872 -0.2980
  709POPI   C3A 7905  14.964   0.602   7.376 -0.4353  0.0612 -0.1389
  709POPI   C4A 7906  15.019   0.479   7.779  0.0016 -0.1249  0.1700
  709POPI   C1B 7907  14.424   1.368   7.154  0.0340  0.0716  0.1977
  709POPI   C2B 7908  14.608   1.437   7.588 -0.0633 -0.0520  0.3997
  709POPI   C3B 7909  14.549   1.532   8.052  0.0913  0.1893  0.0827
  709POPI   C4B 7910  14.724   1.673   8.523 -0.2376 -0.2138 -0.0288
  710POPI    C1 7911   5.207  17.721   5.719  0.0505  0.1723 -0.1083
  710POPI    C2 7912   5.332  17.898   5.383 -0.0900  0.1216 -0.1882
  710POPI    C3 7913   4.942  17.832   5.440 -0.0654  0.1182 -0.0203
  710POPI   PO4 7914   5.296  17.875   5.864  0.2234 -0.0778  0.1851
  710POPI   GL1 7915   5.162  17.888   6.225 -0.0889  0.0654  0.1818
  710POPI   GL2 7916   5.257  18.234   6.298 -0.2288 -0.1254  0.3367
  710POPI   C1A 7917   5.406  17.913   6.618 -0.0123 -0.0735 -0.1045
  710POPI   D2A 7918   5.136  17.907   7.045 -0.0247 -0.0736 -0.5130
  710POPI   C3A 7919   5.286  18.059   7.378  0.0457 -0.0371  0.0006
  710POPI   C4A 7920   5.433  18.032   7.791 -0.1518  0.0971  0.0556
  710POPI   C1B 7921   5.264  18.497   6.646  0.0091  0.1435 -0.1226
  710POPI   C2B 7922   5.243  18.657   7.004  0.2464 -0.4569  0.2736
  710POPI   C3B 7923   4.914  18.544   7.322  0.0682  0.1081 -0.2941
  710POPI   C4B 7924   4.520  18.501   7.309  0.1113 -0.0646  0.2471
  711POPI    C1 7925   3.135  11.101   6.079 -0.0825 -0.1562  0.1167
  711POPI    C2 7926   2.924  11.348   5.845  0.0132  0.0377  0.2326
  711POPI    C3 7927   2.896  10.952   5.794 -0.0878  0.0730 -0.0012
  711POPI   PO4 7928   3.110  11.229   6.348 -0.2031 -0.1653 -0.1083
  711POPI   GL1 7929   3.156  11.165   6.754 -0.0973  0.0299  0.0296
  711POPI   GL2 7930   2.856  11.034   6.709  0.0554 -0.0675 -0.0260
  711POPI   C1A 7931   3.093  11.044   7.187  0.2243  0.1231  0.2834
  711POPI   D2A 7932   3.452  10.923   7.499  0.1480 -0.2736 -0.0311
  711POPI   C3A 7933   3.483  11.000   7.923 -0.2147 -0.2426 -0.1259
  711POPI   C4A 7934   3.563  11.084   8.328  0.1723 -0.0805 -0.3293
  711POPI   C1B 7935   2.809  11.429   7.002 -0.1180  0.1677  0.1444
  711POPI   C2B 7936   2.687  11.703   7.291 -0.1625  0.1391 -0.2087
  711POPI   C3B 7937   2.445  11.850   7.562 -0.1973 -0.2602 -0.1527
  711POPI   C4B 7938   2.040  11.923   7.692  0.4046 -0.1068 -0.0849
  712POPI    C1 7939  17.407   1.426   5.753  0.0413  0.0355 -0.1372
  712POPI    C2 7940  17.435   1.044   5.638  0.0203  0.0247 -0.1066
  712POPI    C3 7941  17.082   1.230   5.627  0.0026 -0.0007  0.0175
  712POPI   PO4 7942  17.498   1.437   5.961 -0.1018 -0.0528  0.0951
  712POPI   GL1 7943  17.795   1.237   6.134  0.0604 -0.0343 -0.1750
  712POPI   GL2 7944  18.049   1.109   6.127 -0.2166  0.1121  0.2611
  712POPI   C1A 7945  17.680   0.987   6.537 -0.0602 -0.1491 -0.2314
  712POPI   D2A 7946  17.563   0.900   6.972  0.2235  0.0220 -0.0912
  712POPI   C3A 7947  17.426   1.272   7.138  0.1324  0.0859  0.1771
  712POPI   C4A 7948  17.513   1.722   7.147  0.0287 -0.0040 -0.0942
  712POPI   C1B 7949  18.191   0.771   6.476 -0.1488 -0.5082 -0.1068
  712POPI   C2B 7950  18.078   0.856   6.883  0.1645  0.0978  0.1807
  712POPI   C3B 7951  18.051   0.961   7.280 -0.1230 -0.0967 -0.0233
  712POPI   C4B 7952  18.052   1.071   7.656  0.1895  0.1301  0.4215
  713POPI    C1 7953  12.973  12.001   6.846  0.1168 -0.2355  0.1494
  713POPI    C2 7954  13.172  11.660   6.911  0.1980 -0.2082  0.0469
  713POPI    C3 7955  13.301  11.918   6.634 -0.0140 -0.2177 -0.0631
  713POPI   PO4 7956  12.708  11.896   6.895 -0.0506  0.3410  0.2063
  713POPI   GL1 7957  12.611  11.814   7.190 -0.0008 -0.1863 -0.2574
  713POPI   GL2 7958  12.633  11.909   7.514 -0.2137  0.1300 -0.2145
  713POPI   C1A 7959  12.245  11.621   7.362  0.3247  0.1415 -0.0059
  713POPI   D2A 7960  11.822  11.817   7.350 -0.1644  0.2889 -0.1820
  713POPI   C3A 7961  11.676  11.620   7.750  0.4685 -0.2849  0.1373
  713POPI   C4A 7962  11.602  11.220   7.930 -0.1961  0.0427 -0.0381
  713POPI   C1B 7963  12.466  11.944   7.909  0.2476  0.1320 -0.1673
  713POPI   C2B 7964  12.327  11.759   8.301 -0.0185  0.0822 -0.2546
  713POPI   C3B 7965  12.059  11.625   8.607  0.2446  0.0499 -0.0436
  713POPI   C4B 7966  11.826  11.400   8.953  0.1153 -0.0989  0.2069
  714POPI    C1 7967   4.830   0.637   5.493  0.2510  0.1343 -0.1222
  714POPI    C2 7968   4.514   0.678   5.253  0.1486  0.1290  0.0106
  714POPI    C3 7969   4.878   0.779   5.122  0.0790  0.2288 -0.1092
  714POPI   PO4 7970   4.653   0.619   5.713 -0.0255 -0.1957  0.0044
  714POPI   GL1 7971   4.536   0.990   6.035  0.1450 -0.2102  0.0820
  714POPI   GL2 7972   4.881   1.097   5.999 -0.0276 -0.0447 -0.0103
  714POPI   C1A 7973   4.371   1.046   6.445  0.1829  0.0687  0.0841
  714POPI   D2A 7974   4.167   1.074   6.810  0.3195 -0.3068 -0.0662
  714POPI   C3A 7975   4.327   0.958   7.209 -0.0867 -0.0699 -0.2469
  714POPI   C4A 7976   4.465   1.121   7.633  0.1142 -0.1118  0.1069
  714POPI   C1B 7977   4.865   1.205   6.418  0.0314  0.0738  0.3556
  714POPI   C2B 7978   4.498   1.417   6.789  0.1626 -0.0058  0.1031
  714POPI   C3B 7979   4.589   1.479   7.154  0.0195  0.2724  0.1121
  714POPI   C4B 7980   4.815   1.494   7.418  0.1356 -0.0393 -0.0897
  715POPI    C1 7981  11.040   1.683   5.981 -0.3180 -0.0358  0.1159
  715POPI    C2 7982  11.286   1.381   6.073 -0.1690  0.0709  0.0724
  715POPI    C3 7983  11.020   1.340   5.777 -0.0014  0.0565 -0.0780
  715POPI   PO4 7984  10.979   1.755   6.214  0.1248 -0.0646 -0.2925
  715POPI   GL1 7985  11.157   1.843   6.595  0.0142 -0.2206 -0.0419
  715POPI   GL2 7986  11.329   2.122   6.686 -0.0346  0.3739  0.0915
  715POPI   C1A 7987  10.931   1.790   7.026 -0.0467  0.1707 -0.1436
  715POPI   D2A 7988  10.884   1.752   7.539 -0.0525  0.3307  0.0715
  715POPI   C3A 7989  10.739   1.973   7.882 -0.2100  0.0930 -0.0247
  715POPI   C4A 7990  10.494   1.921   8.158  0.0584  0.4295  0.2292
  715POPI   C1B 7991  11.060   2.242   7.048 -0.2607  0.0362 -0.2358
  715POPI   C2B 7992  11.019   2.262   7.461 -0.1973  0.1443  0.0757
  715POPI   C3B 7993  10.743   2.426   7.756  0.0530 -0.1646 -0.3727
  715POPI   C4B 7994  10.680   2.754   7.986 -0.0956  0.0556 -0.0374
  716POPI    C1 7995  15.195   5.276   6.284  0.0653  0.2983 -0.0245
  716POPI    C2 7996  15.263   5.107   5.928 -0.0802  0.0443  0.0658
  716POPI    C3 7997  14.888   5.159   6.057 -0.0295  0.1947  0.1544
  716POPI   PO4 7998  15.467   5.170   6.406  0.3136 -0.0035  0.4063
  716POPI   GL1 7999  15.754   5.089   6.763  0.1347  0.0687 -0.3739
  716POPI   GL2 8000  15.680   4.758   6.715 -0.2634  0.0993  0.2048
  716POPI   C1A 8001  16.033   5.088   7.066 -0.1647 -0.0760 -0.1293
  716POPI   D2A 8002  16.166   5.269   7.402  0.0072 -0.0493  0.0389
  716POPI   C3A 8003  16.125   5.145   7.763 -0.0904  0.3661 -0.0551
  716POPI   C4A 8004  16.387   4.989   8.054 -0.3917 -0.1137  0.1049
  716POPI   C1B 8005  15.678   4.816   7.202 -0.0671  0.2825  0.1601
  716POPI   C2B 8006  15.694   4.930   7.567 -0.1503 -0.3098 -0.1775
  716POPI   C3B 8007  15.822   4.673   7.974  0.0560 -0.1577 -0.4788
  716POPI   C4B 8008  15.941   4.879   8.369  0.0967  0.0210 -0.0881
  717POPI    C1 8009   2.285   6.256   6.491  0.0811  0.2001 -0.1242
  717POPI    C2 8010   2.565   6.132   6.233  0.1549  0.0428  0.0291
  717POPI    C3 8011   2.259   6.356   6.105  0.2398  0.0427 -0.1769
  717POPI   PO4 8012   2.213   6.050   6.700  0.2807  0.0721 -0.0916
  717POPI   GL1 8013   2.321   5.847   7.046  0.0685 -0.2051 -0.0413
  717POPI   GL2 8014   2.693   5.891   7.000 -0.0223 -0.1204 -0.1622
  717POPI   C1A 8015   2.155   5.852   7.450 -0.2631 -0.0553  0.0254
  717POPI   D2A 8016   2.101   5.929   7.832 -0.0043  0.2856 -0.2947
  717POPI   C3A 8017   1.875   5.723   8.039  0.0241  0.3408  0.0805
  717POPI   C4A 8018   1.971   5.343   8.041 -0.1311 -0.0633  0.1525
  717POPI   C1B 8019   2.673   5.839   7.401 -0.0998 -0.1939  0.0625
  717POPI   C2B 8020   2.699   5.925   7.785 -0.2199  0.3380 -0.0994
  717POPI   C3B 8021   2.941   5.950   8.266  0.2593  0.2356  0.0665
  717POPI   C4B 8022   2.986   5.906   8.747 -0.0606  0.2786  0.2226
  718POPI    C1 8023   2.563  11.715   5.819 -0.1176 -0.2762 -0.2173
  718POPI    C2 8024   2.857  11.878   5.604 -0.1290  0.0549  0.0101
  718POPI    C3 8025   2.674  11.548   5.474  0.1885 -0.0265 -0.2444
  718POPI   PO4 8026   2.619  11.694   6.098 -0.2281 -0.3855  0.0471
  718POPI   GL1 8027   2.392  11.891   6.307  0.0063  0.1390 -0.2049
  718POPI   GL2 8028   2.321  11.561   6.487 -0.1319  0.1658 -0.4165
  718POPI   C1A 8029   2.472  12.236   6.596 -0.1886  0.2755 -0.0618
  718POPI   D2A 8030   2.596  12.667   6.760  0.1553  0.0464  0.2212
  718POPI   C3A 8031   2.691  12.730   7.157  0.2998 -0.2481 -0.0227
  718POPI   C4A 8032   2.941  13.080   7.329  0.0612  0.1770 -0.2767
  718POPI   C1B 8033   2.395  11.792   6.873  0.1352 -0.2898  0.0897
  718POPI   C2B 8034   2.324  12.219   7.097 -0.1110 -0.1237 -0.0788
  718POPI   C3B 8035   2.092  12.282   7.340  0.0101  0.2258 -0.3073
  718POPI   C4B 8036   1.932  12.403   7.712  0.1847  0.1059  0.1929
  719POPI    C1 8037   5.426  15.445   5.817 -0.0959 -0.0457  0.1771
  719POPI    C2 8038   5.466  15.807   5.654 -0.0064 -0.1062  0.0638
  719POPI    C3 8039   5.763  15.541   5.625 -0.1246 -0.2353  0.0290
  719POPI   PO4 8040   5.338  15.529   6.104 -0.0021 -0.0970 -0.1167
  719POPI   GL1 8041   5.185  15.745   6.419  0.0031 -0.1411  0.2012
  719POPI   GL2 8042   5.477  15.729   6.549  0.2395  0.0933 -0.4208
  719POPI   C1A 8043   5.063  15.936   6.815  0.4349 -0.2418 -0.4058
  719POPI   D2A 8044   4.762  16.269   7.017  0.1969 -0.1659  0.0613
  719POPI   C3A 8045   4.683  16.268   7.434 -0.1404 -0.0837  0.0077
  719POPI   C4A 8046   4.429  16.530   7.693  0.2066  0.1230 -0.3041
  719POPI   C1B 8047   5.560  15.909   6.946  0.1250 -0.0646 -0.4192
  719POPI   C2B 8048   5.457  15.907   7.350  0.2054 -0.1062  0.0944
  719POPI   C3B 8049   5.310  15.767   7.808 -0.2729  0.0844 -0.1595
  719POPI   C4B 8050   5.098  15.652   8.170 -0.0026 -0.1665 -0.0384
  720POPI    C1 8051   0.764  14.047   5.720  0.0321  0.0073 -0.1501
  720POPI    C2 8052   0.513  14.356   5.756  0.1969  0.1282 -0.0292
  720POPI    C3 8053   0.603  14.213   5.394  0.0373  0.1527 -0.0791
  720POPI   PO4 8054   0.962  14.132   5.826  0.2224 -0.1513 -0.0094
  720POPI   GL1 8055   1.373  14.136   6.044  0.0165  0.0621  0.0736
  720POPI   GL2 8056   1.504  14.428   6.035 -0.1071  0.2142 -0.3889
  720POPI   C1A 8057   1.604  14.078   6.367 -0.0806  0.1084  0.3341
  720POPI   D2A 8058   1.909  14.147   6.692 -0.2132 -0.1083 -0.0292
  720POPI   C3A 8059   1.947  14.524   6.649  0.2176  0.0441  0.1916
  720POPI   C4A 8060   1.800  14.773   6.319 -0.1447 -0.0402 -0.1878
  720POPI   C1B 8061   1.401  14.531   6.440  0.1288 -0.0894 -0.2310
  720POPI   C2B 8062   1.477  14.634   6.891 -0.0895 -0.1400 -0.0032
  720POPI   C3B 8063   1.429  14.630   7.341  0.0254 -0.0444  0.0981
  720POPI   C4B 8064   1.296  14.619   7.721 -0.0879 -0.2367  0.1297
  721POPI    C1 8065   5.696   9.212   6.212 -0.0637 -0.0009  0.1915
  721POPI    C2 8066   6.000   9.472   6.229  0.1899 -0.2977  0.2813
  721POPI    C3 8067   6.009   9.170   5.966 -0.2294 -0.0650 -0.0112
  721POPI   PO4 8068   5.654   9.128   6.582 -0.0278  0.0339  0.1537
  721POPI   GL1 8069   5.537   9.148   7.038  0.4162  0.1822 -0.1428
  721POPI   GL2 8070   5.553   9.508   7.095  0.0182 -0.2356  0.2088
  721POPI   C1A 8071   5.376   8.827   7.306  0.1605 -0.0947 -0.1471
  721POPI   D2A 8072   5.097   8.464   7.344  0.0002  0.0271 -0.0408
  721POPI   C3A 8073   5.173   8.392   7.791  0.3183  0.0808 -0.0715
  721POPI   C4A 8074   5.075   8.214   8.163  0.1601  0.3563 -0.0138
  721POPI   C1B 8075   5.340   9.344   7.443 -0.0917  0.0063  0.2212
  721POPI   C2B 8076   5.264   9.334   7.897  0.0351  0.2050  0.0413
  721POPI   C3B 8077   5.232   9.185   8.306  0.1419  0.0690  0.2237
  721POPI   C4B 8078   4.991   9.156   8.703 -0.0704  0.1198 -0.1444
  722POPI    C1 8079  12.095  14.934   6.485 -0.1742  0.1568  0.0242
  722POPI    C2 8080  12.194  14.616   6.264 -0.0904  0.0764  0.1758
  722POPI    C3 8081  11.815  14.667   6.383 -0.1627  0.1904 -0.0964
  722POPI   PO4 8082  12.212  14.953   6.670  0.3689 -0.1921 -0.1460
  722POPI   GL1 8083  12.205  15.107   7.138 -0.0173 -0.2060 -0.2859
  722POPI   GL2 8084  12.326  14.779   7.097  0.0505  0.2504  0.0738
  722POPI   C1A 8085  12.289  15.151   7.482  0.1139  0.1121 -0.2065
  722POPI   D2A 8086  12.306  15.113   7.886 -0.0161  0.1428 -0.0302
  722POPI   C3A 8087  12.543  15.213   8.193 -0.0055 -0.2206 -0.1533
  722POPI   C4A 8088  12.875  15.177   8.425 -0.0517 -0.0445 -0.1004
  722POPI   C1B 8089  12.281  14.675   7.571 -0.0870  0.4356 -0.2521
  722POPI   C2B 8090  12.152  14.374   7.859  0.0234  0.1455 -0.2629
  722POPI   C3B 8091  12.043  14.328   8.211  0.0534  0.1913 -0.2878
  722POPI   C4B 8092  12.096  14.543   8.661  0.2166 -0.1641 -0.0103
  723POPI    C1 8093  15.972  16.752   5.987  0.0764  0.2081  0.0752
  723POPI    C2 8094  15.984  17.067   6.234 -0.2493  0.3533 -0.0876
  723POPI    C3 8095  16.161  17.086   5.876  0.1661  0.1662  0.1009
  723POPI   PO4 8096  16.037  16.571   6.082 -0.1154 -0.3283 -0.0645
  723POPI   GL1 8097  15.981  16.671   6.567 -0.0696  0.1781 -0.0596
  723POPI   GL2 8098  15.812  16.781   6.738  0.0775  0.2400 -0.0870
  723POPI   C1A 8099  16.304  16.577   6.865 -0.2509  0.3134  0.1989
  723POPI   D2A 8100  16.325  16.631   7.306  0.0743 -0.0536 -0.0646
  723POPI   C3A 8101  16.576  16.605   7.599  0.0210 -0.0783  0.1952
  723POPI   C4A 8102  16.668  16.200   7.883 -0.3525  0.5370 -0.1373
  723POPI   C1B 8103  15.827  16.638   7.112  0.2292  0.3796 -0.3598
  723POPI   C2B 8104  15.943  16.688   7.583  0.1186 -0.3748  0.1643
  723POPI   C3B 8105  16.147  16.851   7.884 -0.1139  0.0211 -0.1701
  723POPI   C4B 8106  15.920  16.701   8.313  0.1885 -0.0555  0.2102
  724POPI    C1 8107  10.208   8.811   6.386 -0.1994  0.1355 -0.2204
  724POPI    C2 8108  10.573   8.872   6.234 -0.0428  0.1468  0.1491
  724POPI    C3 8109  10.249   8.936   6.008  0.1794  0.2118 -0.1582
  724POPI   PO4 8110  10.285   8.811   6.728  0.2589  0.1557  0.2077
  724POPI   GL1 8111  10.492   9.003   6.998 -0.1435 -0.2002  0.1805
  724POPI   GL2 8112  10.476   9.269   6.990  0.0635  0.0047 -0.0125
  724POPI   C1A 8113  10.725   9.070   7.424  0.0683  0.0981 -0.0131
  724POPI   D2A 8114  10.899   8.910   7.796  0.0993  0.0773  0.1051
  724POPI   C3A 8115  10.782   8.760   8.176 -0.0129  0.0099 -0.2101
  724POPI   C4A 8116  10.889   8.460   8.532  0.1886  0.2214 -0.1020
  724POPI   C1B 8117  10.575   9.497   7.260 -0.1196 -0.1078 -0.1301
  724POPI   C2B 8118  10.526   9.622   7.663  0.2370  0.2059 -0.3065
  724POPI   C3B 8119  10.566   9.622   8.124 -0.0500  0.0726 -0.1246
  724POPI   C4B 8120  10.562   9.379   8.487  0.2383  0.1173  0.0760
  725POPI    C1 8121  16.942  11.783   6.193 -0.0353 -0.1923 -0.2099
  725POPI    C2 8122  16.551  11.850   6.142  0.0326  0.2772 -0.1578
  725POPI    C3 8123  16.813  11.977   5.868  0.1532 -0.0230 -0.1853
  725POPI   PO4 8124  16.998  11.795   6.489  0.1197  0.2006  0.0496
  725POPI   GL1 8125  17.132  11.905   6.796 -0.2014  0.2574  0.1144
  725POPI   GL2 8126  17.057  12.200   6.778 -0.1129 -0.1715 -0.3160
  725POPI   C1A 8127  17.413  11.944   7.120  0.0592 -0.3534  0.1315
  725POPI   D2A 8128  17.440  11.931   7.589  0.2423 -0.1830  0.1420
  725POPI   C3A 8129  17.558  11.753   7.961  0.0602  0.0585 -0.1156
  725POPI   C4A 8130  17.601  11.716   8.360 -0.1834 -0.1731  0.1206
  725POPI   C1B 8131  16.928  12.168   7.242 -0.0159 -0.0511  0.0093
  725POPI   C2B 8132  16.968  12.017   7.668 -0.2979  0.1279  0.2228
  725POPI   C3B 8133  17.024  11.709   8.022 -0.3076 -0.2375  0.2671
  725POPI   C4B 8134  17.108  11.638   8.465  0.0502 -0.0052 -0.0751
  726POPI    C1 8135  12.593   3.835   6.259  0.0336  0.0055 -0.2698
  726POPI    C2 8136  12.634   4.219   6.363  0.2006 -0.0495 -0.1290
  726POPI    C3 8137  12.762   3.930   6.609 -0.1204 -0.2022 -0.1368
  726POPI   PO4 8138  12.245   3.836   6.231  0.2519 -0.1061 -0.0369
  726POPI   GL1 8139  11.812   4.035   6.462  0.0718  0.2783  0.0184
  726POPI   GL2 8140  11.804   3.692   6.545  0.1145 -0.0303 -0.1737
  726POPI   C1A 8141  11.589   4.109   6.867  0.3010 -0.0767  0.1300
  726POPI   D2A 8142  11.438   4.123   7.261 -0.1332 -0.1324 -0.1902
  726POPI   C3A 8143  11.467   4.102   7.716  0.0346  0.0230  0.0484
  726POPI   C4A 8144  11.756   4.103   8.013  0.0926  0.0617  0.2649
  726POPI   C1B 8145  11.642   3.555   6.934 -0.0352  0.1581 -0.1868
  726POPI   C2B 8146  11.640   3.683   7.324 -0.1931 -0.0640 -0.2884
  726POPI   C3B 8147  11.688   3.654   7.823 -0.0787  0.3418  0.0080
  726POPI   C4B 8148  11.925   3.736   8.254  0.1915 -0.1644  0.0512
  727POPI    C1 8149   1.254   5.632   5.782  0.0481 -0.1059  0.0872
  727POPI    C2 8150   1.470   5.952   5.889  0.0134 -0.0758  0.0676
  727POPI    C3 8151   1.089   5.996   5.776 -0.0200 -0.1355  0.1551
  727POPI   PO4 8152   1.243   5.436   5.985  0.1079 -0.0992 -0.0061
  727POPI   GL1 8153   1.115   5.367   6.455 -0.1266  0.2699 -0.2175
  727POPI   GL2 8154   1.413   5.299   6.539 -0.2487  0.0487 -0.0856
  727POPI   C1A 8155   1.197   5.071   6.878  0.2332  0.2084 -0.0597
  727POPI   D2A 8156   1.341   4.787   7.200 -0.0207 -0.1584  0.4496
  727POPI   C3A 8157   1.337   4.748   7.580 -0.2425 -0.4704  0.1883
  727POPI   C4A 8158   1.212   4.829   7.981 -0.0996  0.0113 -0.2123
  727POPI   C1B 8159   1.317   5.627   6.835  0.1715  0.1581  0.2309
  727POPI   C2B 8160   1.175   5.810   7.161  0.1741 -0.1712 -0.0165
  727POPI   C3B 8161   1.082   5.683   7.605  0.0013  0.4173  0.0915
  727POPI   C4B 8162   0.761   5.350   7.770  0.0239  0.3260 -0.3233
  728POPI    C1 8163   9.433  15.076   6.570  0.0382 -0.1314 -0.0203
  728POPI    C2 8164   9.436  15.458   6.453  0.1733 -0.1321 -0.0208
  728POPI    C3 8165   9.207  15.192   6.262 -0.0510 -0.0189  0.0868
  728POPI   PO4 8166   9.446  15.236   6.907 -0.1597  0.3918 -0.0352
  728POPI   GL1 8167   9.567  15.646   7.204 -0.3930 -0.5562  0.0693
  728POPI   GL2 8168   9.309  15.691   7.239  0.0223  0.3286 -0.2888
  728POPI   C1A 8169   9.646  15.498   7.595 -0.1632 -0.3718 -0.1730
  728POPI   D2A 8170   9.597  15.416   7.987  0.0092  0.0185 -0.0560
  728POPI   C3A 8171   9.732  15.289   8.354  0.0798 -0.0488  0.0352
  728POPI   C4A 8172   9.864  15.228   8.818  0.1226  0.3229 -0.2482
  728POPI   C1B 8173   9.252  15.713   7.674 -0.0361 -0.0117 -0.1108
  728POPI   C2B 8174   9.291  15.774   8.042  0.0930  0.0264 -0.0239
  728POPI   C3B 8175   9.111  15.674   8.421 -0.0073 -0.1408  0.2916
  728POPI   C4B 8176   8.628  15.610   8.562  0.1150  0.2424 -0.1670
  729POPI    C1 8177  11.550  10.453   6.581 -0.0708 -0.0179  0.1490
  729POPI    C2 8178  11.434  10.083   6.485 -0.0341 -0.0088  0.0690
  729POPI    C3 8179  11.755  10.244   6.309 -0.1085  0.0985  0.0298
  729POPI   PO4 8180  11.533  10.463   6.866 -0.0751 -0.1467 -0.0817
  729POPI   GL1 8181  11.761  10.264   7.201  0.0861 -0.2285  0.1754
  729POPI   GL2 8182  12.100  10.453   7.300 -0.5345  0.1191 -0.3727
  729POPI   C1A 8183  11.507  10.088   7.486  0.1237 -0.2852  0.1221
  729POPI   D2A 8184  11.348   9.982   7.876 -0.3980  0.0143  0.0585
  729POPI   C3A 8185  10.888  10.034   7.944  0.2511 -0.1332 -0.1461
  729POPI   C4A 8186  10.593  10.149   8.137  0.0792 -0.0024 -0.0144
  729POPI   C1B 8187  12.147  10.466   7.776 -0.0031 -0.1052  0.1772
  729POPI   C2B 8188  12.427  10.126   7.892  0.0627  0.2095 -0.0269
  729POPI   C3B 8189  12.708   9.994   8.263 -0.0978  0.0481  0.3022
  729POPI   C4B 8190  12.533   9.740   8.647  0.2040  0.0443 -0.1060
  730POPI    C1 8191   7.117   1.137   5.409 -0.1825  0.0845  0.0053
  730POPI    C2 8192   7.100   1.282   5.037 -0.2321  0.1075  0.0164
  730POPI    C3 8193   6.987   0.905   5.109 -0.0906  0.0586 -0.0146
  730POPI   PO4 8194   7.034   1.287   5.637  0.2448  0.0090  0.2591
  730POPI   GL1 8195   6.768   1.187   5.998  0.0277 -0.0915 -0.0625
  730POPI   GL2 8196   6.970   1.535   6.112 -0.3064 -0.1174 -0.2676
  730POPI   C1A 8197   6.873   1.072   6.372 -0.2014 -0.0259  0.0880
  730POPI   D2A 8198   7.162   0.930   6.676 -0.0280  0.1918  0.2478
  730POPI   C3A 8199   7.468   1.148   6.949 -0.1725  0.1007  0.2865
  730POPI   C4A 8200   7.578   1.105   7.367 -0.0343  0.0869 -0.1253
  730POPI   C1B 8201   7.188   1.819   6.402  0.0525 -0.1052 -0.0945
  730POPI   C2B 8202   7.323   1.967   6.838 -0.0779  0.3818  0.2176
  730POPI   C3B 8203   7.341   1.968   7.271  0.1768 -0.1401  0.2743
  730POPI   C4B 8204   7.148   1.923   7.627 -0.0699 -0.2758 -0.0423
  731POPI    C1 8205   6.036  11.105   6.545 -0.2618  0.0106 -0.1312
  731POPI    C2 8206   6.167  10.854   6.262 -0.1602 -0.2114  0.1084
  731POPI    C3 8207   5.997  11.201   6.158  0.3924 -0.0253 -0.2173
  731POPI   PO4 8208   5.894  10.933   6.695 -0.1204  0.0507  0.3903
  731POPI   GL1 8209   5.811  10.704   7.028 -0.0466 -0.1900 -0.0830
  731POPI   GL2 8210   6.008  10.447   7.253  0.2969  0.0493 -0.0936
  731POPI   C1A 8211   5.780  10.996   7.416 -0.0788  0.1837  0.0195
  731POPI   D2A 8212   5.698  11.022   7.815 -0.2196  0.0698  0.2106
  731POPI   C3A 8213   6.025  11.255   8.116  0.1099 -0.2844  0.0033
  731POPI   C4A 8214   6.240  11.618   8.171 -0.1062 -0.1926 -0.0164
  731POPI   C1B 8215   5.910  10.553   7.651  0.3583 -0.0552 -0.2437
  731POPI   C2B 8216   5.865  10.546   8.033 -0.0178  0.0877  0.2848
  731POPI   C3B 8217   5.795  10.381   8.448  0.0641  0.2839  0.0425
  731POPI   C4B 8218   5.980  10.071   8.844  0.0021  0.0121 -0.0498
  732POPI    C1 8219   8.125   0.674   6.088  0.0547  0.0304 -0.1696
  732POPI    C2 8220   8.486   0.830   6.159  0.1068 -0.1550 -0.0180
  732POPI    C3 8221   8.437   0.567   5.862  0.0618 -0.0074 -0.1421
  732POPI   PO4 8222   7.913   1.000   6.036 -0.0665 -0.0615  0.0288
  732POPI   GL1 8223   7.590   0.953   6.351 -0.2112 -0.1135  0.2185
  732POPI   GL2 8224   7.780   0.767   6.498  0.0341 -0.2576 -0.2140
  732POPI   C1A 8225   7.486   1.347   6.422 -0.4998  0.1385  0.2307
  732POPI   D2A 8226   7.610   1.613   6.657 -0.3436  0.2663 -0.0394
  732POPI   C3A 8227   7.577   1.563   7.065 -0.0082  0.0139  0.0443
  732POPI   C4A 8228   7.522   1.594   7.532 -0.1382  0.1280  0.3320
  732POPI   C1B 8229   7.886   0.814   6.908  0.0430 -0.0930  0.1794
  732POPI   C2B 8230   8.070   0.698   7.297  0.0387  0.1689  0.3240
  732POPI   C3B 8231   8.057   0.437   7.756 -0.1320  0.2806  0.0901
  732POPI   C4B 8232   8.045  -0.039   7.952 -0.3077  0.2402 -0.2422
  733POPI    C1 8233   0.211   4.558   6.187  0.0735 -0.0431 -0.1974
  733POPI    C2 8234   0.326   4.392   5.842  0.0429 -0.1945 -0.1360
  733POPI    C3 8235   0.541   4.332   6.174  0.2378  0.1923 -0.1851
  733POPI   PO4 8236  -0.012   4.551   6.160 -0.1884  0.1832 -0.1205
  733POPI   GL1 8237  -0.200   4.514   6.567 -0.0107  0.1240 -0.2556
  733POPI   GL2 8238   0.082   4.693   6.691 -0.0678 -0.0519  0.1208
  733POPI   C1A 8239  -0.622   4.589   6.837 -0.2605  0.1166 -0.1358
  733POPI   D2A 8240  -0.912   4.537   7.102 -0.0258 -0.1873 -0.1911
  733POPI   C3A 8241  -0.987   4.421   7.538 -0.0266 -0.2288 -0.5352
  733POPI   C4A 8242  -0.994   4.268   7.922  0.0080 -0.1127 -0.2091
  733POPI   C1B 8243  -0.209   4.693   7.089  0.1577 -0.0025 -0.2252
  733POPI   C2B 8244  -0.164   4.741   7.416  0.0544 -0.0283  0.2003
  733POPI   C3B 8245  -0.188   4.938   7.869  0.0812  0.0269 -0.1410
  733POPI   C4B 8246  -0.197   4.915   8.274 -0.1736  0.0933 -0.1012
  734POPI    C1 8247  16.840  13.767   6.617  0.1001  0.1951 -0.1099
  734POPI    C2 8248  16.638  13.746   6.272 -0.0754 -0.1121  0.0078
  734POPI    C3 8249  17.008  13.596   6.296 -0.1168 -0.2186 -0.0107
  734POPI   PO4 8250  16.679  14.108   6.619 -0.0431  0.1956  0.1092
  734POPI   GL1 8251  16.932  14.355   6.729  0.4358  0.0358 -0.2681
  734POPI   GL2 8252  16.927  14.199   7.067 -0.0140 -0.1551  0.0935
  734POPI   C1A 8253  17.290  14.583   6.851 -0.0292 -0.1344  0.0883
  734POPI   D2A 8254  17.253  14.530   7.272 -0.3252 -0.2217 -0.0898
  734POPI   C3A 8255  17.513  14.410   7.561 -0.0256  0.2313  0.1122
  734POPI   C4A 8256  17.557  14.221   7.902 -0.0862  0.0794 -0.0579
  734POPI   C1B 8257  16.968  13.761   7.222 -0.0890 -0.1918  0.0178
  734POPI   C2B 8258  16.924  13.685   7.731 -0.0327  0.1058 -0.1675
  734POPI   C3B 8259  16.813  13.522   8.059 -0.1255  0.1394  0.1177
  734POPI   C4B 8260  16.697  13.324   8.404 -0.2912  0.0961  0.0850
  735POPI    C1 8261  15.804   4.847   6.215  0.0890  0.0771  0.1061
  735POPI    C2 8262  15.909   4.565   5.951  0.1808  0.2599 -0.0556
  735POPI    C3 8263  15.522   4.645   6.015  0.1468 -0.0540  0.1559
  735POPI   PO4 8264  16.087   4.799   6.446  0.0074 -0.0245 -0.1418
  735POPI   GL1 8265  16.437   4.614   6.625  0.0625  0.1902  0.0528
  735POPI   GL2 8266  16.676   4.339   6.759 -0.1175 -0.2227  0.1823
  735POPI   C1A 8267  16.165   4.511   6.975  0.0079 -0.0671 -0.2338
  735POPI   D2A 8268  16.238   4.760   7.349 -0.0083  0.0261  0.1129
  735POPI   C3A 8269  16.287   4.623   7.780  0.0837 -0.2437  0.0702
  735POPI   C4A 8270  16.582   4.551   8.119 -0.1494  0.2382 -0.2365
  735POPI   C1B 8271  16.619   4.408   7.118 -0.0608  0.0455 -0.0639
  735POPI   C2B 8272  16.561   4.242   7.532  0.0401 -0.3963  0.3462
  735POPI   C3B 8273  16.531   4.080   7.907  0.0923 -0.0207  0.2008
  735POPI   C4B 8274  16.189   3.896   8.127 -0.2164  0.0701 -0.1345
  736POPI    C1 8275   8.961  12.753   6.838 -0.0400 -0.2868  0.1338
  736POPI    C2 8276   8.836  12.424   6.647 -0.1538 -0.0359 -0.2358
  736POPI    C3 8277   9.225  12.519   6.649 -0.1061 -0.2248 -0.0373
  736POPI   PO4 8278   8.876  12.740   7.031 -0.0075  0.0043  0.0113
  736POPI   GL1 8279   9.034  12.875   7.433  0.1613  0.1259 -0.0021
  736POPI   GL2 8280   8.796  13.175   7.402  0.0351  0.1387 -0.0033
  736POPI   C1A 8281   9.178  12.679   7.881  0.1856 -0.1727 -0.0120
  736POPI   D2A 8282   9.451  12.352   8.056 -0.1805 -0.1244  0.2220
  736POPI   C3A 8283   9.552  12.011   8.194  0.0089 -0.2197 -0.3360
  736POPI   C4A 8284   9.733  11.503   8.173  0.1402  0.3156 -0.1414
  736POPI   C1B 8285   8.733  13.115   7.890 -0.3721  0.0820 -0.1439
  736POPI   C2B 8286   8.637  13.214   8.330 -0.0725  0.0532 -0.0580
  736POPI   C3B 8287   8.469  13.076   8.727 -0.0502  0.1357  0.1400
  736POPI   C4B 8288   8.442  12.886   9.091  0.2011  0.1339  0.1584
  737POPI    C1 8289  17.554  16.275   5.503  0.1175  0.0318 -0.1066
  737POPI    C2 8290  17.323  16.516   5.284  0.2842  0.1211 -0.1864
  737POPI    C3 8291  17.157  16.268   5.550  0.1059  0.2665 -0.1600
  737POPI   PO4 8292  17.733  16.410   5.662 -0.3156  0.0547  0.0622
  737POPI   GL1 8293  17.722  16.472   6.132 -0.2922 -0.1831 -0.0176
  737POPI   GL2 8294  18.052  16.582   6.294 -0.2189 -0.2954 -0.2700
  737POPI   C1A 8295  17.640  16.437   6.615  0.3245 -0.1333  0.0204
  737POPI   D2A 8296  17.382  16.433   6.933 -0.2825  0.0099  0.2189
  737POPI   C3A 8297  17.481  16.452   7.333  0.0040 -0.0950  0.2114
  737POPI   C4A 8298  17.518  16.480   7.743  0.1408 -0.1460  0.2073
  737POPI   C1B 8299  18.427  16.495   6.588  0.1498  0.0210  0.1175
  737POPI   C2B 8300  18.389  16.557   6.967  0.2479 -0.0814 -0.1101
  737POPI   C3B 8301  18.341  16.707   7.421  0.0982 -0.2732 -0.2626
  737POPI   C4B 8302  18.567  16.660   7.820 -0.1654  0.0341  0.1994
  738POPI    C1 8303  12.301   2.580   6.236 -0.1249  0.0956 -0.0048
  738POPI    C2 8304  12.039   2.445   5.966  0.0900 -0.2056 -0.0684
  738POPI    C3 8305  12.414   2.529   5.855  0.0232  0.2356  0.0190
  738POPI   PO4 8306  12.184   2.451   6.426 -0.2480  0.2073 -0.0861
  738POPI   GL1 8307  12.350   2.502   6.816  0.3315 -0.2758  0.1424
  738POPI   GL2 8308  12.349   2.646   7.148  0.0035 -0.1335  0.2743
  738POPI   C1A 8309  12.391   2.178   7.049 -0.1017 -0.1153 -0.1246
  738POPI   D2A 8310  12.598   1.880   7.306  0.0574  0.1157 -0.1756
  738POPI   C3A 8311  12.566   1.946   7.620  0.2358 -0.1247 -0.0716
  738POPI   C4A 8312  12.672   2.219   8.000  0.1034 -0.0501  0.2017
  738POPI   C1B 8313  12.374   2.402   7.580  0.1284  0.0908 -0.0347
  738POPI   C2B 8314  12.227   2.629   7.917 -0.0006 -0.1526  0.0759
  738POPI   C3B 8315  12.355   3.052   8.197 -0.2928 -0.2159  0.1089
  738POPI   C4B 8316  12.734   3.248   8.201 -0.1978  0.2611  0.0942
  739POPS   CNO 8317  14.139   3.635   5.983  0.1165 -0.1403  0.0553
  739POPS   PO4 8318  14.326   3.620   6.289 -0.2608  0.1552  0.1126
  739POPS   GL1 8319  14.425   3.565   6.667  0.1267  0.0147 -0.0556
  739POPS   GL2 8320  14.508   3.785   6.842 -0.0968 -0.0106  0.1222
  739POPS   C1A 8321  14.453   3.350   7.177 -0.0240 -0.0255 -0.0562
  739POPS   D2A 8322  14.505   3.340   7.559  0.2631 -0.2016 -0.2765
  739POPS   C3A 8323  14.412   3.523   7.919  0.0407 -0.1698  0.1881
  739POPS   C4A 8324  14.069   3.519   8.225 -0.1179 -0.1557  0.0136
  739POPS   C1B 8325  14.386   3.891   7.221  0.0727 -0.2487  0.0372
  739POPS   C2B 8326  14.226   3.955   7.596  0.0432 -0.1435 -0.1944
  739POPS   C3B 8327  13.989   3.903   7.907  0.0143  0.2969  0.0736
  739POPS   C4B 8328  13.788   4.000   8.177  0.1068  0.2320 -0.1455
  740POPS   CNO 8329  15.946   7.341   5.861 -0.0400  0.1651  0.0949
  740POPS   PO4 8330  16.188   7.583   6.277 -0.2652 -0.1689  0.1450
  740POPS   GL1 8331  16.075   7.387   6.744  0.0351  0.0017  0.2464
  740POPS   GL2 8332  15.797   7.446   6.969  0.1546  0.0616 -0.1121
  740POPS   C1A 8333  16.238   7.224   7.161 -0.0212 -0.2216  0.1012
  740POPS   D2A 8334  16.416   7.224   7.608 -0.2715  0.2700  0.0520
  740POPS   C3A 8335  16.690   7.256   8.047 -0.3699  0.0712  0.0221
  740POPS   C4A 8336  16.705   7.440   8.421  0.0588 -0.0424  0.0843
  740POPS   C1B 8337  15.898   7.465   7.390  0.1473  0.0276  0.3361
  740POPS   C2B 8338  16.098   7.535   7.820  0.1025 -0.2748  0.0023
  740POPS   C3B 8339  16.090   7.725   8.265 -0.1350 -0.1891 -0.1768
  740POPS   C4B 8340  15.896   7.685   8.698  0.0463 -0.1248 -0.2088
  741POPS   CNO 8341  17.571   0.787   6.009  0.2347  0.3257  0.0712
  741POPS   PO4 8342  17.849   0.671   5.780  0.2744  0.1120 -0.0080
  741POPS   GL1 8343  17.918   0.445   6.132  0.3093  0.1217 -0.1742
  741POPS   GL2 8344  18.182   0.166   6.180 -0.2932  0.1442  0.0638
  741POPS   C1A 8345  17.871   0.444   6.525  0.1663 -0.0328  0.3036
  741POPS   D2A 8346  17.674   0.412   6.861  0.3085 -0.1597  0.0749
  741POPS   C3A 8347  17.947   0.261   7.207  0.5017  0.1259  0.2942
  741POPS   C4A 8348  18.250   0.435   7.354  0.0171  0.1524  0.1047
  741POPS   C1B 8349  18.558  -0.063   6.454  0.0634  0.1823 -0.2099
  741POPS   C2B 8350  18.905  -0.263   6.667 -0.2481 -0.0662 -0.1296
  741POPS   C3B 8351  18.891  -0.293   7.089 -0.1976 -0.1279  0.0882
  741POPS   C4B 8352  18.767  -0.298   7.569  0.2299  0.0324 -0.0362
  742POPS   CNO 8353   5.803   3.879   5.501 -0.0092 -0.2916 -0.3572
  742POPS   PO4 8354   5.983   3.764   5.926  0.1840  0.0845  0.0598
  742POPS   GL1 8355   6.088   4.048   6.215 -0.2616 -0.1496 -0.0028
  742POPS   GL2 8356   6.259   4.368   6.255  0.0025 -0.0026  0.1811
  742POPS   C1A 8357   6.080   3.975   6.586 -0.0957 -0.1023  0.1164
  742POPS   D2A 8358   5.962   3.748   6.860 -0.0646 -0.0404 -0.0449
  742POPS   C3A 8359   5.758   3.752   7.258  0.0892 -0.0224  0.3674
  742POPS   C4A 8360   5.736   3.597   7.643  0.0064 -0.1628  0.1990
  742POPS   C1B 8361   6.241   4.381   6.739  0.0825  0.0072  0.0577
  742POPS   C2B 8362   6.142   4.110   7.098  0.5250 -0.0029 -0.1476
  742POPS   C3B 8363   6.156   3.898   7.393 -0.0348 -0.0317 -0.3142
  742POPS   C4B 8364   5.960   4.092   7.638 -0.0889 -0.1727  0.1417
  743POPS   CNO 8365  15.252   4.101   5.733 -0.0309 -0.1413  0.0376
  743POPS   PO4 8366  15.080   4.252   6.102 -0.0039 -0.1459 -0.1498
  743POPS   GL1 8367  15.330   4.083   6.496 -0.0179 -0.0728 -0.0783
  743POPS   GL2 8368  15.339   4.430   6.684  0.0923 -0.1854  0.0825
  743POPS   C1A 8369  15.618   4.042   6.736  0.0958 -0.1218 -0.3662
  743POPS   D2A 8370  15.745   4.275   7.063 -0.0004 -0.0693 -0.2055
  743POPS   C3A 8371  15.857   4.315   7.393  0.1763  0.3506 -0.2017
  743POPS   C4A 8372  16.098   4.193   7.687  0.2278  0.1616  0.0685
  743POPS   C1B 8373  15.185   4.561   7.020 -0.1088 -0.3130  0.2332
  743POPS   C2B 8374  15.314   4.526   7.413 -0.0554  0.1923  0.1017
  743POPS   C3B 8375  15.334   4.534   7.870 -0.3688  0.1583  0.0830
  743POPS   C4B 8376  15.071   4.706   8.326 -0.2860 -0.5627 -0.1508
  744POPS   CNO 8377   9.874   5.486   5.254 -0.2646 -0.1139 -0.1569
  744POPS   PO4 8378   9.782   5.466   5.648 -0.0876  0.0712  0.1296
  744POPS   GL1 8379   9.794   5.374   6.080 -0.1665  0.0640 -0.2340
  744POPS   GL2 8380   9.765   5.159   6.210  0.0882 -0.0698 -0.0203
  744POPS   C1A 8381   9.771   5.749   6.428  0.0802  0.3681 -0.2009
  744POPS   D2A 8382   9.730   6.010   6.744  0.0391 -0.2278 -0.0117
  744POPS   C3A 8383   9.778   5.830   7.059  0.0754  0.2489  0.1142
  744POPS   C4A 8384   9.740   5.804   7.426  0.3391 -0.1431 -0.0271
  744POPS   C1B 8385   9.797   4.811   6.532 -0.0911  0.2499 -0.2545
  744POPS   C2B 8386   9.862   4.826   6.961 -0.0106  0.2615  0.4748
  744POPS   C3B 8387   9.663   4.754   7.310  0.1566  0.0526 -0.1797
  744POPS   C4B 8388   9.466   4.586   7.703  0.1162 -0.0358  0.3807
  745POPS   CNO 8389   7.645   4.486   5.914  0.3060  0.1821 -0.2711
  745POPS   PO4 8390   7.820   4.205   5.642 -0.1622  0.0531  0.2131
  745POPS   GL1 8391   7.717   3.940   5.894 -0.0707 -0.0090 -0.1083
  745POPS   GL2 8392   7.609   4.072   6.165 -0.0696  0.3596  0.4964
  745POPS   C1A 8393   7.961   3.688   6.218  0.0510 -0.2217 -0.0504
  745POPS   D2A 8394   8.074   3.835   6.607 -0.0319 -0.1445 -0.1018
  745POPS   C3A 8395   8.054   3.478   6.941 -0.1230 -0.2358 -0.1220
  745POPS   C4A 8396   8.171   3.285   7.351  0.1088 -0.0509  0.1147
  745POPS   C1B 8397   7.707   4.154   6.514 -0.0735  0.1095 -0.0896
  745POPS   C2B 8398   7.786   4.175   6.925 -0.2082  0.3722 -0.3203
  745POPS   C3B 8399   8.038   3.999   7.196 -0.0585  0.1879  0.3773
  745POPS   C4B 8400   7.917   3.694   7.545 -0.0351 -0.0568 -0.2668
  746POPS   CNO 8401  17.487   3.065   5.535  0.1471  0.1784  0.3236
  746POPS   PO4 8402  17.285   2.811   5.751 -0.1476  0.1174  0.1922
  746POPS   GL1 8403  17.326   2.913   6.232 -0.3738  0.2599 -0.0173
  746POPS   GL2 8404  17.522   2.709   6.408  0.1641  0.2963 -0.4501
  746POPS   C1A 8405  17.274   3.084   6.789  0.3334  0.0694  0.0264
  746POPS   D2A 8406  17.199   3.176   7.183 -0.0039  0.0222  0.0407
  746POPS   C3A 8407  17.040   2.947   7.497 -0.5320 -0.0102  0.2262
  746POPS   C4A 8408  17.082   2.880   7.894 -0.0216  0.1184  0.2051
  746POPS   C1B 8409  17.599   2.671   6.888  0.2905  0.3315 -0.1081
  746POPS   C2B 8410  17.923   2.627   7.244 -0.0099  0.0376 -0.1237
  746POPS   C3B 8411  17.855   2.450   7.687  0.1029 -0.1886  0.0735
  746POPS   C4B 8412  17.631   2.250   8.096  0.0232  0.0330 -0.0117
  747POPS   CNO 8413   1.423  11.934   5.697 -0.3247  0.0522 -0.1738
  747POPS   PO4 8414   1.694  11.656   5.782  0.1641  0.3006  0.1255
  747POPS   GL1 8415   1.716  11.983   6.120  0.1066  0.1510  0.2203
  747POPS   GL2 8416   1.894  11.761   6.312  0.0055 -0.2965 -0.2526
  747POPS   C1A 8417   1.550  12.090   6.568  0.1704  0.0973  0.0288
  747POPS   D2A 8418   1.581  12.193   6.982  0.2380 -0.0255 -0.3235
  747POPS   C3A 8419   1.587  12.115   7.475 -0.2554  0.2819 -0.1361
  747POPS   C4A 8420   1.627  12.069   7.933 -0.1545  0.3696 -0.1275
  747POPS   C1B 8421   1.896  11.761   6.739  0.1562 -0.1317  0.1566
  747POPS   C2B 8422   1.843  11.834   7.141 -0.0521  0.0715 -0.1573
  747POPS   C3B 8423   1.732  11.642   7.437 -0.4040 -0.2079  0.1927
  747POPS   C4B 8424   1.675  11.469   7.864  0.1238 -0.0384  0.0975
  748POPS   CNO 8425   7.770   6.284   5.942  0.0139 -0.0215 -0.0170
  748POPS   PO4 8426   7.406   6.522   6.040 -0.2147  0.2433  0.1576
  748POPS   GL1 8427   7.257   6.435   6.400  0.0756  0.0627  0.0845
  748POPS   GL2 8428   7.563   6.532   6.596 -0.1794  0.0574  0.0011
  748POPS   C1A 8429   7.292   6.152   6.744 -0.0410 -0.1122  0.1912
  748POPS   D2A 8430   7.684   5.948   6.908 -0.0523  0.2474 -0.1222
  748POPS   C3A 8431   7.710   5.934   7.295 -0.0766  0.0559 -0.2368
  748POPS   C4A 8432   7.714   6.311   7.614  0.1400 -0.1935 -0.0541
  748POPS   C1B 8433   7.861   6.400   6.795  0.0601 -0.2485 -0.1599
  748POPS   C2B 8434   8.012   6.358   7.207  0.0042  0.1145 -0.1572
  748POPS   C3B 8435   8.324   6.085   7.432 -0.0338 -0.0364 -0.0512
  748POPS   C4B 8436   8.739   5.837   7.296 -0.1295  0.1837 -0.0296
  749POPS   CNO 8437  12.620  12.324   6.628  0.1597  0.2346 -0.1014
  749POPS   PO4 8438  12.172  12.179   6.831 -0.1136  0.0224 -0.3673
  749POPS   GL1 8439  12.091  12.300   7.181 -0.3545  0.2475  0.0663
  749POPS   GL2 8440  12.291  12.598   7.399  0.2121  0.2500 -0.0399
  749POPS   C1A 8441  12.130  12.175   7.621  0.0327  0.0746 -0.1799
  749POPS   D2A 8442  11.924  11.992   8.077 -0.1027  0.1592  0.1219
  749POPS   C3A 8443  11.732  11.922   8.510 -0.2554 -0.1797  0.0580
  749POPS   C4A 8444  11.519  11.563   8.300 -0.1305 -0.1608  0.0257
  749POPS   C1B 8445  12.360  12.546   7.851 -0.0294 -0.0127 -0.2729
  749POPS   C2B 8446  12.618  12.362   8.225  0.1035 -0.1755  0.0057
  749POPS   C3B 8447  12.616  12.029   8.587 -0.0527 -0.0415 -0.0954
  749POPS   C4B 8448  12.719  11.895   9.094  0.0764  0.1208 -0.0758
  750POPS   CNO 8449  15.064  10.234   6.674  0.0269 -0.2633 -0.0663
  750POPS   PO4 8450  15.474  10.125   6.652  0.2212 -0.0875  0.1681
  750POPS   GL1 8451  15.424   9.848   6.926  0.2284 -0.0687 -0.1493
  750POPS   GL2 8452  15.134   9.940   7.058 -0.0566 -0.1829  0.3215
  750POPS   C1A 8453  15.769   9.690   7.217  0.1137 -0.3047  0.1913
  750POPS   D2A 8454  15.806   9.698   7.629  0.0062  0.0082  0.1465
  750POPS   C3A 8455  15.831   9.608   7.990 -0.1044  0.1423  0.0082
  750POPS   C4A 8456  15.613   9.643   8.458 -0.0737  0.0034 -0.1462
  750POPS   C1B 8457  15.363   9.995   7.410  0.0344  0.0170  0.0135
  750POPS   C2B 8458  15.388   9.933   7.723 -0.0005  0.2183  0.3361
  750POPS   C3B 8459  15.454  10.008   8.146 -0.0232  0.1157  0.1357
  750POPS   C4B 8460  15.238  10.045   8.504 -0.2240  0.1115 -0.2666
  751POPS   CNO 8461  14.636   6.853   5.978  0.1485 -0.1405  0.3378
  751POPS   PO4 8462  14.450   6.655   6.227 -0.0170 -0.1580 -0.0007
  751POPS   GL1 8463  14.690   6.498   6.665  0.1590 -0.0076  0.1815
  751POPS   GL2 8464  14.672   6.726   6.803  0.1104 -0.1397  0.1879
  751POPS   C1A 8465  14.605   6.318   7.091  0.1160 -0.2516  0.1472
  751POPS   D2A 8466  14.874   6.241   7.454  0.0193 -0.3167 -0.1572
  751POPS   C3A 8467  14.757   5.991   7.755 -0.1499  0.0750  0.1592
  751POPS   C4A 8468  15.007   6.003   8.150 -0.2903 -0.0989 -0.0662
  751POPS   C1B 8469  14.632   6.789   7.140 -0.2130  0.1148 -0.2321
  751POPS   C2B 8470  14.582   6.665   7.559 -0.1591 -0.3182 -0.2449
  751POPS   C3B 8471  14.588   6.473   7.962  0.1441 -0.0375 -0.0617
  751POPS   C4B 8472  14.529   6.111   8.207  0.1211 -0.0825 -0.1444
  752POPS   CNO 8473  13.306   4.591   6.229  0.1294  0.1935 -0.0546
  752POPS   PO4 8474  13.076   4.686   6.481  0.0610 -0.2257  0.0539
  752POPS   GL1 8475  12.945   4.610   6.861 -0.2309  0.2544  0.1327
  752POPS   GL2 8476  12.732   4.461   6.882 -0.0293  0.2495  0.1809
  752POPS   C1A 8477  12.920   4.843   7.290 -0.1292 -0.0163 -0.1679
  752POPS   D2A 8478  12.878   4.988   7.648 -0.2796  0.0266 -0.1169
  752POPS   C3A 8479  12.806   5.098   8.096 -0.1121 -0.2596  0.1275
  752POPS   C4A 8480  12.466   5.479   8.255  0.0365  0.2090  0.0570
  752POPS   C1B 8481  12.552   4.485   7.306  0.1626 -0.4014 -0.1531
  752POPS   C2B 8482  12.395   4.518   7.666 -0.0044  0.1096  0.1433
  752POPS   C3B 8483  12.534   4.718   7.941  0.1712 -0.2395 -0.0148
  752POPS   C4B 8484  12.481   4.716   8.307 -0.0903  0.0193  0.1491
  753POPS   CNO 8485   3.501   7.528   6.272  0.0754  0.1017  0.0763
  753POPS   PO4 8486   3.639   7.141   6.546 -0.0961  0.2756 -0.3704
  753POPS   GL1 8487   3.446   7.190   7.007  0.1809 -0.0542 -0.0087
  753POPS   GL2 8488   3.236   6.950   7.097  0.3484  0.0067  0.0563
  753POPS   C1A 8489   3.423   7.282   7.432  0.1967  0.4225  0.0780
  753POPS   D2A 8490   3.778   7.362   7.714  0.3462 -0.3404 -0.1632
  753POPS   C3A 8491   3.866   7.511   8.139  0.0097 -0.0208  0.2812
  753POPS   C4A 8492   3.566   7.766   8.371 -0.0804 -0.0322  0.0034
  753POPS   C1B 8493   3.102   6.828   7.516  0.0553 -0.0120 -0.0207
  753POPS   C2B 8494   3.022   6.883   7.917  0.0859  0.1447 -0.0780
  753POPS   C3B 8495   3.013   7.060   8.320  0.1560  0.1849 -0.0649
  753POPS   C4B 8496   3.081   7.218   8.770  0.0612  0.2902 -0.1054
  754POPS   CNO 8497  14.416   1.525   6.183 -0.2077  0.0260  0.1161
  754POPS   PO4 8498  14.063   1.519   6.418  0.1075 -0.0661  0.0942
  754POPS   GL1 8499  13.932   1.691   6.723 -0.0704  0.0161 -0.0152
  754POPS   GL2 8500  13.621   1.864   6.643 -0.1671 -0.0181 -0.0776
  754POPS   C1A 8501  13.998   1.781   7.093  0.1964 -0.2708 -0.3355
  754POPS   D2A 8502  14.042   1.689   7.513  0.0540 -0.2468 -0.0217
  754POPS   C3A 8503  14.140   1.868   7.862 -0.0102 -0.1409 -0.0224
  754POPS   C4A 8504  14.265   2.057   8.223  0.1413  0.0891  0.3424
  754POPS   C1B 8505  13.434   1.674   7.013  0.2777 -0.2703 -0.2846
  754POPS   C2B 8506  13.550   1.499   7.480 -0.0924 -0.0871 -0.0089
  754POPS   C3B 8507  13.305   1.469   7.810 -0.0998  0.1242  0.1179
  754POPS   C4B 8508  12.962   1.432   7.967  0.0160  0.1595 -0.0283
  755POPS   CNO 8509   2.943  13.488   5.386  0.0988  0.0133  0.0844
  755POPS   PO4 8510   2.756  13.186   5.807  0.2634  0.0845  0.0088
  755POPS   GL1 8511   2.779  13.347   6.256 -0.2301  0.0039  0.0862
  755POPS   GL2 8512   2.671  13.058   6.433  0.2187  0.1792 -0.4227
  755POPS   C1A 8513   2.930  13.769   6.327  0.1899 -0.1892 -0.2170
  755POPS   D2A 8514   2.826  14.218   6.507  0.3186  0.2332  0.1726
  755POPS   C3A 8515   3.012  14.552   6.570 -0.1062 -0.0034  0.0874
  755POPS   C4A 8516   2.974  14.573   7.067 -0.1235  0.1829 -0.1162
  755POPS   C1B 8517   2.845  13.100   6.840  0.1357  0.1516 -0.2877
  755POPS   C2B 8518   3.228  13.218   6.949 -0.4355  0.2259 -0.1534
  755POPS   C3B 8519   3.617  13.349   7.019 -0.0256  0.2908 -0.0887
  755POPS   C4B 8520   4.001  13.454   7.025 -0.1956 -0.2339 -0.0069
  756POPS   CNO 8521   5.523   5.273   5.751  0.0507 -0.1343  0.0750
  756POPS   PO4 8522   5.663   5.619   5.926 -0.1411  0.1820 -0.0567
  756POPS   GL1 8523   5.522   5.685   6.394  0.0289 -0.0412 -0.0004
  756POPS   GL2 8524   5.329   5.533   6.636  0.0033 -0.0873  0.2821
  756POPS   C1A 8525   5.650   5.836   6.863 -0.0679 -0.2498 -0.1633
  756POPS   D2A 8526   5.905   5.881   7.101  0.1921  0.2103 -0.0052
  756POPS   C3A 8527   6.231   5.756   7.230  0.0404 -0.3331 -0.2023
  756POPS   C4A 8528   6.440   5.525   7.443  0.1961  0.3691 -0.1898
  756POPS   C1B 8529   5.371   5.503   7.156 -0.3606 -0.0515 -0.0507
  756POPS   C2B 8530   5.176   5.552   7.620  0.4066 -0.1135  0.1912
  756POPS   C3B 8531   5.360   5.638   8.038  0.3841  0.1541  0.1738
  756POPS   C4B 8532   5.522   5.728   8.464 -0.1010  0.0621 -0.0003
  757POPS   CNO 8533  10.186   1.651   5.825  0.1322  0.2483  0.1838
  757POPS   PO4 8534  10.180   1.548   6.265  0.2611 -0.0872 -0.3841
  757POPS   GL1 8535  10.422   1.636   6.653  0.1774 -0.1857  0.0763
  757POPS   GL2 8536  10.625   1.940   6.647 -0.3991 -0.2037 -0.2318
  757POPS   C1A 8537  10.494   1.526   7.113  0.1833  0.2849 -0.0486
  757POPS   D2A 8538  10.390   1.552   7.637  0.1197 -0.1248 -0.1929
  757POPS   C3A 8539  10.069   1.788   7.853  0.1199 -0.1139 -0.2891
  757POPS   C4A 8540   9.868   2.039   8.175  0.0105 -0.0940  0.1476
  757POPS   C1B 8541  10.534   2.078   7.044 -0.2222  0.2355  0.2116
  757POPS   C2B 8542  10.544   2.431   7.311 -0.3148 -0.0322  0.0002
  757POPS   C3B 8543  10.453   2.794   7.495  0.0188 -0.1193 -0.2310
  757POPS   C4B 8544  10.329   3.077   7.794  0.0006 -0.1243  0.0140
  758POPS   CNO 8545   2.388   9.149   6.093  0.0008 -0.0495 -0.0467
  758POPS   PO4 8546   2.332   9.084   6.451  0.3470 -0.1536  0.1908
  758POPS   GL1 8547   2.473   9.154   6.871 -0.4234  0.2570 -0.0907
  758POPS   GL2 8548   2.761   9.030   6.837  0.0660 -0.0710 -0.0893
  758POPS   C1A 8549   2.488   9.179   7.279  0.2770  0.3118  0.2190
  758POPS   D2A 8550   2.345   9.378   7.553  0.0769  0.2121 -0.1164
  758POPS   C3A 8551   2.156   9.217   7.941 -0.0746 -0.0186  0.1629
  758POPS   C4A 8552   1.857   9.248   8.206 -0.0207 -0.2149 -0.1629
  758POPS   C1B 8553   3.010   9.012   7.214 -0.0309  0.3541  0.1791
  758POPS   C2B 8554   3.132   9.046   7.628 -0.0529 -0.1424 -0.2263
  758POPS   C3B 8555   3.221   8.839   7.942  0.1155 -0.1482 -0.0787
  758POPS   C4B 8556   3.395   8.704   8.334 -0.1183 -0.0642 -0.1309
  759POPS   CNO 8557  15.242   7.081   6.423 -0.2419 -0.0313 -0.1903
  759POPS   PO4 8558  14.914   7.221   6.683  0.2020  0.0664  0.3147
  759POPS   GL1 8559  15.318   7.333   6.874  0.3134 -0.1130 -0.0298
  759POPS   GL2 8560  15.475   7.059   6.999 -0.0975  0.1408  0.3283
  759POPS   C1A 8561  15.392   7.485   7.306  0.0251 -0.1925  0.1213
  759POPS   D2A 8562  15.184   7.513   7.582 -0.2673  0.0673 -0.2650
  759POPS   C3A 8563  15.222   7.868   7.870  0.0266 -0.0044  0.1399
  759POPS   C4A 8564  15.311   8.238   8.068  0.2453  0.0967 -0.1893
  759POPS   C1B 8565  15.440   7.018   7.492  0.0584  0.2128  0.0128
  759POPS   C2B 8566  15.482   6.917   7.867 -0.0121  0.1168 -0.0807
  759POPS   C3B 8567  15.799   6.906   8.203 -0.0009 -0.3236 -0.1677
  759POPS   C4B 8568  15.875   6.959   8.579  0.1219  0.2780 -0.0716
  760POPS   CNO 8569  12.573  13.919   6.359  0.0542  0.2381  0.0656
  760POPS   PO4 8570  12.873  14.143   6.625  0.0001 -0.1781 -0.0537
  760POPS   GL1 8571  12.912  14.255   7.056  0.1530 -0.2366 -0.0612
  760POPS   GL2 8572  13.075  14.346   7.400  0.1251  0.1810 -0.3878
  760POPS   C1A 8573  12.607  14.332   7.449  0.2047  0.1770 -0.0526
  760POPS   D2A 8574  12.611  14.462   7.940  0.2959 -0.1013  0.1916
  760POPS   C3A 8575  12.342  14.710   8.156 -0.1048  0.0499  0.1663
  760POPS   C4A 8576  12.435  14.897   8.559  0.1619  0.0817  0.0631
  760POPS   C1B 8577  12.991  14.210   7.760 -0.0058 -0.0364 -0.1173
  760POPS   C2B 8578  12.980  14.200   8.168  0.0623  0.1548 -0.0642
  760POPS   C3B 8579  12.845  14.039   8.573  0.1236 -0.1550 -0.1039
  760POPS   C4B 8580  12.976  14.319   8.925  0.0761 -0.2192  0.2637
  761POPS   CNO 8581  14.655  12.209   6.741 -0.2415 -0.1323  0.0726
  761POPS   PO4 8582  14.164  12.189   6.740  0.1952  0.2225  0.1488
  761POPS   GL1 8583  14.282  12.154   7.129 -0.0200  0.1404 -0.1222
  761POPS   GL2 8584  14.023  12.068   7.243 -0.0909 -0.0425  0.1199
  761POPS   C1A 8585  14.673  12.200   7.496  0.1777  0.0025 -0.0526
  761POPS   D2A 8586  15.096  12.381   7.548 -0.0208 -0.0126  0.3475
  761POPS   C3A 8587  15.305  12.280   7.975  0.0073 -0.1912 -0.1000
  761POPS   C4A 8588  15.503  12.270   8.395 -0.0887  0.0191  0.0190
  761POPS   C1B 8589  14.217  11.922   7.553  0.2772  0.1457 -0.1085
  761POPS   C2B 8590  14.548  11.997   7.924  0.2281  0.0996  0.0068
  761POPS   C3B 8591  15.053  11.882   7.807 -0.1141  0.2355 -0.0811
  761POPS   C4B 8592  15.494  11.929   7.704 -0.1298 -0.1172 -0.0059
  762POPS   CNO 8593   5.177   6.671   6.433 -0.3699  0.0411  0.0238
  762POPS   PO4 8594   5.602   6.533   6.248  0.1436  0.1064  0.2348
  762POPS   GL1 8595   5.995   6.398   6.533  0.2271 -0.1831 -0.1086
  762POPS   GL2 8596   5.950   6.143   6.641 -0.0121  0.0654 -0.2134
  762POPS   C1A 8597   6.233   6.598   6.769  0.1810  0.1256 -0.1330
  762POPS   D2A 8598   6.422   6.646   7.129 -0.1066 -0.1808  0.4108
  762POPS   C3A 8599   6.406   7.075   7.223  0.1096 -0.1818 -0.1845
  762POPS   C4A 8600   6.632   7.492   7.319 -0.2259  0.0383  0.0534
  762POPS   C1B 8601   6.338   6.066   6.866  0.0365 -0.0885  0.1709
  762POPS   C2B 8602   6.513   6.208   7.288 -0.0484 -0.0566  0.1238
  762POPS   C3B 8603   6.466   6.390   7.675  0.0946 -0.0466 -0.0357
  762POPS   C4B 8604   6.592   6.245   8.044 -0.3763  0.0100  0.0295
  763POPS   CNO 8605  17.825   2.184   5.314 -0.2318  0.1189 -0.1338
  763POPS   PO4 8606  17.950   2.203   5.753  0.0603  0.1059  0.1174
  763POPS   GL1 8607  17.858   2.086   6.240 -0.0110  0.0892 -0.3636
  763POPS   GL2 8608  17.706   1.676   6.373  0.4007 -0.1173  0.1303
  763POPS   C1A 8609  17.909   1.909   6.776  0.0558 -0.0243 -0.0233
  763POPS   D2A 8610  18.240   1.770   6.935 -0.1559  0.0628  0.0848
  763POPS   C3A 8611  18.289   1.553   7.282 -0.1444  0.2682 -0.1170
  763POPS   C4A 8612  18.462   1.593   7.645 -0.2046  0.1214 -0.2151
  763POPS   C1B 8613  17.465   1.637   6.668 -0.1103  0.0340 -0.0975
  763POPS   C2B 8614  17.267   1.238   6.698  0.1443 -0.0978 -0.1139
  763POPS   C3B 8615  17.181   0.746   6.657 -0.2852 -0.1363 -0.0439
  763POPS   C4B 8616  17.374   0.403   6.391  0.1428 -0.6123 -0.0263
  764POPS   CNO 8617   7.782  11.714   7.010  0.2840  0.0504  0.1431
  764POPS   PO4 8618   7.674  11.337   6.906 -0.2876  0.2183  0.0897
  764POPS   GL1 8619   7.769  11.295   7.301 -0.3364  0.0501  0.0055
  764POPS   GL2 8620   7.533  11.417   7.380 -0.0508  0.0287  0.3291
  764POPS   C1A 8621   7.958  11.330   7.738 -0.1424 -0.1197  0.2613
  764POPS   D2A 8622   7.929  11.211   8.173  0.0771 -0.0097 -0.2791
  764POPS   C3A 8623   8.272  11.001   8.336 -0.2775  0.2748  0.1498
  764POPS   C4A 8624   8.551  11.102   8.625 -0.4079  0.2020  0.1073
  764POPS   C1B 8625   7.539  11.480   7.960  0.1316  0.0778 -0.0017
  764POPS   C2B 8626   7.610  11.529   8.412 -0.0840 -0.2042  0.1271
  764POPS   C3B 8627   7.640  11.494   8.796  0.1166 -0.0216 -0.1160
  764POPS   C4B 8628   7.569  11.271   9.175 -0.0184  0.2390  0.3118
  765POPS   CNO 8629  12.785   9.684   6.218  0.1672  0.0587  0.2495
  765POPS   PO4 8630  12.477   9.324   6.378  0.0672 -0.0287  0.2039
  765POPS   GL1 8631  12.454   9.200   6.846 -0.4390 -0.2506  0.0591
  765POPS   GL2 8632  12.214   9.029   6.975  0.3231 -0.1299  0.2018
  765POPS   C1A 8633  12.809   9.215   7.166  0.0176  0.0031  0.0510
  765POPS   D2A 8634  13.080   9.305   7.513  0.1835  0.1654  0.1455
  765POPS   C3A 8635  13.052   9.216   7.924  0.0068 -0.3227  0.0406
  765POPS   C4A 8636  13.050   9.123   8.359  0.0668 -0.1959  0.1049
  765POPS   C1B 8637  12.050   9.207   7.294 -0.2191 -0.4721  0.1804
  765POPS   C2B 8638  12.115   9.462   7.752 -0.0699  0.1048 -0.2388
  765POPS   C3B 8639  12.230   9.754   8.181 -0.1600  0.1842 -0.2099
  765POPS   C4B 8640  11.925   9.809   8.554  0.2401 -0.1245 -0.1353
  766POPS   CNO 8641   3.269  15.894   5.804  0.1640 -0.1757  0.1878
  766POPS   PO4 8642   3.648  16.101   5.721  0.1898  0.0985 -0.1832
  766POPS   GL1 8643   3.651  16.179   6.113  0.1708  0.1978  0.0940
  766POPS   GL2 8644   3.468  16.415   6.089  0.1319 -0.1873  0.0668
  766POPS   C1A 8645   3.768  16.079   6.553 -0.0006 -0.5307  0.0129
  766POPS   D2A 8646   3.807  16.018   7.055 -0.2109 -0.0300 -0.1136
  766POPS   C3A 8647   3.737  16.234   7.431  0.0262  0.2126 -0.5298
  766POPS   C4A 8648   3.573  16.452   7.723  0.1058 -0.0535 -0.0359
  766POPS   C1B 8649   3.492  16.529   6.511  0.3440  0.0505  0.0908
  766POPS   C2B 8650   3.482  16.696   6.942 -0.3307 -0.0350  0.0388
  766POPS   C3B 8651   3.691  16.703   7.250 -0.0500 -0.0491 -0.0249
  766POPS   C4B 8652   3.970  16.684   7.566  0.0887 -0.0806  0.0085
  767POPS   CNO 8653   4.400   4.711   5.924 -0.0925 -0.3598  0.0182
  767POPS   PO4 8654   4.428   4.260   6.060  0.0522 -0.0502  0.1800
  767POPS   GL1 8655   4.375   4.405   6.529 -0.0731 -0.1932  0.2490
  767POPS   GL2 8656   4.216   4.077   6.504  0.0115 -0.0275  0.4256
  767POPS   C1A 8657   4.563   4.403   6.935 -0.3593  0.0428  0.2867
  767POPS   D2A 8658   4.610   4.544   7.378 -0.3218  0.2220  0.1548
  767POPS   C3A 8659   4.786   4.436   7.712  0.2942  0.0570  0.3795
  767POPS   C4A 8660   5.046   4.421   8.108 -0.0936 -0.1755 -0.0995
  767POPS   C1B 8661   4.508   3.856   6.821 -0.0875 -0.3397 -0.0164
  767POPS   C2B 8662   4.588   4.023   7.238  0.0738 -0.0785 -0.0941
  767POPS   C3B 8663   4.738   3.896   7.616  0.0686  0.0024 -0.2955
  767POPS   C4B 8664   4.997   3.961   7.979  0.2100  0.0342  0.0562
  768POPS   CNO 8665   5.532  10.012   6.705 -0.2185  0.1284 -0.1241
  768POPS   PO4 8666   5.942  10.128   6.864 -0.0591 -0.0685 -0.2109
  768POPS   GL1 8667   5.857   9.902   7.148  0.0136  0.0483 -0.0291
  768POPS   GL2 8668   6.027   9.621   7.232 -0.0212 -0.0748 -0.1025
  768POPS   C1A 8669   5.841  10.031   7.532  0.3726  0.0856  0.2578
  768POPS   D2A 8670   5.850  10.043   7.965  0.3128  0.0489  0.1345
  768POPS   C3A 8671   5.768   9.901   8.330 -0.0397 -0.1073  0.0102
  768POPS   C4A 8672   5.528   9.750   8.701  0.1636 -0.1676  0.3027
  768POPS   C1B 8673   5.820   9.539   7.553  0.1190 -0.1061  0.2483
  768POPS   C2B 8674   5.812   9.539   7.934 -0.2657  0.0448  0.0251
  768POPS   C3B 8675   5.705   9.386   8.347  0.0617  0.1956 -0.0878
  768POPS   C4B 8676   5.504   9.262   8.770 -0.0436  0.1291 -0.0180
  769POPS   CNO 8677  15.126  17.624   6.017  0.1364  0.0933 -0.1780
  769POPS   PO4 8678  15.009  17.769   6.359 -0.0936 -0.2127  0.2741
  769POPS   GL1 8679  15.130  17.849   6.763 -0.0843  0.0283  0.1639
  769POPS   GL2 8680  15.179  17.487   6.693 -0.0067 -0.2091  0.0966
  769POPS   C1A 8681  15.199  17.969   7.178  0.0553  0.2553 -0.1348
  769POPS   D2A 8682  15.170  17.980   7.618  0.1716  0.1576  0.2757
  769POPS   C3A 8683  15.304  17.872   8.020 -0.0720  0.2731 -0.1220
  769POPS   C4A 8684  15.410  17.846   8.422  0.1004  0.1777 -0.2558
  769POPS   C1B 8685  15.481  17.562   7.013 -0.0720 -0.1201  0.1212
  769POPS   C2B 8686  15.647  17.596   7.363 -0.3221  0.0027  0.3391
  769POPS   C3B 8687  15.801  17.661   7.730  0.1631  0.0313 -0.2845
  769POPS   C4B 8688  15.797  17.924   8.120 -0.2041 -0.1067  0.3223
  770POPS   CNO 8689  15.095   1.939   5.696 -0.0902 -0.0312  0.0460
  770POPS   PO4 8690  15.009   2.282   6.050  0.1424  0.1243 -0.2604
  770POPS   GL1 8691  15.088   2.044   6.254  0.2881  0.0262  0.0627
  770POPS   GL2 8692  15.359   2.142   6.405 -0.0361 -0.0932  0.0764
  770POPS   C1A 8693  15.071   2.115   6.775  0.0238  0.0074  0.0487
  770POPS   D2A 8694  14.998   2.355   7.083 -0.1096  0.4183  0.1895
  770POPS   C3A 8695  14.843   2.535   7.423  0.1014 -0.0530  0.0153
  770POPS   C4A 8696  14.752   2.739   7.779 -0.1352 -0.0374  0.1647
  770POPS   C1B 8697  15.485   2.328   6.879 -0.3081 -0.4097 -0.0157
  770POPS   C2B 8698  15.748   2.366   7.194 -0.4254  0.1296  0.0233
  770POPS   C3B 8699  15.734   2.176   7.616  0.0324 -0.2749 -0.2234
  770POPS   C4B 8700  15.701   2.102   7.995 -0.1261  0.0082  0.0621
  771POPS   CNO 8701   0.280   9.909   6.045  0.3410  0.0125 -0.2501
  771POPS   PO4 8702   0.594  10.048   6.122  0.0017  0.1938 -0.0809
  771POPS   GL1 8703   0.466  10.216   6.440  0.0460 -0.1140 -0.0576
  771POPS   GL2 8704   0.703  10.028   6.695  0.2472  0.2499  0.0877
  771POPS   C1A 8705   0.102  10.261   6.673 -0.1315  0.1340  0.1533
  771POPS   D2A 8706  -0.386  10.419   6.819 -0.1314 -0.1623  0.2082
  771POPS   C3A 8707  -0.353  10.870   6.929 -0.0459  0.0478  0.3081
  771POPS   C4A 8708  -0.461  11.030   7.256  0.0419 -0.1896  0.1490
  771POPS   C1B 8709   0.554  10.352   6.913 -0.2112 -0.0052 -0.0850
  771POPS   C2B 8710   0.415  10.373   7.342 -0.1322  0.0579  0.0367
  771POPS   C3B 8711   0.213  10.601   7.700  0.2354 -0.0653 -0.1148
  771POPS   C4B 8712   0.172  10.949   8.043  0.1967 -0.3824  0.0285
  772POPS   CNO 8713   9.019   2.112   6.099  0.4538  0.1573 -0.3555
  772POPS   PO4 8714   9.390   2.281   6.065  0.3142  0.4111  0.0417
  772POPS   GL1 8715   9.639   2.419   6.354  0.0640  0.0807  0.1198
  772POPS   GL2 8716   9.498   2.552   6.597  0.1817  0.0853  0.1929
  772POPS   C1A 8717   9.677   2.176   6.800  0.0216 -0.0464  0.1569
  772POPS   D2A 8718  10.075   2.287   7.116 -0.0175 -0.1477  0.3318
  772POPS   C3A 8719   9.887   2.258   7.553  0.1352 -0.0361  0.3530
  772POPS   C4A 8720   9.693   2.379   7.835  0.0508  0.2835 -0.2227
  772POPS   C1B 8721   9.249   2.961   6.783 -0.0393  0.1120 -0.0286
  772POPS   C2B 8722   9.222   3.291   7.078  0.0745  0.0388 -0.0163
  772POPS   C3B 8723   9.181   3.427   7.473 -0.0774  0.1861  0.0556
  772POPS   C4B 8724   9.137   3.695   7.899 -0.2139 -0.0337  0.0509
  773POPS   CNO 8725  16.112  12.564   6.699 -0.2091 -0.1407  0.0231
  773POPS   PO4 8726  16.188  12.192   6.778  0.0790  0.0649 -0.0639
  773POPS   GL1 8727  16.189  12.064   7.297  0.0765  0.1603  0.2537
  773POPS   GL2 8728  15.944  12.170   7.394  0.0085  0.0768 -0.1037
  773POPS   C1A 8729  16.511  12.032   7.522 -0.1442 -0.0852  0.0296
  773POPS   D2A 8730  16.521  11.979   7.937 -0.2502  0.1191  0.0337
  773POPS   C3A 8731  16.279  12.138   8.274 -0.1394 -0.1922  0.0183
  773POPS   C4A 8732  15.987  12.031   8.588 -0.2420 -0.1405 -0.4819
  773POPS   C1B 8733  16.002  11.924   7.730 -0.1466 -0.2248  0.0238
  773POPS   C2B 8734  15.813  11.805   8.174 -0.0831  0.1679  0.3254
  773POPS   C3B 8735  15.597  11.692   8.561  0.2160 -0.0278  0.0041
  773POPS   C4B 8736  15.596  11.860   8.969  0.2173 -0.0068  0.0968
  774POPS   CNO 8737  11.410   6.827   6.019 -0.0759  0.0360  0.0047
  774POPS   PO4 8738  11.003   6.607   6.183  0.0869  0.1667  0.1981
  774POPS   GL1 8739  10.925   6.362   6.593  0.0822 -0.2290 -0.2048
  774POPS   GL2 8740  11.203   6.438   6.680 -0.1557  0.1993  0.2321
  774POPS   C1A 8741  10.887   6.265   6.998  0.1724  0.0924 -0.1167
  774POPS   D2A 8742  10.647   6.448   7.275 -0.0238 -0.3427  0.1728
  774POPS   C3A 8743  10.593   6.295   7.639  0.1130 -0.1941 -0.0420
  774POPS   C4A 8744  10.501   6.334   8.058 -0.0328  0.0522  0.2325
  774POPS   C1B 8745  11.357   6.252   7.186  0.2216 -0.1719  0.0943
  774POPS   C2B 8746  11.244   6.094   7.588 -0.0033  0.1340  0.1693
  774POPS   C3B 8747  10.978   6.050   7.844  0.2277  0.1062  0.2748
  774POPS   C4B 8748  10.938   6.190   8.261 -0.2160  0.0296  0.2643
  775POPS   CNO 8749   9.868   1.134   6.323 -0.3422 -0.0335 -0.1235
  775POPS   PO4 8750  10.377   1.153   6.499 -0.0216 -0.0932  0.2162
  775POPS   GL1 8751  10.466   1.075   6.973  0.0171  0.0386  0.3062
  775POPS   GL2 8752  10.244   0.852   7.093 -0.0143 -0.1181 -0.2330
  775POPS   C1A 8753  10.447   1.137   7.434 -0.1805 -0.4125 -0.0464
  775POPS   D2A 8754  10.439   1.051   7.909  0.0916 -0.0783 -0.0658
  775POPS   C3A 8755  10.317   1.431   8.178 -0.0404  0.0747 -0.2143
  775POPS   C4A 8756  10.115   1.760   8.433 -0.0051 -0.3845  0.2383
  775POPS   C1B 8757  10.078   0.755   7.488 -0.2319 -0.0583  0.1551
  775POPS   C2B 8758  10.157   0.638   7.870 -0.0913  0.1957  0.3829
  775POPS   C3B 8759  10.242   0.714   8.369 -0.2005 -0.2852  0.0646
  775POPS   C4B 8760  10.345   0.581   8.766 -0.0631  0.0163  0.0936
  776POPS   CNO 8761   7.985  17.070   6.593  0.1201  0.2440 -0.1530
  776POPS   PO4 8762   8.139  17.489   6.549  0.0255 -0.0855  0.0059
  776POPS   GL1 8763   8.121  17.342   6.970 -0.1259 -0.0838  0.0593
  776POPS   GL2 8764   8.281  16.971   7.070 -0.0614 -0.1345  0.0355
  776POPS   C1A 8765   8.043  17.305   7.425  0.1114  0.1039  0.0049
  776POPS   D2A 8766   8.179  17.252   7.778 -0.0264 -0.3723  0.3257
  776POPS   C3A 8767   8.529  17.039   7.959 -0.0822  0.1702 -0.0404
  776POPS   C4A 8768   8.866  16.949   8.313  0.2486 -0.1461 -0.2798
  776POPS   C1B 8769   8.475  17.062   7.454  0.1788  0.4196 -0.2228
  776POPS   C2B 8770   8.697  17.384   7.572  0.0613 -0.1120  0.0127
  776POPS   C3B 8771   8.855  17.398   8.034  0.0606  0.0318 -0.1404
  776POPS   C4B 8772   8.870  17.812   8.152  0.3202  0.0398 -0.0600
  777POPS   CNO 8773   6.766   6.584   6.333 -0.1496  0.2323  0.1110
  777POPS   PO4 8774   6.627   6.255   5.982  0.2288 -0.3552  0.2074
  777POPS   GL1 8775   6.733   5.987   6.288  0.2663 -0.3472 -0.0836
  777POPS   GL2 8776   6.424   6.205   6.437 -0.0785  0.1253 -0.0014
  777POPS   C1A 8777   6.822   5.812   6.686  0.0411 -0.0057 -0.0070
  777POPS   D2A 8778   6.717   5.773   7.167  0.0524  0.2643  0.1539
  777POPS   C3A 8779   6.857   6.004   7.521  0.5819  0.1897 -0.1910
  777POPS   C4A 8780   7.045   6.308   7.804  0.1246  0.3062 -0.1003
  777POPS   C1B 8781   6.828   6.346   6.717  0.1886 -0.1570 -0.1483
  777POPS   C2B 8782   6.993   6.170   7.092 -0.0161  0.1409  0.3692
  777POPS   C3B 8783   7.296   6.191   7.342 -0.1437  0.3468 -0.0756
  777POPS   C4B 8784   7.351   5.937   7.714 -0.1919  0.1729 -0.0839
  778POPS   CNO 8785  17.255   2.299   5.655  0.1537 -0.1459  0.0943
  778POPS   PO4 8786  17.093   2.370   5.963  0.0709 -0.0184 -0.1077
  778POPS   GL1 8787  17.086   2.470   6.349  0.3053  0.2491 -0.2176
  778POPS   GL2 8788  16.628   2.471   6.380 -0.1065 -0.0622  0.2295
  778POPS   C1A 8789  17.078   2.631   6.766  0.0811 -0.0794  0.1478
  778POPS   D2A 8790  17.058   2.571   7.213 -0.1074 -0.2322 -0.1369
  778POPS   C3A 8791  17.477   2.736   7.364  0.0094  0.1525  0.2874
  778POPS   C4A 8792  17.608   2.849   7.824  0.1223  0.1392  0.0364
  778POPS   C1B 8793  16.674   2.294   6.799  0.3587  0.0309 -0.1726
  778POPS   C2B 8794  16.704   2.235   7.250  0.1547 -0.2482  0.1765
  778POPS   C3B 8795  16.667   2.117   7.727 -0.1371 -0.0302 -0.0613
  778POPS   C4B 8796  16.678   2.107   8.142 -0.1962  0.0414 -0.0909
  779POPS   CNO 8797  11.110   9.614   6.479  0.1355 -0.1568  0.1254
  779POPS   PO4 8798  11.570   9.580   6.609  0.0693  0.0290  0.0226
  779POPS   GL1 8799  11.599   9.436   7.104 -0.2614 -0.1116 -0.1564
  779POPS   GL2 8800  11.851   9.704   7.224  0.0457 -0.0619  0.0287
  779POPS   C1A 8801  11.533   9.144   7.559  0.2757  0.0062  0.1061
  779POPS   D2A 8802  11.438   8.843   7.774  0.1600 -0.1227 -0.2056
  779POPS   C3A 8803  11.386   9.002   8.137  0.1540 -0.2108  0.0560
  779POPS   C4A 8804  11.629   9.267   8.424 -0.1701  0.0255  0.1088
  779POPS   C1B 8805  11.675   9.618   7.627  0.1777 -0.0620  0.2565
  779POPS   C2B 8806  11.630   9.556   8.048  0.0122 -0.0513  0.1294
  779POPS   C3B 8807  11.367   9.733   8.434 -0.2031  0.2395 -0.0204
  779POPS   C4B 8808  10.985   9.698   8.532 -0.2232 -0.1675  0.1837
  780POPS   CNO 8809  11.294  11.812   6.387  0.0100  0.2124  0.1830
  780POPS   PO4 8810  11.280  12.135   6.678 -0.0237 -0.0953 -0.4422
  780POPS   GL1 8811  11.165  12.138   6.993  0.1623 -0.1367 -0.1194
  780POPS   GL2 8812  11.329  11.830   7.173 -0.0435  0.3128 -0.2666
  780POPS   C1A 8813  11.003  12.006   7.432  0.0373  0.0732 -0.2814
  780POPS   D2A 8814  11.048  11.585   7.625 -0.0284 -0.2637 -0.1056
  780POPS   C3A 8815  11.108  11.437   8.060  0.0328 -0.2682  0.2839
  780POPS   C4A 8816  11.025  11.368   8.429  0.1632  0.1038 -0.0143
  780POPS   C1B 8817  11.426  11.512   7.282 -0.2454  0.0750  0.1952
  780POPS   C2B 8818  11.681  11.222   7.440  0.1444 -0.1089  0.0885
  780POPS   C3B 8819  12.060  11.394   7.743 -0.0507 -0.0945  0.0663
  780POPS   C4B 8820  11.991  11.453   8.129  0.1088  0.3493  0.0880
  781POPS   CNO 8821   1.002  12.697   6.063  0.0290 -0.1964 -0.0075
  781POPS   PO4 8822   1.126  12.355   5.758 -0.0824  0.2199 -0.0045
  781POPS   GL1 8823   1.352  12.383   6.090 -0.0056 -0.2504  0.1068
  781POPS   GL2 8824   1.674  12.523   6.226 -0.0514 -0.2818 -0.0758
  781POPS   C1A 8825   1.202  12.557   6.511  0.1435  0.1565  0.2479
  781POPS   D2A 8826   0.828  12.698   6.590 -0.0941 -0.1071  0.2432
  781POPS   C3A 8827   0.814  12.830   7.092 -0.0562 -0.0271  0.2805
  781POPS   C4A 8828   0.698  12.660   7.430  0.1826 -0.1536 -0.0504
  781POPS   C1B 8829   1.678  12.704   6.473  0.1012 -0.1836  0.1309
  781POPS   C2B 8830   1.603  12.712   6.894 -0.0487 -0.1913  0.0337
  781POPS   C3B 8831   1.673  12.600   7.274 -0.1715  0.0156 -0.0991
  781POPS   C4B 8832   1.686  12.883   7.674  0.0595  0.1129 -0.1746
  782POPS   CNO 8833   3.774   1.300   5.675 -0.4426  0.2680  0.0615
  782POPS   PO4 8834   3.325   1.306   5.510  0.1323  0.1841 -0.0446
  782POPS   GL1 8835   3.369   1.109   5.963 -0.1147  0.0043 -0.2822
  782POPS   GL2 8836   3.083   1.145   6.246  0.1815  0.0201 -0.0305
  782POPS   C1A 8837   3.489   0.861   6.206  0.1256  0.0464  0.2993
  782POPS   D2A 8838   3.467   0.344   6.176  0.0697 -0.0378 -0.0929
  782POPS   C3A 8839   3.203   0.109   6.098 -0.1550 -0.4318  0.1032
  782POPS   C4A 8840   2.901  -0.209   6.058 -0.1183 -0.4524 -0.1727
  782POPS   C1B 8841   3.231   0.954   6.618 -0.3466 -0.1599 -0.2984
  782POPS   C2B 8842   3.236   0.904   7.037 -0.0798  0.1979  0.1646
  782POPS   C3B 8843   3.241   0.995   7.436 -0.0886 -0.0329 -0.0910
  782POPS   C4B 8844   3.401   0.997   7.891  0.1697  0.0689 -0.1496
  783POPS   CNO 8845   1.904  14.731   5.818 -0.1204 -0.2623 -0.1433
  783POPS   PO4 8846   1.915  15.072   5.629 -0.0571  0.0121 -0.0777
  783POPS   GL1 8847   1.613  15.193   6.007 -0.0525  0.3001  0.3566
  783POPS   GL2 8848   1.317  14.960   6.149  0.0425  0.2072  0.1779
  783POPS   C1A 8849   1.689  15.271   6.380 -0.0217 -0.2744  0.1634
  783POPS   D2A 8850   1.630  15.107   6.730 -0.1202  0.2962  0.1592
  783POPS   C3A 8851   1.691  15.284   7.169  0.2101  0.0081  0.4159
  783POPS   C4A 8852   1.630  15.381   7.609 -0.3175 -0.0544 -0.0236
  783POPS   C1B 8853   1.159  14.937   6.546 -0.1662  0.0067  0.0346
  783POPS   C2B 8854   1.242  15.050   7.048  0.2092  0.1351  0.4173
  783POPS   C3B 8855   1.253  15.116   7.436 -0.1866 -0.2022 -0.2815
  783POPS   C4B 8856   1.118  15.390   7.795 -0.2107 -0.0121 -0.0888
  784POPS   CNO 8857   7.996   0.309   6.466  0.0212 -0.1753 -0.0034
  784POPS   PO4 8858   8.362   0.121   6.189 -0.0357  0.2362 -0.0800
  784POPS   GL1 8859   8.330  -0.057   6.658 -0.0472  0.0751  0.0436
  784POPS   GL2 8860   8.091  -0.085   6.854  0.3440  0.2043  0.1244
  784POPS   C1A 8861   8.600   0.066   7.050  0.0556  0.3649 -0.0332
  784POPS   D2A 8862   8.884   0.283   7.443 -0.2284 -0.1597  0.4123
  784POPS   C3A 8863   8.913   0.240   7.907  0.0879 -0.2206  0.1855
  784POPS   C4A 8864   8.994   0.295   8.301 -0.1615  0.1980 -0.2389
  784POPS   C1B 8865   7.902  -0.266   7.215  0.1102 -0.0557 -0.4010
  784POPS   C2B 8866   7.699  -0.033   7.545 -0.0294 -0.0287 -0.5086
  784POPS   C3B 8867   7.551   0.237   7.842 -0.2063 -0.0668  0.1526
  784POPS   C4B 8868   7.483   0.651   8.105  0.1487  0.0400  0.1102
  785POPS   CNO 8869  15.822   8.290   5.954  0.0654 -0.1209  0.0840
  785POPS   PO4 8870  15.605   8.352   6.332  0.0209  0.1953  0.1579
  785POPS   GL1 8871  15.633   8.493   6.772 -0.2307 -0.0106  0.0601
  785POPS   GL2 8872  15.848   8.306   6.985 -0.0935 -0.0129 -0.0477
  785POPS   C1A 8873  15.336   8.391   7.064 -0.2629  0.1692  0.0316
  785POPS   D2A 8874  14.969   8.487   7.130 -0.0880  0.0247  0.0199
  785POPS   C3A 8875  14.752   8.332   7.494  0.0245 -0.1740  0.0348
  785POPS   C4A 8876  14.721   8.409   7.835 -0.2175  0.1073 -0.2067
  785POPS   C1B 8877  15.977   8.294   7.482 -0.0195  0.0210  0.3124
  785POPS   C2B 8878  16.098   8.176   7.911  0.0065  0.3760  0.0634
  785POPS   C3B 8879  16.255   8.257   8.238 -0.1704  0.0198 -0.1945
  785POPS   C4B 8880  16.670   8.422   8.358 -0.0295 -0.0886 -0.1634
  786POPS   CNO 8881   5.080  14.418   5.382 -0.2592  0.0926 -0.2992
  786POPS   PO4 8882   4.853  14.199   5.773 -0.0203  0.4594 -0.2193
  786POPS   GL1 8883   4.986  13.977   6.190 -0.2236 -0.1452  0.0325
  786POPS   GL2 8884   5.134  13.850   6.486 -0.1751 -0.0270  0.0690
  786POPS   C1A 8885   4.654  13.906   6.434  0.2870 -0.2059 -0.2372
  786POPS   D2A 8886   4.295  14.088   6.633  0.1107 -0.0002  0.1236
  786POPS   C3A 8887   4.230  14.474   6.541  0.0040  0.1588  0.1930
  786POPS   C4A 8888   3.875  14.616   6.356  0.0813 -0.1390  0.2661
  786POPS   C1B 8889   5.036  13.913   6.782 -0.0196  0.0811 -0.5118
  786POPS   C2B 8890   4.832  13.796   7.145 -0.1329 -0.1008  0.1912
  786POPS   C3B 8891   4.588  13.735   7.539  0.0368 -0.0382  0.0331
  786POPS   C4B 8892   4.197  13.653   7.652  0.0326 -0.0228  0.1442
  787POPS   CNO 8893  10.939  13.755   6.380  0.0492  0.4098  0.1952
  787POPS   PO4 8894  10.721  13.317   6.650 -0.0302  0.0251 -0.1717
  787POPS   GL1 8895  10.557  13.269   7.105 -0.0557 -0.0500  0.1732
  787POPS   GL2 8896  10.345  13.006   7.188  0.3106  0.3347 -0.0582
  787POPS   C1A 8897  10.493  13.561   7.386  0.3372 -0.1176  0.1386
  787POPS   D2A 8898  10.477  13.665   7.744  0.3942  0.1289 -0.0038
  787POPS   C3A 8899  10.221  13.544   7.963  0.1087 -0.1131 -0.0149
  787POPS   C4A 8900  10.082  13.664   8.375 -0.1883 -0.0197  0.3044
  787POPS   C1B 8901  10.366  13.181   7.674  0.0909 -0.1206 -0.0558
  787POPS   C2B 8902  10.344  12.997   8.012 -0.0555 -0.0370  0.2575
  787POPS   C3B 8903  10.310  12.816   8.321 -0.0189 -0.1468  0.1046
  787POPS   C4B 8904  10.322  12.523   8.619  0.3325  0.0310  0.0795
  788POPS   CNO 8905   6.390  16.442   6.086  0.2230  0.0410  0.0694
  788POPS   PO4 8906   6.554  16.867   6.096  0.0444 -0.0264 -0.0086
  788POPS   GL1 8907   6.574  16.730   6.548  0.2460 -0.2145  0.1545
  788POPS   GL2 8908   6.391  16.621   6.639  0.1379 -0.1649  0.3264
  788POPS   C1A 8909   6.674  16.293   6.881  0.1627 -0.0197 -0.0955
  788POPS   D2A 8910   6.537  16.350   7.223 -0.0932 -0.0297 -0.1503
  788POPS   C3A 8911   6.401  16.579   7.526  0.3908  0.0855  0.1824
  788POPS   C4A 8912   6.013  16.678   7.697  0.0712 -0.2525  0.0405
  788POPS   C1B 8913   6.267  16.704   7.009 -0.1195 -0.0557  0.0553
  788POPS   C2B 8914   5.856  16.770   7.197 -0.1142  0.1655 -0.3200
  788POPS   C3B 8915   5.474  16.794   7.439 -0.1889 -0.1189  0.0865
  788POPS   C4B 8916   5.291  17.001   7.886  0.0454  0.0502  0.0652
  789POPS   CNO 8917   5.129  13.392   6.157 -0.0720 -0.0538  0.0888
  789POPS   PO4 8918   5.530  13.663   6.275 -0.1900  0.0954 -0.1402
  789POPS   GL1 8919   5.496  13.728   6.756  0.2490 -0.3945 -0.1019
  789POPS   GL2 8920   5.405  13.461   6.735 -0.1365 -0.3171  0.2332
  789POPS   C1A 8921   5.397  13.908   7.085  0.4456  0.1907  0.1666
  789POPS   D2A 8922   5.295  13.930   7.563 -0.0692  0.0001  0.3071
  789POPS   C3A 8923   5.017  13.805   7.679  0.1146 -0.0665 -0.0616
  789POPS   C4A 8924   4.745  13.476   7.907  0.0572  0.2332  0.1859
  789POPS   C1B 8925   5.177  13.428   7.111  0.3467 -0.0333  0.2979
  789POPS   C2B 8926   4.892  13.345   7.441 -0.0476 -0.0931  0.0742
  789POPS   C3B 8927   4.988  13.004   7.815 -0.0819  0.2509 -0.1467
  789POPS   C4B 8928   5.315  12.856   7.974 -0.0505  0.1159  0.0272
  790POPS   CNO 8929   8.618   7.889   6.532 -0.2223 -0.2546 -0.1468
  790POPS   PO4 8930   8.216   8.032   6.511  0.1759  0.1807  0.3977
  790POPS   GL1 8931   8.234   8.116   6.943 -0.1920  0.0144  0.0033
  790POPS   GL2 8932   7.875   8.194   7.044 -0.2083 -0.0189  0.0691
  790POPS   C1A 8933   8.353   7.920   7.338 -0.0261  0.1737 -0.3036
  790POPS   D2A 8934   8.308   7.595   7.623 -0.1707 -0.0428  0.0164
  790POPS   C3A 8935   8.328   7.526   8.044 -0.1543  0.0499 -0.0862
  790POPS   C4A 8936   8.105   7.704   8.319  0.0889 -0.2227 -0.1390
  790POPS   C1B 8937   8.013   8.317   7.441  0.2451  0.1797 -0.2202
  790POPS   C2B 8938   8.280   8.449   7.681  0.3632  0.0676  0.0971
  790POPS   C3B 8939   8.420   8.678   8.008 -0.0113 -0.1839 -0.2545
  790POPS   C4B 8940   8.354   8.626   8.411  0.1645 -0.1054  0.2761
  791POPS   CNO 8941  13.509  13.183   6.850  0.3845 -0.0653 -0.3090
  791POPS   PO4 8942  13.564  13.326   7.249  0.0437  0.1907 -0.1441
  791POPS   GL1 8943  13.624  13.532   7.559 -0.1160  0.1730 -0.0824
  791POPS   GL2 8944  13.982  13.561   7.473  0.1113 -0.1545  0.0715
  791POPS   C1A 8945  13.769  13.427   7.933  0.1082  0.0121  0.2865
  791POPS   D2A 8946  13.961  13.220   8.278 -0.1239  0.2397 -0.2027
  791POPS   C3A 8947  14.311  13.309   8.521  0.0658  0.3013 -0.1324
  791POPS   C4A 8948  14.441  13.221   8.889 -0.3187  0.0661 -0.0507
  791POPS   C1B 8949  13.943  13.906   7.775  0.0534  0.0330  0.1660
  791POPS   C2B 8950  13.935  14.096   8.156 -0.1698  0.1628 -0.1134
  791POPS   C3B 8951  13.710  14.283   8.502  0.1564  0.2693  0.1001
  791POPS   C4B 8952  13.306  14.246   8.509  0.0138  0.0183  0.1479
  792POPS   CNO 8953  13.379   6.013   6.427  0.0494  0.2346  0.1524
  792POPS   PO4 8954  13.500   6.384   6.184 -0.0261  0.0697 -0.0003
  792POPS   GL1 8955  13.629   6.405   6.647  0.2648  0.0750  0.0303
  792POPS   GL2 8956  13.666   6.636   6.854 -0.0911 -0.1353 -0.0583
  792POPS   C1A 8957  13.355   6.231   7.050  0.1055  0.2361 -0.1685
  792POPS   D2A 8958  13.380   6.120   7.459 -0.1533 -0.0725 -0.0171
  792POPS   C3A 8959  13.198   5.832   7.759 -0.1824  0.1242 -0.0147
  792POPS   C4A 8960  13.151   5.476   8.119  0.0925  0.3943 -0.1944
  792POPS   C1B 8961  13.708   6.478   7.268  0.1880 -0.4435 -0.0392
  792POPS   C2B 8962  13.788   6.476   7.627  0.0419 -0.3905 -0.0977
  792POPS   C3B 8963  14.107   6.761   7.801  0.1663  0.1509  0.2125
  792POPS   C4B 8964  14.279   6.801   8.164 -0.1421  0.3714 -0.1410
  793POPS   CNO 8965   8.224  14.550   7.117 -0.0323  0.0378  0.0327
  793POPS   PO4 8966   8.500  14.479   6.820  0.0622  0.0962  0.5280
  793POPS   GL1 8967   8.685  14.669   7.183 -0.3536 -0.2563 -0.0277
  793POPS   GL2 8968   8.767  14.494   7.393 -0.0194  0.1117 -0.1279
  793POPS   C1A 8969   8.960  14.927   7.324 -0.0396  0.1128  0.2224
  793POPS   D2A 8970   9.335  15.209   7.433  0.0361 -0.1811  0.0582
  793POPS   C3A 8971   9.232  15.192   7.726 -0.1121 -0.1060 -0.3200
  793POPS   C4A 8972   9.234  15.172   8.231  0.0141  0.0751 -0.2078
  793POPS   C1B 8973   8.329  14.688   7.533 -0.2631 -0.0642  0.0462
  793POPS   C2B 8974   8.237  14.777   7.877  0.1105 -0.0911 -0.1199
  793POPS   C3B 8975   8.258  14.713   8.360  0.0729  0.0213 -0.0205
  793POPS   C4B 8976   8.570  14.772   8.740 -0.1110  0.2601 -0.2409
  794POPS   CNO 8977   3.387   6.784   6.252  0.3705 -0.1698 -0.0831
  794POPS   PO4 8978   3.086   6.906   6.587  0.0687  0.0719  0.0464
  794POPS   GL1 8979   2.975   6.581   6.961 -0.1120  0.0374 -0.1421
  794POPS   GL2 8980   3.288   6.440   7.137 -0.0639 -0.1766  0.3229
  794POPS   C1A 8981   2.869   6.332   7.355  0.3322 -0.1171 -0.2251
  794POPS   D2A 8982   2.883   6.340   7.766  0.0746  0.2202  0.0551
  794POPS   C3A 8983   3.235   6.298   7.992  0.1289 -0.0123 -0.0047
  794POPS   C4A 8984   3.202   6.347   8.481  0.1259  0.1932  0.0045
  794POPS   C1B 8985   3.380   6.366   7.508 -0.1176  0.0928  0.1525
  794POPS   C2B 8986   3.747   6.201   7.728 -0.0719  0.2345  0.3423
  794POPS   C3B 8987   3.705   6.095   8.148  0.0341  0.2051  0.0658
  794POPS   C4B 8988   3.659   5.969   8.540  0.0746  0.0820 -0.3299
  795POPS   CNO 8989   4.263  15.327   5.268 -0.0328  0.2024  0.1250
  795POPS   PO4 8990   4.003  15.299   5.522 -0.1482  0.1084 -0.2838
  795POPS   GL1 8991   3.802  15.321   5.844  0.1735 -0.2066 -0.1968
  795POPS   GL2 8992   3.549  15.473   5.972 -0.0646 -0.3165 -0.0044
  795POPS   C1A 8993   3.798  15.177   6.276  0.1057  0.0001  0.1934
  795POPS   D2A 8994   3.734  15.172   6.708 -0.0671  0.0946 -0.0128
  795POPS   C3A 8995   3.605  15.094   7.198  0.1785 -0.1764 -0.2233
  795POPS   C4A 8996   3.776  15.221   7.575  0.0902  0.0442  0.0256
  795POPS   C1B 8997   3.566  15.589   6.363 -0.1743  0.2376 -0.1203
  795POPS   C2B 8998   3.546  15.600   6.885  0.0635  0.0873 -0.1155
  795POPS   C3B 8999   3.507  15.611   7.230 -0.1025 -0.3442  0.0114
  795POPS   C4B 9000   3.293  15.424   7.520  0.1764  0.0342  0.2175
  796POPS   CNO 9001   0.534  16.558   6.084  0.2188 -0.0446  0.0474
  796POPS   PO4 9002   0.781  16.565   5.728  0.0886 -0.2022  0.0837
  796POPS   GL1 9003   1.089  16.698   5.906  0.0575 -0.2015  0.0115
  796POPS   GL2 9004   0.853  16.901   6.170  0.5594  0.1119  0.0926
  796POPS   C1A 9005   1.410  16.321   6.100  0.0681 -0.1334  0.1678
  796POPS   D2A 9006   1.742  16.344   6.356 -0.3912  0.1979 -0.0045
  796POPS   C3A 9007   1.622  16.455   6.779 -0.0160 -0.0927 -0.2547
  796POPS   C4A 9008   1.791  16.396   7.113  0.0745 -0.2414 -0.2174
  796POPS   C1B 9009   0.896  16.670   6.523  0.0145 -0.3515 -0.2912
  796POPS   C2B 9010   0.898  16.563   6.984  0.2922 -0.0906  0.1414
  796POPS   C3B 9011   0.802  16.468   7.414  0.0163  0.1850  0.1319
  796POPS   C4B 9012   0.691  16.184   7.761 -0.0964 -0.1197  0.0843
  797POPS   CNO 9013   6.949   2.260   5.322  0.1623 -0.0212  0.0515
  797POPS   PO4 9014   6.997   2.353   5.760 -0.0552  0.0469  0.0029
  797POPS   GL1 9015   6.753   2.491   6.167 -0.0246 -0.0858  0.0929
  797POPS   GL2 9016   6.444   2.647   6.222  0.0814  0.0349 -0.0553
  797POPS   C1A 9017   6.595   2.211   6.494  0.2862  0.0590  0.0102
  797POPS   D2A 9018   6.456   2.245   6.979 -0.0851 -0.3036 -0.1104
  797POPS   C3A 9019   6.901   2.234   7.180 -0.0009  0.0014  0.1664
  797POPS   C4A 9020   7.188   2.396   7.457  0.1111 -0.2802  0.4061
  797POPS   C1B 9021   6.680   2.707   6.625  0.1841  0.0065  0.2753
  797POPS   C2B 9022   6.720   2.688   7.028  0.0931 -0.2665 -0.0720
  797POPS   C3B 9023   6.835   2.738   7.447  0.0519  0.1690  0.1550
  797POPS   C4B 9024   6.577   2.819   7.877 -0.2595 -0.2203 -0.1773
  798POPS   CNO 9025   2.768   4.171   5.967 -0.2066 -0.0301  0.0287
  798POPS   PO4 9026   2.945   4.443   6.164  0.1425 -0.1239 -0.0988
  798POPS   GL1 9027   3.056   4.595   6.496 -0.2888  0.1311  0.0020
  798POPS   GL2 9028   3.420   4.567   6.529  0.0983  0.2159 -0.1414
  798POPS   C1A 9029   2.843   4.380   6.864 -0.0686 -0.0160 -0.0479
  798POPS   D2A 9030   2.738   4.298   7.344 -0.3789 -0.2009 -0.1906
  798POPS   C3A 9031   2.875   3.997   7.646 -0.0303 -0.2241  0.2799
  798POPS   C4A 9032   2.992   3.839   8.010 -0.0670 -0.0097  0.2001
  798POPS   C1B 9033   3.318   4.646   6.930  0.2010 -0.0295 -0.1326
  798POPS   C2B 9034   3.222   4.480   7.256  0.2224  0.0387 -0.1348
  798POPS   C3B 9035   3.233   4.417   7.641  0.2819 -0.4799 -0.0869
  798POPS   C4B 9036   3.307   4.480   8.113 -0.0698 -0.0758  0.1208
  799POPS   CNO 9037  16.059  10.121   6.402 -0.3746 -0.2808  0.0433
  799POPS   PO4 9038  16.462   9.915   6.389  0.3915 -0.0248  0.1215
  799POPS   GL1 9039  16.732   9.831   6.732 -0.0268 -0.1728 -0.2989
  799POPS   GL2 9040  16.719   9.505   6.807 -0.3053  0.1787 -0.1966
  799POPS   C1A 9041  16.830   9.988   7.200 -0.0974  0.0913  0.0052
  799POPS   D2A 9042  16.937   9.884   7.640  0.1810 -0.0377  0.0620
  799POPS   C3A 9043  16.869  10.166   8.034 -0.1049 -0.1258 -0.2220
  799POPS   C4A 9044  16.598  10.358   8.367 -0.0213 -0.2879  0.1116
  799POPS   C1B 9045  16.689   9.487   7.263 -0.1624 -0.1164 -0.0824
  799POPS   C2B 9046  16.718   9.435   7.718  0.3120  0.3292 -0.1854
  799POPS   C3B 9047  16.773   9.216   8.068  0.1531  0.1584 -0.1512
  799POPS   C4B 9048  16.465   9.148   8.481 -0.0352 -0.0168 -0.4896
  800POPS   CNO 9049   9.632   7.880   5.998  0.2577 -0.0655  0.0727
  800POPS   PO4 9050   9.619   7.502   6.163  0.0118 -0.0064  0.3328
  800POPS   GL1 9051   9.633   7.453   6.711  0.1519 -0.0643  0.1382
  800POPS   GL2 9052   9.430   7.506   6.910 -0.1150 -0.0339  0.0511
  800POPS   C1A 9053   9.966   7.337   7.105 -0.0958 -0.0107  0.0489
  800POPS   D2A 9054  10.190   7.181   7.496  0.3037 -0.0151 -0.5601
  800POPS   C3A 9055   9.934   6.941   7.888 -0.0339 -0.2526 -0.0585
  800POPS   C4A 9056   9.713   6.847   8.330  0.0063  0.0104 -0.0832
  800POPS   C1B 9057   9.461   7.584   7.333  0.0647  0.3033 -0.1074
  800POPS   C2B 9058   9.752   7.354   7.585 -0.0907  0.1965 -0.1370
  800POPS   C3B 9059  10.027   7.485   7.883 -0.0267 -0.0279 -0.1714
  800POPS   C4B 9060  10.041   7.291   8.364  0.1017 -0.0703 -0.1043
  801POPS   CNO 9061  17.648  13.952   6.059  0.1622 -0.1267 -0.2042
  801POPS   PO4 9062  17.162  14.064   6.178  0.0202 -0.2044  0.1146
  801POPS   GL1 9063  17.305  13.953   6.519  0.2431 -0.1042  0.1343
  801POPS   GL2 9064  17.616  14.045   6.528  0.1548 -0.2458  0.0442
  801POPS   C1A 9065  17.314  13.830   6.867  0.3911  0.1831 -0.1340
  801POPS   D2A 9066  17.465  14.074   7.130 -0.0643  0.1853 -0.2531
  801POPS   C3A 9067  17.370  13.821   7.577 -0.1556  0.2372  0.0839
  801POPS   C4A 9068  17.413  13.710   7.944  0.2098  0.0260 -0.1187
  801POPS   C1B 9069  17.950  14.012   6.911  0.1891  0.2213 -0.1836
  801POPS   C2B 9070  17.948  14.160   7.321 -0.2899  0.0397  0.1645
  801POPS   C3B 9071  18.096  14.222   7.768  0.1416  0.1056 -0.2374
  801POPS   C4B 9072  18.347  14.256   8.141 -0.0348 -0.3070  0.1174
  802POPS   CNO 9073   6.897   7.451   6.300 -0.2068 -0.0258  0.0435
  802POPS   PO4 9074   7.272   7.416   6.360 -0.1699 -0.1591  0.0054
  802POPS   GL1 9075   7.348   7.485   6.802  0.2635 -0.1731  0.3143
  802POPS   GL2 9076   7.093   7.577   7.025  0.0563 -0.1200 -0.1664
  802POPS   C1A 9077   7.603   7.271   7.108 -0.0618 -0.2383 -0.1189
  802POPS   D2A 9078   7.508   7.123   7.519  0.0573  0.0275  0.0288
  802POPS   C3A 9079   7.308   7.351   7.851 -0.1403 -0.2375  0.0367
  802POPS   C4A 9080   7.207   7.265   8.265 -0.0100  0.4215  0.1479
  802POPS   C1B 9081   7.099   7.203   7.192  0.0494  0.1454  0.0885
  802POPS   C2B 9082   7.050   7.018   7.549 -0.1658  0.0196 -0.1071
  802POPS   C3B 9083   7.193   6.896   7.942 -0.1269  0.1293  0.0050
  802POPS   C4B 9084   7.413   6.792   8.329  0.1019 -0.0085 -0.2765
  803POPS   CNO 9085   0.594   4.829   5.992 -0.1758  0.1634  0.1977
  803POPS   PO4 9086   0.770   5.244   6.107 -0.0971 -0.0682  0.0768
  803POPS   GL1 9087   0.785   4.940   6.480  0.1066  0.0852 -0.1268
  803POPS   GL2 9088   0.552   4.743   6.526 -0.2094 -0.1570  0.1946
  803POPS   C1A 9089   0.632   4.975   6.934  0.1049 -0.2620 -0.2197
  803POPS   D2A 9090   0.268   4.862   7.138 -0.2008  0.0189  0.1354
  803POPS   C3A 9091   0.245   4.962   7.607  0.0616  0.1118  0.2822
  803POPS   C4A 9092   0.186   5.250   7.880 -0.0676 -0.1139 -0.1144
  803POPS   C1B 9093   0.536   4.510   6.895 -0.1270  0.0267 -0.2978
  803POPS   C2B 9094   0.488   4.513   7.374 -0.0062  0.1765 -0.0110
  803POPS   C3B 9095   0.333   4.462   7.736  0.1541 -0.2278 -0.2998
  803POPS   C4B 9096   0.226   4.639   8.103  0.2331  0.1307 -0.0698
  804POPS   CNO 9097   1.087   7.959   5.727 -0.2305  0.0355  0.1856
  804POPS   PO4 9098   1.048   7.777   6.116 -0.3558 -0.0315  0.0630
  804POPS   GL1 9099   0.987   7.667   6.443  0.2258 -0.0166 -0.2312
  804POPS   GL2 9100   0.640   7.594   6.435  0.2003 -0.0440  0.3276
  804POPS   C1A 9101   0.827   7.500   6.867  0.1354 -0.0928 -0.1414
  804POPS   D2A 9102   0.779   7.634   7.290 -0.1036 -0.2289 -0.3662
  804POPS   C3A 9103   0.956   7.484   7.663 -0.1824 -0.2112 -0.3952
  804POPS   C4A 9104   0.942   7.573   8.073  0.0064  0.1344 -0.1598
  804POPS   C1B 9105   0.501   7.876   6.684  0.0007  0.2145  0.0321
  804POPS   C2B 9106   0.307   7.937   7.101 -0.0725  0.1693  0.0400
  804POPS   C3B 9107   0.227   7.893   7.515  0.0123  0.1534 -0.2301
  804POPS   C4B 9108   0.147   7.800   7.946 -0.3548 -0.0850  0.1445
  805POPS   CNO 9109  10.024  15.750   6.248  0.3081 -0.2120 -0.0080
  805POPS   PO4 9110   9.907  15.324   6.542  0.1004  0.1335  0.0564
  805POPS   GL1 9111   9.989  15.331   6.936 -0.0660  0.0710  0.0439
  805POPS   GL2 9112   9.839  15.219   7.176 -0.2396  0.2473 -0.2915
  805POPS   C1A 9113  10.061  15.609   7.250 -0.0566 -0.1988  0.1085
  805POPS   D2A 9114  10.021  15.864   7.478 -0.1526  0.0752 -0.0452
  805POPS   C3A 9115  10.277  15.833   7.867 -0.0076  0.1855 -0.2064
  805POPS   C4A 9116  10.530  15.579   8.150 -0.1198  0.0649 -0.0688
  805POPS   C1B 9117   9.812  14.985   7.585  0.0391  0.0843  0.1488
  805POPS   C2B 9118   9.689  14.880   7.935  0.0201  0.0724  0.1224
  805POPS   C3B 9119   9.597  14.785   8.381 -0.2292 -0.1273 -0.1036
  805POPS   C4B 9120   9.447  14.837   8.813 -0.1111  0.0275 -0.0164
  806POPS   CNO 9121   3.730  16.480   5.358 -0.1063  0.0945 -0.0399
  806POPS   PO4 9122   3.925  16.854   5.584 -0.1724  0.2269  0.0948
  806POPS   GL1 9123   3.910  16.633   5.996 -0.2445 -0.1355 -0.3315
  806POPS   GL2 9124   3.686  16.882   6.084 -0.0323 -0.1471  0.0874
  806POPS   C1A 9125   3.956  16.495   6.374 -0.0493 -0.0864  0.0463
  806POPS   D2A 9126   3.914  16.491   6.852  0.0869 -0.0984  0.0173
  806POPS   C3A 9127   4.264  16.256   7.190 -0.0687 -0.0079 -0.2121
  806POPS   C4A 9128   4.199  16.134   7.611 -0.2200  0.0849 -0.2331
  806POPS   C1B 9129   3.492  17.056   6.361  0.0662  0.1643 -0.0347
  806POPS   C2B 9130   3.521  17.177   6.836 -0.0268  0.3262  0.0352
  806POPS   C3B 9131   3.551  17.290   7.243  0.1510  0.0965 -0.0768
  806POPS   C4B 9132   3.460  17.643   7.492 -0.2078  0.0510 -0.0184
  807POPS   CNO 9133  14.217  10.073   6.998  0.1090 -0.3615 -0.1202
  807POPS   PO4 9134  14.482  10.393   6.779  0.2106  0.2237 -0.0456
  807POPS   GL1 9135  14.463  10.577   7.314 -0.1202 -0.1394 -0.1684
  807POPS   GL2 9136  14.386  10.285   7.463  0.0769 -0.1247  0.1419
  807POPS   C1A 9137  14.392  10.742   7.730  0.0786 -0.0409 -0.0709
  807POPS   D2A 9138  14.493  11.072   8.073  0.1473  0.1580 -0.0810
  807POPS   C3A 9139  14.283  11.010   8.440 -0.0580  0.2894  0.1841
  807POPS   C4A 9140  14.104  11.157   8.829  0.0086  0.0811  0.1036
  807POPS   C1B 9141  14.382  10.296   7.927 -0.2288 -0.2099  0.3538
  807POPS   C2B 9142  14.444  10.595   8.207  0.0376  0.2866 -0.0794
  807POPS   C3B 9143  14.726  10.777   8.410 -0.1696  0.2153 -0.3492
  807POPS   C4B 9144  14.971  11.049   8.624 -0.0810  0.2545 -0.1269
  808POPS   CNO 9145   4.426   7.543   6.348 -0.1310 -0.2131  0.0910
  808POPS   PO4 9146   4.650   7.500   6.715 -0.0017  0.0718 -0.2102
  808POPS   GL1 9147   4.696   7.618   7.181  0.1289  0.2062 -0.2840
  808POPS   GL2 9148   4.919   7.908   7.215 -0.2379  0.0902  0.0229
  808POPS   C1A 9149   4.370   7.796   7.524  0.0793  0.1315 -0.1684
  808POPS   D2A 9150   4.247   7.712   7.931 -0.4348 -0.2209  0.1444
  808POPS   C3A 9151   4.397   7.333   8.213  0.0406 -0.1258  0.2938
  808POPS   C4A 9152   4.497   6.975   8.413  0.2067 -0.0592  0.0400
  808POPS   C1B 9153   4.991   7.960   7.622  0.4979  0.1790 -0.2896
  808POPS   C2B 9154   4.699   7.954   7.881 -0.1634 -0.2327  0.0535
  808POPS   C3B 9155   4.611   7.759   8.296 -0.1556 -0.1004 -0.1981
  808POPS   C4B 9156   4.806   7.719   8.771 -0.2122  0.2007  0.2300
  809YOPS   CNO 9157  15.472   1.844   6.015 -0.1204  0.2620  0.1890
  809YOPS   PO4 9158  15.825   2.128   6.033 -0.0528 -0.0365 -0.1341
  809YOPS   GL1 9159  15.792   1.898   6.421 -0.5528 -0.2009  0.4726
  809YOPS   GL2 9160  15.967   1.674   6.398 -0.3033  0.0957 -0.2989
  809YOPS   C1A 9161  15.925   2.032   6.788  0.1325  0.0206 -0.0052
  809YOPS   D2A 9162  15.940   1.948   7.230 -0.2579  0.0604 -0.2092
  809YOPS   C3A 9163  15.987   1.758   7.671 -0.3897  0.1696 -0.0131
  809YOPS   C4A 9164  16.349   1.740   7.880  0.0439 -0.2143  0.1364
  809YOPS   C1B 9165  15.982   1.525   6.827  0.0557 -0.1933 -0.2292
  809YOPS   C2B 9166  15.977   1.429   7.238 -0.0754 -0.0633 -0.0759
  809YOPS   D3B 9167  16.141   1.191   7.484  0.0457  0.0455  0.2184
  809YOPS   C4B 9168  16.300   0.774   7.596 -0.0372 -0.2206  0.1415
  810YOPS   CNO 9169   6.677   0.258   5.716  0.0327  0.0070 -0.1001
  810YOPS   PO4 9170   6.738   0.476   6.111 -0.1776 -0.0625  0.2624
  810YOPS   GL1 9171   6.352   0.351   6.470 -0.0490  0.1005 -0.0490
  810YOPS   GL2 9172   6.152   0.138   6.441  0.0412  0.2391  0.2010
  810YOPS   C1A 9173   6.125   0.540   6.764  0.2795  0.1945  0.1603
  810YOPS   D2A 9174   6.181   0.740   7.092 -0.0346 -0.2526 -0.2748
  810YOPS   C3A 9175   6.396   1.016   7.353 -0.1735 -0.0878 -0.2686
  810YOPS   C4A 9176   6.633   1.043   7.739 -0.0190  0.1124 -0.1014
  810YOPS   C1B 9177   6.003   0.044   6.781 -0.0554  0.1598  0.1168
  810YOPS   C2B 9178   6.165   0.138   7.123  0.0466  0.0542 -0.0188
  810YOPS   D3B 9179   6.275   0.212   7.497  0.0856  0.1171 -0.0713
  810YOPS   C4B 9180   6.114   0.234   7.915  0.0688 -0.2202 -0.0801
  811YOPS   CNO 9181  13.098   2.359   6.021 -0.0383  0.2196 -0.0630
  811YOPS   PO4 9182  12.752   2.321   6.151  0.0948 -0.1305 -0.0415
  811YOPS   GL1 9183  12.743   2.469   6.524 -0.1498 -0.1046 -0.0942
  811YOPS   GL2 9184  12.792   2.856   6.659 -0.0077  0.1651 -0.0425
  811YOPS   C1A 9185  12.886   2.545   7.003 -0.2183  0.0882  0.0284
  811YOPS   D2A 9186  12.757   2.808   7.415 -0.1439  0.2335 -0.1226
  811YOPS   C3A 9187  12.846   2.975   7.687  0.1418 -0.1249 -0.1649
  811YOPS   C4A 9188  12.742   2.745   8.053  0.0967  0.0639  0.1172
  811YOPS   C1B 9189  12.588   3.038   7.021  0.1483 -0.0188  0.1346
  811YOPS   C2B 9190  12.451   3.264   7.378 -0.3117  0.0552 -0.0440
  811YOPS   D3B 9191  12.225   3.044   7.633  0.1591 -0.0640  0.4860
  811YOPS   C4B 9192  11.947   2.721   7.498 -0.0260 -0.1351 -0.0344
  812YOPS   CNO 9193   4.695  13.171   6.039  0.3969  0.0235  0.1006
  812YOPS   PO4 9194   4.256  13.252   6.042 -0.1133 -0.0611  0.1781
  812YOPS   GL1 9195   4.481  13.412   6.468  0.1795 -0.0559  0.1676
  812YOPS   GL2 9196   4.927  13.428   6.593 -0.0950  0.2276  0.0316
  812YOPS   C1A 9197   4.491  13.628   6.802 -0.0791 -0.0373  0.0871
  812YOPS   D2A 9198   4.229  13.831   7.122  0.1425  0.0695  0.0646
  812YOPS   C3A 9199   4.044  14.151   7.424  0.3077  0.1471  0.1571
  812YOPS   C4A 9200   3.743  14.386   7.683  0.1359  0.0384  0.2714
  812YOPS   C1B 9201   4.764  13.197   6.942 -0.0570 -0.3167  0.1805
  812YOPS   C2B 9202   4.441  13.308   7.276 -0.2172  0.3048  0.3237
  812YOPS   D3B 9203   4.019  13.243   7.458 -0.1732 -0.0712  0.0037
  812YOPS   C4B 9204   3.830  13.712   7.377  0.0987 -0.1271 -0.0034
  813YOPS   CNO 9205  10.346   6.112   5.808  0.5650  0.3435 -0.3596
  813YOPS   PO4 9206  10.376   5.795   6.072 -0.1555 -0.1150  0.0090
  813YOPS   GL1 9207  10.374   5.791   6.453 -0.0205 -0.0657 -0.1926
  813YOPS   GL2 9208  10.636   5.846   6.626  0.3104 -0.2527 -0.0767
  813YOPS   C1A 9209  10.212   5.668   6.828 -0.1847  0.0423 -0.0047
  813YOPS   D2A 9210  10.119   5.563   7.216 -0.0078  0.2033 -0.1721
  813YOPS   C3A 9211  10.087   5.526   7.624  0.2066  0.0021 -0.0481
  813YOPS   C4A 9212   9.874   5.450   7.877 -0.2244 -0.1036 -0.2167
  813YOPS   C1B 9213  10.716   5.728   7.005 -0.2417 -0.1690 -0.0836
  813YOPS   C2B 9214  10.743   5.954   7.347 -0.2424  0.1276  0.3242
  813YOPS   D3B 9215  10.538   5.746   7.722  0.1617  0.0986  0.2690
  813YOPS   C4B 9216  10.601   5.884   8.164 -0.0278  0.0513 -0.1580
  814YOPS   CNO 9217   4.885  11.582   6.223 -0.0083 -0.0650 -0.0144
  814YOPS   PO4 9218   5.187  11.583   6.474 -0.3636  0.0583 -0.2417
  814YOPS   GL1 9219   5.028  11.488   6.931 -0.1850 -0.0545  0.0491
  814YOPS   GL2 9220   4.759  11.392   6.940  0.0661 -0.0258  0.1448
  814YOPS   C1A 9221   4.861  11.596   7.376 -0.1357 -0.3105 -0.1343
  814YOPS   D2A 9222   4.719  11.689   7.716  0.4985 -0.0689 -0.3314
  814YOPS   C3A 9223   4.469  11.704   8.030  0.1494  0.0214 -0.1033
  814YOPS   C4A 9224   4.315  11.861   8.422 -0.3360  0.1094 -0.0929
  814YOPS   C1B 9225   4.484  11.360   7.276  0.1976  0.0802  0.2924
  814YOPS   C2B 9226   4.394  11.370   7.693  0.2361 -0.3707 -0.1473
  814YOPS   D3B 9227   4.441  11.198   8.181  0.1759  0.2309 -0.0332
  814YOPS   C4B 9228   4.458  10.782   8.335 -0.4475 -0.0236 -0.2987
  815YOPS   CNO 9229   9.539   3.143   5.235  0.1716  0.0714 -0.0711
  815YOPS   PO4 9230   9.344   3.065   5.686  0.1939 -0.4060 -0.1918
  815YOPS   GL1 9231   9.361   3.130   6.140 -0.0604  0.3177  0.0492
  815YOPS   GL2 9232   9.594   2.931   6.244  0.0135  0.0364  0.1124
  815YOPS   C1A 9233   9.301   3.450   6.559 -0.1563 -0.0130 -0.0464
  815YOPS   D2A 9234   8.872   3.638   6.629 -0.3441 -0.0168  0.2042
  815YOPS   C3A 9235   8.507   3.727   6.798  0.0336  0.2677  0.1767
  815YOPS   C4A 9236   8.446   3.659   7.223 -0.3602  0.3280  0.0801
  815YOPS   C1B 9237   9.689   3.093   6.586 -0.1100 -0.0487 -0.0032
  815YOPS   C2B 9238   9.725   3.105   7.023  0.2443  0.0168 -0.0094
  815YOPS   D3B 9239   9.524   2.943   7.365  0.3056 -0.0973 -0.1726
  815YOPS   C4B 9240   9.469   3.180   7.782  0.3820  0.0153  0.2620
  816YOPS   CNO 9241  12.598  16.971   6.575 -0.1521 -0.0144  0.0887
  816YOPS   PO4 9242  12.910  16.722   6.566 -0.3444  0.1187  0.0905
  816YOPS   GL1 9243  12.938  16.593   6.969  0.2315  0.0460 -0.0365
  816YOPS   GL2 9244  12.616  16.764   7.064  0.2897  0.1092  0.1402
  816YOPS   C1A 9245  13.122  16.441   7.319 -0.3418  0.0036  0.1618
  816YOPS   D2A 9246  13.209  16.486   7.881 -0.0169 -0.0597  0.0835
  816YOPS   C3A 9247  13.040  16.625   8.317 -0.0484  0.1474 -0.1378
  816YOPS   C4A 9248  13.116  17.020   8.278 -0.1049 -0.2406  0.3723
  816YOPS   C1B 9249  12.622  16.648   7.493  0.3177  0.2131  0.0888
  816YOPS   C2B 9250  12.714  16.615   7.860  0.1011 -0.1811 -0.0236
  816YOPS   D3B 9251  12.586  16.830   8.254 -0.0913  0.2435 -0.0484
  816YOPS   C4B 9252  12.565  16.519   8.550  0.1424  0.1046  0.0322
  817YOPS   CNO 9253   2.519   6.693   6.404  0.1397 -0.1462 -0.2440
  817YOPS   PO4 9254   2.246   6.994   6.560 -0.0544 -0.1651  0.1077
  817YOPS   GL1 9255   2.371   7.116   6.969  0.0852  0.1463  0.1832
  817YOPS   GL2 9256   2.769   7.051   6.920  0.2892 -0.0821  0.2134
  817YOPS   C1A 9257   2.343   7.214   7.332 -0.1451 -0.0492 -0.0054
  817YOPS   D2A 9258   2.334   7.177   7.724  0.1402 -0.3741 -0.0926
  817YOPS   C3A 9259   2.511   7.127   8.171 -0.0253  0.0400  0.1510
  817YOPS   C4A 9260   2.205   7.113   8.521 -0.0367 -0.2008  0.0376
  817YOPS   C1B 9261   2.654   6.785   7.203 -0.0830 -0.1403  0.0343
  817YOPS   C2B 9262   2.643   6.762   7.612  0.0137 -0.1326  0.1871
  817YOPS   D3B 9263   2.300   6.727   7.919 -0.0882  0.1828  0.1679
  817YOPS   C4B 9264   2.411   6.662   8.345  0.3390  0.1140  0.0229
  818YOPS   CNO 9265  11.129   8.279   6.640 -0.0261  0.1666  0.1200
  818YOPS   PO4 9266  10.791   7.975   6.733 -0.1033 -0.1494 -0.2133
  818YOPS   GL1 9267  10.841   7.770   7.034 -0.3800  0.0348  0.4161
  818YOPS   GL2 9268  10.713   7.454   6.941  0.0081  0.0985 -0.1583
  818YOPS   C1A 9269  10.921   7.643   7.457 -0.2732 -0.0314 -0.1878
  818YOPS   D2A 9270  10.680   7.329   7.613  0.1839 -0.0595 -0.1204
  818YOPS   C3A 9271  10.480   7.263   8.020 -0.0605 -0.0026 -0.1063
  818YOPS   C4A 9272  10.653   7.173   8.429 -0.2354  0.1094  0.0293
  818YOPS   C1B 9273  10.559   7.128   7.124  0.0862 -0.0011 -0.2457
  818YOPS   C2B 9274  10.577   6.860   7.460 -0.1300 -0.2749 -0.1743
  818YOPS   D3B 9275  10.426   6.801   7.813  0.2801  0.1948 -0.0439
  818YOPS   C4B 9276  10.318   6.888   8.281  0.2624  0.0442 -0.1486
  819YOPS   CNO 9277  11.919   0.209   6.492  0.2256 -0.0790 -0.0727
  819YOPS   PO4 9278  11.917   0.618   6.632  0.0907  0.0820  0.2385
  819YOPS   GL1 9279  11.837   0.764   6.945 -0.1693 -0.2031 -0.0023
  819YOPS   GL2 9280  11.705   1.054   6.825 -0.1382 -0.0342 -0.3078
  819YOPS   C1A 9281  11.954   0.690   7.393  0.3433 -0.1406 -0.1891
  819YOPS   D2A 9282  12.048   0.761   7.842 -0.0230  0.3127 -0.1887
  819YOPS   C3A 9283  12.266   0.759   8.186  0.0508 -0.1628  0.0519
  819YOPS   C4A 9284  12.065   0.907   8.489 -0.1068 -0.1160  0.0486
  819YOPS   C1B 9285  11.722   1.373   7.219 -0.2451  0.2020  0.0402
  819YOPS   C2B 9286  11.742   1.605   7.588 -0.0552  0.1171  0.0012
  819YOPS   D3B 9287  11.717   1.765   7.944 -0.1009 -0.1700 -0.2036
  819YOPS   C4B 9288  12.016   1.686   8.292  0.0338  0.2206 -0.1104
  820YOPS   CNO 9289  13.640   2.825   6.175 -0.1482  0.2562 -0.3260
  820YOPS   PO4 9290  13.985   2.549   6.278  0.1275  0.1057 -0.2134
  820YOPS   GL1 9291  13.925   2.529   6.744 -0.0481  0.3200  0.0827
  820YOPS   GL2 9292  14.070   2.217   6.734  0.1304  0.1537 -0.2237
  820YOPS   C1A 9293  13.801   2.688   7.170 -0.0353  0.0582  0.5354
  820YOPS   D2A 9294  13.689   2.695   7.521  0.1745 -0.0567  0.1737
  820YOPS   C3A 9295  13.954   2.731   7.874  0.0345  0.0679  0.3641
  820YOPS   C4A 9296  14.369   2.985   7.912  0.0014 -0.2546 -0.0605
  820YOPS   C1B 9297  14.124   2.255   7.214 -0.0562  0.0323 -0.3400
  820YOPS   C2B 9298  13.908   2.250   7.607  0.0022  0.0408 -0.3931
  820YOPS   D3B 9299  13.821   2.243   7.978 -0.1830  0.2498 -0.1887
  820YOPS   C4B 9300  13.585   2.617   8.241 -0.0548  0.4839  0.3487
  821YOPS   CNO 9301   6.947   8.435   6.633  0.1252  0.0976 -0.0555
  821YOPS   PO4 9302   7.081   8.784   6.840  0.0066 -0.0729  0.0114
  821YOPS   GL1 9303   7.157   8.929   7.275  0.2008  0.5822 -0.1447
  821YOPS   GL2 9304   6.853   9.073   7.433  0.1694 -0.0435  0.3620
  821YOPS   C1A 9305   7.380   8.800   7.610  0.0339  0.2606  0.1057
  821YOPS   D2A 9306   7.565   8.966   7.949 -0.0055  0.0335  0.2464
  821YOPS   C3A 9307   7.747   9.022   8.352 -0.0913  0.1168 -0.0753
  821YOPS   C4A 9308   7.446   9.367   8.690 -0.1038  0.1357  0.2526
  821YOPS   C1B 9309   6.664   9.027   7.819  0.2272 -0.3209  0.0015
  821YOPS   C2B 9310   6.431   8.853   8.192  0.2166  0.1484  0.1353
  821YOPS   D3B 9311   6.461   8.634   8.600  0.0514 -0.1471  0.2637
  821YOPS   C4B 9312   6.248   8.486   9.058  0.1908  0.1353 -0.0334
  822YOPS   CNO 9313   6.693  10.667   6.189  0.0788  0.1444 -0.2495
  822YOPS   PO4 9314   6.594  10.849   6.535 -0.1287  0.0165  0.5778
  822YOPS   GL1 9315   6.501  10.955   6.866 -0.0217  0.0534 -0.0873
  822YOPS   GL2 9316   6.415  11.322   6.920 -0.2153 -0.0146 -0.1272
  822YOPS   C1A 9317   6.315  10.872   7.220  0.1832  0.3472 -0.2548
  822YOPS   D2A 9318   6.267  10.932   7.625  0.2099 -0.1020 -0.1834
  822YOPS   C3A 9319   6.307  10.819   8.025  0.1945 -0.2088 -0.0285
  822YOPS   C4A 9320   6.175  10.729   8.494 -0.0047 -0.1456  0.1232
  822YOPS   C1B 9321   6.511  11.322   7.310 -0.1503  0.1162  0.1589
  822YOPS   C2B 9322   6.454  11.382   7.760  0.2672  0.2234 -0.1246
  822YOPS   D3B 9323   6.587  11.305   8.172 -0.1788  0.1148  0.0444
  822YOPS   C4B 9324   6.583  10.959   8.440  0.1794 -0.0126 -0.1695
  823YOPS   CNO 9325  17.045  17.363   5.519 -0.1007 -0.1115 -0.2054
  823YOPS   PO4 9326  17.399  17.177   5.757 -0.0619 -0.2445 -0.1154
  823YOPS   GL1 9327  17.600  17.054   6.060  0.1500  0.0843 -0.1563
  823YOPS   GL2 9328  17.689  17.361   6.142 -0.2481 -0.0785 -0.1798
  823YOPS   C1A 9329  17.855  16.989   6.451 -0.0034  0.0675 -0.0470
  823YOPS   D2A 9330  18.037  16.827   6.739  0.1360  0.2493  0.1973
  823YOPS   C3A 9331  17.897  16.648   7.072 -0.0403 -0.1737 -0.5379
  823YOPS   C4A 9332  17.937  16.214   7.036  0.4378  0.2539 -0.1084
  823YOPS   C1B 9333  17.571  17.375   6.606  0.2015  0.1383  0.0030
  823YOPS   C2B 9334  17.476  17.532   6.943 -0.2664  0.1477  0.3317
  823YOPS   D3B 9335  17.504  17.880   7.149 -0.2580 -0.2127  0.2635
  823YOPS   C4B 9336  17.550  17.897   7.546  0.3141  0.1151  0.2282
  824YOPS   CNO 9337   1.438  10.463   6.375  0.0599  0.0952  0.0201
  824YOPS   PO4 9338   0.957  10.323   6.384 -0.2512 -0.0848  0.1615
  824YOPS   GL1 9339   1.242  10.022   6.733  0.2894  0.1965 -0.3080
  824YOPS   GL2 9340   1.396   9.731   6.709  0.2328 -0.2255 -0.2265
  824YOPS   C1A 9341   1.345  10.062   7.181 -0.1523 -0.0488 -0.1306
  824YOPS   D2A 9342   1.286  10.292   7.559  0.1150  0.0773 -0.2011
  824YOPS   C3A 9343   1.273  10.495   7.888  0.2465 -0.0048 -0.1145
  824YOPS   C4A 9344   1.572  10.978   7.906 -0.0245 -0.0316  0.1626
  824YOPS   C1B 9345   1.449   9.568   7.045  0.1106  0.0535 -0.4215
  824YOPS   C2B 9346   1.388   9.469   7.506 -0.3140  0.2075 -0.0825
  824YOPS   D3B 9347   1.473   9.417   7.954  0.0409  0.1574  0.0966
  824YOPS   C4B 9348   1.543   9.737   8.228 -0.0074  0.0446  0.0515
  825YOPS   CNO 9349   6.716  14.491   6.249  0.0717 -0.0756  0.0107
  825YOPS   PO4 9350   6.486  14.834   6.517  0.3557  0.0568  0.1968
  825YOPS   GL1 9351   6.479  14.894   6.898  0.2900  0.0298 -0.0293
  825YOPS   GL2 9352   6.488  14.630   6.981 -0.2514  0.0463 -0.0910
  825YOPS   C1A 9353   6.444  14.913   7.320 -0.2675  0.0800  0.2216
  825YOPS   D2A 9354   6.295  14.820   7.678 -0.3694 -0.0682  0.1647
  825YOPS   C3A 9355   6.219  14.712   8.107  0.0294  0.2184 -0.0031
  825YOPS   C4A 9356   6.332  14.363   8.226  0.3608  0.1521 -0.2096
  825YOPS   C1B 9357   6.573  14.451   7.484 -0.0419  0.0227  0.3954
  825YOPS   C2B 9358   6.663  14.563   7.915 -0.1876  0.1179  0.0526
  825YOPS   D3B 9359   6.813  14.673   8.301 -0.2314  0.2241  0.0131
  825YOPS   C4B 9360   6.750  14.221   8.608  0.4344 -0.1448 -0.1071
  826YOPS   CNO 9361  13.399   1.028   6.321  0.1097 -0.1478 -0.3452
  826YOPS   PO4 9362  13.637   0.625   6.392  0.1632  0.0721 -0.3170
  826YOPS   GL1 9363  13.813   0.623   6.800  0.1769 -0.2652 -0.0571
  826YOPS   GL2 9364  13.462   0.788   6.838 -0.3243 -0.1372  0.1235
  826YOPS   C1A 9365  13.817   0.617   7.299  0.0096  0.1685 -0.2412
  826YOPS   D2A 9366  13.900   0.698   7.773  0.0452 -0.1647  0.1552
  826YOPS   C3A 9367  13.895   0.735   8.233 -0.2663 -0.0752 -0.1311
  826YOPS   C4A 9368  13.855   1.138   8.372 -0.1551 -0.0695  0.0774
  826YOPS   C1B 9369  13.377   0.860   7.230 -0.0573 -0.2371  0.4597
  826YOPS   C2B 9370  13.515   0.927   7.569  0.0889  0.3262 -0.0265
  826YOPS   D3B 9371  13.695   1.117   7.900  0.1715  0.2364 -0.0866
  826YOPS   C4B 9372  13.780   1.545   8.014 -0.0502 -0.1109  0.2507
  827YOPS   CNO 9373  13.457  10.097   6.584  0.1370  0.1598  0.1003
  827YOPS   PO4 9374  13.794   9.935   6.819 -0.0351 -0.0392  0.0548
  827YOPS   GL1 9375  13.785  10.133   7.288  0.0228  0.4142 -0.1056
  827YOPS   GL2 9376  13.775  10.451   7.419 -0.2543 -0.3604 -0.0100
  827YOPS   C1A 9377  14.021  10.045   7.593  0.3089  0.0070 -0.0696
  827YOPS   D2A 9378  13.989  10.087   8.084 -0.0617 -0.0767  0.1017
  827YOPS   C3A 9379  13.837   9.907   8.516  0.1177  0.1236  0.0808
  827YOPS   C4A 9380  13.526   9.925   8.855 -0.1654  0.0623  0.1600
  827YOPS   C1B 9381  13.871  10.540   7.787  0.0039 -0.2004 -0.0747
  827YOPS   C2B 9382  13.929  10.643   8.200 -0.1375  0.1960  0.0511
  827YOPS   D3B 9383  14.015  10.682   8.676  0.0887 -0.2192 -0.0036
  827YOPS   C4B 9384  13.655  10.850   8.906 -0.1125  0.1498 -0.2187
  828YOPS   CNO 9385   0.824   6.242   6.164  0.1587 -0.0583  0.2208
  828YOPS   PO4 9386   1.225   6.200   6.268 -0.0305  0.1375  0.1523
  828YOPS   GL1 9387   1.420   6.097   6.729  0.3596  0.2272 -0.0543
  828YOPS   GL2 9388   1.707   5.980   6.709  0.0719  0.4689  0.0797
  828YOPS   C1A 9389   1.314   6.243   7.031 -0.1006  0.1267  0.2594
  828YOPS   D2A 9390   1.215   6.155   7.482  0.0027 -0.3044 -0.1017
  828YOPS   C3A 9391   1.170   6.215   7.878 -0.4480 -0.1633  0.1031
  828YOPS   C4A 9392   1.423   6.548   8.145 -0.0731 -0.0789  0.2701
  828YOPS   C1B 9393   1.786   5.943   7.131 -0.2705 -0.2719 -0.3109
  828YOPS   C2B 9394   1.614   5.755   7.560  0.1192 -0.2440  0.1560
  828YOPS   D3B 9395   1.382   5.768   8.098  0.0505 -0.0428 -0.3337
  828YOPS   C4B 9396   1.527   6.111   8.281 -0.2970  0.1927 -0.3329
  829YOPS   CNO 9397  17.560  13.547   6.343  0.1203 -0.0753  0.1966
  829YOPS   PO4 9398  17.865  13.226   6.435 -0.4563  0.1716 -0.0692
  829YOPS   GL1 9399  17.845  13.300   6.828  0.3705 -0.0524 -0.1112
  829YOPS   GL2 9400  17.726  13.535   6.934  0.2317  0.4516 -0.2053
  829YOPS   C1A 9401  17.908  13.183   7.253 -0.0805  0.0747 -0.1040
  829YOPS   D2A 9402  18.032  13.305   7.647  0.2412 -0.1153  0.1304
  829YOPS   C3A 9403  18.279  13.337   7.992  0.0619 -0.1843 -0.0063
  829YOPS   C4A 9404  18.323  13.699   8.135 -0.1139  0.1680 -0.2670
  829YOPS   C1B 9405  17.722  13.588   7.320 -0.1133  0.0173  0.3106
  829YOPS   C2B 9406  17.864  13.781   7.695 -0.1085 -0.0035 -0.2266
  829YOPS   D3B 9407  17.909  13.935   8.180 -0.1359 -0.0901  0.1748
  829YOPS   C4B 9408  17.868  14.369   8.265 -0.0936  0.0426 -0.0348
  830YOPS   CNO 9409   8.356  12.189   6.540  0.0247 -0.1552  0.4359
  830YOPS   PO4 9410   8.191  11.908   6.830  0.3737 -0.2070 -0.1920
  830YOPS   GL1 9411   8.070  12.100   7.132 -0.1720  0.1952 -0.0501
  830YOPS   GL2 9412   7.770  12.196   7.241 -0.1726  0.0407  0.0491
  830YOPS   C1A 9413   8.202  12.277   7.491  0.2814 -0.3386 -0.0409
  830YOPS   D2A 9414   8.094  12.353   7.922  0.0008 -0.0674  0.0356
  830YOPS   C3A 9415   8.000  12.371   8.357  0.1536  0.1947  0.1331
  830YOPS   C4A 9416   8.225  12.695   8.608  0.0398  0.0912  0.0781
  830YOPS   C1B 9417   7.693  12.321   7.651 -0.0509 -0.2834  0.2036
  830YOPS   C2B 9418   7.533  12.350   8.119 -0.3628  0.3133  0.1314
  830YOPS   D3B 9419   7.416  12.362   8.489  0.2481 -0.1301  0.2646
  830YOPS   C4B 9420   7.740  12.524   8.770 -0.1335 -0.3123 -0.0452
  831YOPS   CNO 9421   9.154  10.132   6.761  0.1860 -0.1312  0.0514
  831YOPS   PO4 9422   9.149  10.527   6.984 -0.2226 -0.1127 -0.0438
  831YOPS   GL1 9423   9.310  10.675   7.359  0.0577  0.2887 -0.2168
  831YOPS   GL2 9424   9.585  10.608   7.324 -0.2035  0.2166  0.0399
  831YOPS   C1A 9425   9.251  10.991   7.762 -0.0179 -0.1417 -0.2918
  831YOPS   D2A 9426   9.258  11.331   8.181  0.0569  0.2710  0.0172
  831YOPS   C3A 9427   9.336  11.601   8.526 -0.1294 -0.0691 -0.4847
  831YOPS   C4A 9428   9.420  11.471   8.968 -0.0887 -0.3985  0.2650
  831YOPS   C1B 9429   9.681  10.832   7.651  0.0515  0.1860 -0.1202
  831YOPS   C2B 9430   9.634  10.967   8.169 -0.2139 -0.1479 -0.1605
  831YOPS   D3B 9431   9.614  11.178   8.589 -0.0287  0.4254 -0.1404
  831YOPS   C4B 9432   9.858  11.573   8.682  0.0842  0.0384  0.2725
  832YOPS   CNO 9433   3.806  12.316   6.188  0.0214 -0.1853  0.2340
  832YOPS   PO4 9434   4.097  11.904   6.225  0.0598  0.1961 -0.2608
  832YOPS   GL1 9435   4.036  12.007   6.635  0.0353  0.1416 -0.2054
  832YOPS   GL2 9436   3.908  11.770   6.706 -0.2237 -0.0525 -0.0579
  832YOPS   C1A 9437   3.990  12.204   6.983 -0.0588 -0.0815  0.4178
  832YOPS   D2A 9438   4.077  12.303   7.391  0.2618 -0.1695 -0.3025
  832YOPS   C3A 9439   3.935  12.284   7.841 -0.0453  0.1608  0.0953
  832YOPS   C4A 9440   4.250  12.193   8.075  0.0458  0.1211 -0.1110
  832YOPS   C1B 9441   3.734  11.787   7.044  0.1606 -0.2616  0.0486
  832YOPS   C2B 9442   3.782  11.894   7.424 -0.2198 -0.0170 -0.0292
  832YOPS   D3B 9443   3.545  11.781   7.745  0.0247 -0.1943  0.2791
  832YOPS   C4B 9444   3.289  12.026   8.079  0.2832  0.0449 -0.0117
  833YOPS   CNO 9445  16.045  11.875   6.405  0.0505 -0.1191 -0.0760
  833YOPS   PO4 9446  15.570  11.769   6.572 -0.2442  0.0093  0.1017
  833YOPS   GL1 9447  15.596  11.589   6.922  0.0583  0.3243  0.1578
  833YOPS   GL2 9448  15.629  11.312   6.862  0.1994 -0.2601 -0.2470
  833YOPS   C1A 9449  15.696  11.610   7.340 -0.0009  0.1219  0.1069
  833YOPS   D2A 9450  15.755  11.512   7.773  0.1068  0.0758 -0.0520
  833YOPS   C3A 9451  15.916  11.259   8.154  0.0036  0.0748 -0.1711
  833YOPS   C4A 9452  15.936  11.336   8.545 -0.1991  0.2660  0.0939
  833YOPS   C1B 9453  15.903  11.184   7.218  0.0503 -0.0787 -0.1043
  833YOPS   C2B 9454  16.226  11.087   7.588  0.2002 -0.1042 -0.1642
  833YOPS   D3B 9455  16.615  11.251   7.888 -0.0066 -0.0701 -0.1210
  833YOPS   C4B 9456  16.685  11.602   7.651  0.2333  0.0977  0.2898
  834YOPS   CNO 9457   4.371   3.314   5.753 -0.3098  0.1291 -0.2562
  834YOPS   PO4 9458   4.530   3.164   6.096 -0.4239 -0.0189 -0.2444
  834YOPS   GL1 9459   4.705   3.017   6.467 -0.1175 -0.0819  0.1667
  834YOPS   GL2 9460   4.992   3.167   6.398  0.2008 -0.1210  0.0698
  834YOPS   C1A 9461   4.785   2.943   6.824  0.0582 -0.0990 -0.1047
  834YOPS   D2A 9462   4.810   2.846   7.220  0.3674 -0.1912 -0.2253
  834YOPS   C3A 9463   4.961   2.747   7.641  0.3189 -0.0108  0.0863
  834YOPS   C4A 9464   5.154   3.052   7.807 -0.1356 -0.2272  0.0673
  834YOPS   C1B 9465   5.257   3.060   6.727  0.1943 -0.1594 -0.0594
  834YOPS   C2B 9466   5.381   3.076   7.119  0.0709 -0.0634  0.1084
  834YOPS   D3B 9467   5.426   3.255   7.399  0.0977  0.1046  0.1341
  834YOPS   C4B 9468   5.715   3.025   7.685 -0.1339 -0.1437 -0.1870
  835YOPS   CNO 9469   0.439  17.499   5.809 -0.2195  0.0977  0.1280
  835YOPS   PO4 9470   0.175  17.685   5.937 -0.2283  0.0026 -0.0283
  835YOPS   GL1 9471   0.240  17.581   6.302  0.4085 -0.1867 -0.2024
  835YOPS   GL2 9472   0.014  17.535   6.411  0.0100 -0.1238  0.1532
  835YOPS   C1A 9473   0.409  17.595   6.743  0.0244  0.1973  0.1307
  835YOPS   D2A 9474   0.426  17.572   7.157  0.0916 -0.2520 -0.0246
  835YOPS   C3A 9475   0.377  17.933   7.385 -0.3316 -0.0078  0.1668
  835YOPS   C4A 9476   0.716  18.285   7.434  0.0857 -0.0727  0.0390
  835YOPS   C1B 9477   0.049  17.316   6.764  0.0933 -0.1135  0.2334
  835YOPS   C2B 9478   0.171  17.102   7.158 -0.0408  0.1820 -0.0089
  835YOPS   D3B 9479   0.168  17.162   7.578 -0.0937  0.1578 -0.1653
  835YOPS   C4B 9480   0.245  17.538   7.677 -0.0786  0.0652 -0.1389
  836YOPS   CNO 9481  15.109   8.682   6.574 -0.0846  0.0926  0.0475
  836YOPS   PO4 9482  15.055   9.152   6.536  0.0813 -0.2019  0.1531
  836YOPS   GL1 9483  15.126   9.382   6.904 -0.0780  0.1144 -0.1231
  836YOPS   GL2 9484  14.866   9.461   7.001 -0.0525  0.2514  0.4188
  836YOPS   C1A 9485  15.323   9.493   7.300 -0.1047 -0.2077 -0.3059
  836YOPS   D2A 9486  15.358   9.462   7.694 -0.0964  0.0719  0.1044
  836YOPS   C3A 9487  15.362   9.366   8.046 -0.1601 -0.0286  0.0251
  836YOPS   C4A 9488  15.067   9.142   8.352 -0.1313 -0.0149  0.2999
  836YOPS   C1B 9489  14.778   9.347   7.461 -0.2881 -0.0628 -0.0889
  836YOPS   C2B 9490  14.899   9.318   7.934  0.1527  0.1392 -0.0139
  836YOPS   D3B 9491  14.601   9.265   8.229  0.0334  0.0766 -0.2674
  836YOPS   C4B 9492  14.631   9.253   8.588 -0.1001 -0.1016 -0.1753
  837YOPS   CNO 9493  16.328  17.715   5.825 -0.0513 -0.0537  0.1124
  837YOPS   PO4 9494  16.206  17.936   6.247  0.1518 -0.4686 -0.0933
  837YOPS   GL1 9495  16.372  17.821   6.654 -0.2318  0.0304  0.1394
  837YOPS   GL2 9496  16.558  17.526   6.719  0.3874  0.0208 -0.0238
  837YOPS   C1A 9497  16.431  17.992   6.986 -0.2550 -0.2188  0.2452
  837YOPS   D2A 9498  16.627  18.078   7.402  0.2932 -0.1321 -0.2057
  837YOPS   C3A 9499  16.608  18.262   7.822 -0.0261  0.0563  0.0058
  837YOPS   C4A 9500  16.582  18.650   7.959  0.0319 -0.0415 -0.1970
  837YOPS   C1B 9501  16.661  17.546   7.238 -0.1751 -0.2082 -0.1300
  837YOPS   C2B 9502  16.626  17.571   7.630 -0.3880 -0.0510  0.0193
  837YOPS   D3B 9503  16.842  17.707   7.986 -0.1689 -0.1740  0.1681
  837YOPS   C4B 9504  17.224  17.793   8.162  0.3025 -0.0490  0.0163
  838YOPS   CNO 9505   0.638   4.001   5.800 -0.1253  0.2394 -0.0463
  838YOPS   PO4 9506   0.480   3.623   5.843  0.0927  0.0695 -0.2181
  838YOPS   GL1 9507   0.445   3.560   6.227 -0.1490  0.0494  0.2669
  838YOPS   GL2 9508   0.510   3.835   6.313  0.1736  0.1930 -0.1383
  838YOPS   C1A 9509   0.275   3.340   6.520  0.1661 -0.2860 -0.0173
  838YOPS   D2A 9510   0.383   3.277   6.936  0.2303  0.2662  0.0965
  838YOPS   C3A 9511   0.386   3.276   7.335  0.0005  0.0955 -0.2571
  838YOPS   C4A 9512   0.070   2.959   7.550  0.0779 -0.0284  0.0139
  838YOPS   C1B 9513   0.477   3.776   6.767 -0.0629 -0.1282 -0.0634
  838YOPS   C2B 9514   0.441   3.734   7.206  0.0518  0.1552  0.1495
  838YOPS   D3B 9515   0.478   3.599   7.667  0.1717 -0.2120 -0.0261
  838YOPS   C4B 9516   0.334   3.221   7.875 -0.1915 -0.2009 -0.1694
  839POPE   NH3 9517   7.902  12.398   6.671  0.0840  0.2025  0.1531
  839POPE   PO4 9518   7.500  12.119   6.772 -0.0751 -0.1334  0.2472
  839POPE   GL1 9519   7.272  11.869   7.054  0.1536 -0.2517 -0.0381
  839POPE   GL2 9520   7.212  11.584   7.047  0.1070 -0.0212 -0.1358
  839POPE   C1A 9521   7.415  11.880   7.465 -0.1024  0.2963 -0.0159
  839POPE   D2A 9522   7.203  11.991   7.806  0.1865  0.0614 -0.0365
  839POPE   C3A 9523   7.283  11.941   8.246  0.1814  0.2703  0.2556
  839POPE   C4A 9524   7.211  11.801   8.643 -0.1491  0.0125  0.3262
  839POPE   C1B 9525   7.030  11.385   7.407  0.0210  0.1087  0.2346
  839POPE   C2B 9526   7.065  11.444   7.907 -0.1239 -0.1764  0.0330
  839POPE   C3B 9527   7.099  11.462   8.250 -0.1215 -0.1595 -0.1300
  839POPE   C4B 9528   6.877  11.362   8.556  0.1286 -0.1239  0.1255
  840POPE   NH3 9529   4.881  11.019   6.614 -0.3298  0.1773  0.2729
  840POPE   PO4 9530   5.311  11.041   6.642  0.0916 -0.3396  0.0094
  840POPE   GL1 9531   5.267  10.910   7.145 -0.2542 -0.2564 -0.1815
  840POPE   GL2 9532   4.950  11.033   7.144 -0.2282  0.2590 -0.1717
  840POPE   C1A 9533   5.331  10.823   7.577 -0.0160 -0.0851 -0.0057
  840POPE   D2A 9534   5.157  10.897   7.940 -0.0350  0.1301 -0.1974
  840POPE   C3A 9535   5.446  10.752   8.330 -0.1842  0.0867  0.1570
  840POPE   C4A 9536   5.706  11.029   8.434  0.3084  0.1858 -0.1519
  840POPE   C1B 9537   4.876  11.135   7.519 -0.0090  0.1975 -0.1359
  840POPE   C2B 9538   4.815  11.285   7.973  0.0059 -0.1737  0.1284
  840POPE   C3B 9539   4.922  11.718   8.229  0.1488  0.0762  0.2956
  840POPE   C4B 9540   4.727  12.108   8.178 -0.1253 -0.2195 -0.1320
  841POPE   NH3 9541   1.985   9.886   6.051  0.2027  0.1120 -0.1462
  841POPE   PO4 9542   2.340   9.844   6.363  0.0160 -0.1483 -0.1086
  841POPE   GL1 9543   2.332  10.016   6.657  0.1766 -0.1208 -0.4498
  841POPE   GL2 9544   2.564  10.199   6.764 -0.0042  0.2076  0.0519
  841POPE   C1A 9545   2.142  10.384   7.001  0.0092  0.2402 -0.1928
  841POPE   D2A 9546   2.151  10.630   7.365  0.0722 -0.0805  0.0391
  841POPE   C3A 9547   2.043  10.903   7.677  0.0102  0.2862  0.1150
  841POPE   C4A 9548   2.096  11.087   8.076 -0.0423  0.1767  0.2032
  841POPE   C1B 9549   2.652  10.316   7.248  0.1117  0.0306  0.1936
  841POPE   C2B 9550   2.591  10.439   7.642 -0.1142 -0.0803  0.3944
  841POPE   C3B 9551   2.266  10.569   7.962  0.2615  0.0649 -0.4445
  841POPE   C4B 9552   1.858  10.631   8.094 -0.1760 -0.0810 -0.1156
  842POPE   NH3 9553   4.923   2.788   6.039  0.0844  0.2848 -0.0416
  842POPE   PO4 9554   4.758   2.367   5.916  0.1010  0.0952 -0.1349
  842POPE   GL1 9555   4.984   2.286   6.293  0.1386 -0.2111 -0.2908
  842POPE   GL2 9556   4.806   2.254   6.509 -0.1774 -0.0018 -0.2502
  842POPE   C1A 9557   5.263   2.080   6.654  0.2606  0.3344 -0.1423
  842POPE   D2A 9558   5.460   2.028   7.050  0.0410 -0.2833  0.2720
  842POPE   C3A 9559   5.574   2.247   7.451  0.0342  0.3578 -0.0585
  842POPE   C4A 9560   5.432   2.131   7.886 -0.0029  0.0734  0.1949
  842POPE   C1B 9561   4.826   1.965   6.934 -0.0242  0.3451  0.1487
  842POPE   C2B 9562   4.737   1.947   7.380  0.0711  0.0647  0.0096
  842POPE   C3B 9563   4.773   1.772   7.853 -0.0015  0.1707  0.1386
  842POPE   C4B 9564   4.420   1.738   8.084  0.0909 -0.0015 -0.1964
  843POPE   NH3 9565  15.506  17.706   6.321  0.2331  0.0392  0.0012
  843POPE   PO4 9566  15.495  17.256   6.267 -0.0906 -0.1674 -0.0686
  843POPE   GL1 9567  15.692  17.247   6.659  0.1027 -0.1519 -0.0605
  843POPE   GL2 9568  15.953  17.500   6.532 -0.2484 -0.1485  0.1320
  843POPE   C1A 9569  15.719  17.151   7.057 -0.1364 -0.1106  0.1529
  843POPE   D2A 9570  15.529  17.043   7.417 -0.0024 -0.1393  0.1799
  843POPE   C3A 9571  15.688  17.063   7.763 -0.2302  0.0746  0.0356
  843POPE   C4A 9572  15.360  16.897   8.119  0.0983  0.0943 -0.0091
  843POPE   C1B 9573  16.024  17.676   6.959 -0.1278 -0.2389 -0.1573
  843POPE   C2B 9574  16.135  17.757   7.349 -0.1357 -0.1058  0.2191
  843POPE   C3B 9575  16.274  17.827   7.833  0.0494 -0.1296  0.1132
  843POPE   C4B 9576  16.404  17.894   8.204 -0.0012  0.1229  0.1443
  844POPE   NH3 9577  11.294  13.949   6.793 -0.1072  0.0292 -0.0420
  844POPE   PO4 9578  11.422  13.533   6.909 -0.0676 -0.0446  0.1911
  844POPE   GL1 9579  11.428  13.370   7.339  0.1123 -0.3049 -0.4190
  844POPE   GL2 9580  11.734  13.264   7.417  0.0046 -0.0392 -0.0956
  844POPE   C1A 9581  11.236  13.283   7.873 -0.0765 -0.3218 -0.1015
  844POPE   D2A 9582  11.131  13.242   8.351 -0.0005  0.0431  0.0917
  844POPE   C3A 9583  10.929  13.571   8.500 -0.3550 -0.1653 -0.3828
  844POPE   C4A 9584  10.983  13.777   8.821 -0.2038  0.1781  0.0952
  844POPE   C1B 9585  11.732  13.427   7.834 -0.0648 -0.1140 -0.0750
  844POPE   C2B 9586  11.738  13.422   8.308  0.1052 -0.1947  0.0556
  844POPE   C3B 9587  11.524  13.298   8.671 -0.0541 -0.1478  0.1877
  844POPE   C4B 9588  11.144  13.235   8.817  0.1459  0.3249  0.2995
  845POPE   NH3 9589   4.287  11.006   6.194  0.1891  0.0610 -0.0818
  845POPE   PO4 9590   4.490  11.264   6.435  0.4490  0.0507 -0.0572
  845POPE   GL1 9591   4.410  10.882   6.698  0.0228 -0.0036 -0.0978
  845POPE   GL2 9592   4.465  11.020   6.965 -0.0702 -0.0723 -0.2498
  845POPE   C1A 9593   4.176  10.624   7.013  0.0894  0.0915  0.0184
  845POPE   D2A 9594   4.004  10.576   7.488  0.2628 -0.0780 -0.1462
  845POPE   C3A 9595   4.119  10.379   7.862 -0.1064  0.0393 -0.1490
  845POPE   C4A 9596   3.848  10.153   8.152 -0.1900 -0.1923  0.1809
  845POPE   C1B 9597   4.425  10.855   7.356  0.0024 -0.3107 -0.0823
  845POPE   C2B 9598   4.330  10.848   7.744 -0.0850  0.0534 -0.1390
  845POPE   C3B 9599   4.051  10.892   8.020 -0.0435  0.0187  0.0391
  845POPE   C4B 9600   3.786  10.641   8.238 -0.1313 -0.0450 -0.3086
  846POPE   NH3 9601   5.747   6.973   6.391 -0.0505 -0.2236  0.0602
  846POPE   PO4 9602   5.397   7.274   6.363 -0.0920  0.0189  0.0604
  846POPE   GL1 9603   5.308   7.029   6.802  0.0111  0.1076 -0.0359
  846POPE   GL2 9604   5.059   7.134   7.003  0.0040  0.0057  0.0012
  846POPE   C1A 9605   5.433   6.774   7.231  0.0411 -0.0305 -0.1506
  846POPE   D2A 9606   5.264   6.474   7.494  0.0284 -0.2104  0.1616
  846POPE   C3A 9607   5.430   6.189   7.799  0.0507 -0.1235  0.3265
  846POPE   C4A 9608   5.671   6.044   8.085  0.3069  0.2444  0.0586
  846POPE   C1B 9609   5.083   7.155   7.387  0.0645 -0.2449  0.0445
  846POPE   C2B 9610   5.194   6.935   7.675  0.1584  0.2633  0.1215
  846POPE   C3B 9611   5.403   7.206   7.960  0.1004 -0.0889  0.2660
  846POPE   C4B 9612   5.532   7.316   8.381 -0.0211 -0.0556 -0.1280
  847POPE   NH3 9613   2.753   3.133   5.948  0.0124 -0.1461  0.0576
  847POPE   PO4 9614   2.343   2.908   5.927 -0.1895  0.0822 -0.1427
  847POPE   GL1 9615   2.348   3.017   6.428  0.0605 -0.1491 -0.0135
  847POPE   GL2 9616   2.666   3.315   6.442  0.4392  0.1574  0.1848
  847POPE   C1A 9617   2.149   2.952   6.869 -0.0307  0.3636 -0.1675
  847POPE   D2A 9618   2.223   2.863   7.255 -0.0386  0.1571 -0.3294
  847POPE   C3A 9619   2.500   2.616   7.489  0.2587 -0.0989  0.1623
  847POPE   C4A 9620   2.633   2.331   7.835 -0.1056  0.1220 -0.1978
  847POPE   C1B 9621   2.686   3.058   6.812 -0.1945  0.1449  0.0249
  847POPE   C2B 9622   2.827   2.808   7.103 -0.1538  0.1493 -0.1325
  847POPE   C3B 9623   3.021   2.870   7.536 -0.1063 -0.3900  0.2824
  847POPE   C4B 9624   3.097   2.877   8.081 -0.1306 -0.1700 -0.2567
  848POPE   NH3 9625  13.391  15.805   6.688  0.1294  0.1442  0.0276
  848POPE   PO4 9626  13.008  15.691   6.633 -0.3187 -0.1705  0.1791
  848POPE   GL1 9627  13.097  15.586   7.065 -0.1329  0.0910 -0.0588
  848POPE   GL2 9628  13.408  15.529   7.226 -0.0860 -0.0789  0.0587
  848POPE   C1A 9629  12.910  15.353   7.378 -0.0354  0.1384 -0.0662
  848POPE   D2A 9630  12.737  15.387   7.728 -0.2200  0.0542 -0.1657
  848POPE   C3A 9631  12.930  15.576   8.133  0.1736  0.0031  0.1374
  848POPE   C4A 9632  13.106  15.642   8.481  0.1441  0.0560 -0.0820
  848POPE   C1B 9633  13.586  15.869   7.369  0.0707 -0.0135 -0.1575
  848POPE   C2B 9634  13.872  15.989   7.389 -0.1857 -0.1076  0.3033
  848POPE   C3B 9635  14.053  15.903   7.734  0.0532  0.1798  0.1560
  848POPE   C4B 9636  14.311  15.676   7.707  0.0371 -0.1809 -0.0051
  849POPE   NH3 9637   6.712  10.332   6.759 -0.3126 -0.1845 -0.2279
  849POPE   PO4 9638   7.162  10.280   6.869  0.1861  0.1104 -0.1787
  849POPE   GL1 9639   6.959  10.234   7.237 -0.1775 -0.0897  0.0890
  849POPE   GL2 9640   6.629  10.391   7.268 -0.2206  0.0841  0.1238
  849POPE   C1A 9641   6.829  10.179   7.672  0.0143  0.0369 -0.0105
  849POPE   D2A 9642   6.692  10.011   8.126  0.1254  0.2206  0.1372
  849POPE   C3A 9643   6.888   9.929   8.392  0.1433 -0.0213  0.3080
  849POPE   C4A 9644   7.010   9.545   8.568 -0.0432 -0.0203  0.0101
  849POPE   C1B 9645   6.439  10.412   7.666 -0.0648  0.2163 -0.3104
  849POPE   C2B 9646   6.278  10.312   8.085 -0.2161  0.1561 -0.1409
  849POPE   C3B 9647   6.348  10.184   8.439  0.1538 -0.2814  0.0371
  849POPE   C4B 9648   6.518   9.990   8.813  0.0527  0.1588 -0.1745
  850POPE   NH3 9649  10.162  11.452   6.938  0.1003 -0.0540  0.5208
  850POPE   PO4 9650   9.930  11.177   6.719  0.2419  0.0332 -0.0210
  850POPE   GL1 9651   9.638  11.393   7.068  0.0055  0.0259  0.6619
  850POPE   GL2 9652   9.552  11.180   7.313 -0.0148  0.2539 -0.0998
  850POPE   C1A 9653   9.736  11.687   7.408 -0.0997  0.0926 -0.4595
  850POPE   D2A 9654  10.227  11.685   7.453 -0.0726 -0.2277  0.2282
  850POPE   C3A 9655  10.543  11.812   7.802 -0.2032  0.1509 -0.1423
  850POPE   C4A 9656  10.626  11.565   8.228  0.1641  0.1581 -0.0129
  850POPE   C1B 9657   9.677  11.327   7.705 -0.1221 -0.2511  0.0354
  850POPE   C2B 9658   9.436  11.694   7.829 -0.1232 -0.3519 -0.2671
  850POPE   C3B 9659   9.098  11.768   8.063 -0.3346 -0.0356 -0.1473
  850POPE   C4B 9660   8.802  11.681   7.931  0.3041 -0.1438 -0.0422
  851POPE   NH3 9661  15.485  13.886   6.881  0.0379  0.0392 -0.0358
  851POPE   PO4 9662  15.905  13.821   6.757  0.0006  0.1648 -0.0947
  851POPE   GL1 9663  15.893  13.896   7.171 -0.0357 -0.2181  0.1084
  851POPE   GL2 9664  15.762  13.565   7.200 -0.2230 -0.0605 -0.2242
  851POPE   C1A 9665  15.942  13.940   7.556  0.2098 -0.1791 -0.1138
  851POPE   D2A 9666  16.021  13.848   7.958  0.0873 -0.0736 -0.0760
  851POPE   C3A 9667  16.058  14.050   8.169  0.0202  0.1453 -0.1649
  851POPE   C4A 9668  16.289  14.363   8.189  0.0849 -0.3683  0.1913
  851POPE   C1B 9669  15.826  13.446   7.614 -0.2156 -0.4729 -0.0623
  851POPE   C2B 9670  15.801  13.430   8.037 -0.3332 -0.2556  0.0250
  851POPE   C3B 9671  15.683  13.448   8.462  0.2064  0.1120  0.0953
  851POPE   C4B 9672  15.762  13.381   8.931  0.1181 -0.0867  0.3449
  852POPE   NH3 9673   7.889  10.783   7.090 -0.1384 -0.0773  0.0870
  852POPE   PO4 9674   8.160  11.089   7.063  0.1616  0.3377  0.1330
  852POPE   GL1 9675   8.217  10.945   7.453  0.0526 -0.1147  0.2415
  852POPE   GL2 9676   8.008  10.867   7.581 -0.0890 -0.1936 -0.3491
  852POPE   C1A 9677   8.392  11.052   7.839 -0.2071  0.2280 -0.0695
  852POPE   D2A 9678   8.774  11.220   8.050 -0.1023  0.2802 -0.0320
  852POPE   C3A 9679   8.859  11.499   8.404 -0.0621  0.0975 -0.0498
  852POPE   C4A 9680   8.911  11.383   8.832 -0.1834  0.0678  0.2612
  852POPE   C1B 9681   7.979  10.793   7.982  0.0584  0.2757 -0.0597
  852POPE   C2B 9682   7.812  10.804   8.444 -0.1010  0.0976  0.2034
  852POPE   C3B 9683   7.572  10.794   8.897  0.1396 -0.5132 -0.0535
  852POPE   C4B 9684   7.286  10.878   9.164  0.0012 -0.2212  0.0694
  853POPE   NH3 9685   7.328   4.108   5.666 -0.0814  0.2021  0.2302
  853POPE   PO4 9686   7.395   3.666   5.609  0.0650  0.2227 -0.0344
  853POPE   GL1 9687   7.146   3.757   5.993  0.1092  0.0841 -0.0098
  853POPE   GL2 9688   7.101   4.155   6.111  0.2843 -0.0842 -0.0713
  853POPE   C1A 9689   7.341   3.785   6.384  0.1801  0.0048 -0.0577
  853POPE   D2A 9690   7.599   3.716   6.690  0.2780 -0.0989 -0.1432
  853POPE   C3A 9691   7.586   3.713   7.191 -0.2881  0.1225 -0.0464
  853POPE   C4A 9692   7.402   3.859   7.546  0.3962 -0.0011 -0.1893
  853POPE   C1B 9693   7.159   4.240   6.474 -0.0215  0.3905  0.2191
  853POPE   C2B 9694   7.320   4.251   6.917  0.1633 -0.1590  0.0808
  853POPE   C3B 9695   7.274   4.333   7.412  0.1312 -0.0438 -0.1400
  853POPE   C4B 9696   7.073   4.369   7.833 -0.3036 -0.1847  0.2332
  854POPE   NH3 9697  15.162  16.043   6.594 -0.1696 -0.1275 -0.3372
  854POPE   PO4 9698  15.568  15.913   6.450 -0.0088 -0.1858  0.0993
  854POPE   GL1 9699  15.577  15.750   6.804  0.4031  0.1387 -0.1837
  854POPE   GL2 9700  15.311  15.736   6.972 -0.0870  0.0461 -0.6067
  854POPE   C1A 9701  15.763  15.741   7.195  0.3188 -0.0067  0.1455
  854POPE   D2A 9702  15.952  15.898   7.521  0.2945 -0.0848  0.1041
  854POPE   C3A 9703  15.897  15.679   7.818 -0.0682 -0.1780  0.1566
  854POPE   C4A 9704  15.931  15.466   8.144 -0.0886  0.0949 -0.1733
  854POPE   C1B 9705  15.409  15.851   7.509 -0.1409 -0.2770 -0.1448
  854POPE   C2B 9706  15.471  15.925   7.897  0.0728  0.0270 -0.2928
  854POPE   C3B 9707  15.562  15.752   8.271  0.0769 -0.1005 -0.0847
  854POPE   C4B 9708  15.980  15.700   8.570 -0.1814  0.3453 -0.0856
  855POPE   NH3 9709   6.356  14.373   6.547  0.2343 -0.2608 -0.0247
  855POPE   PO4 9710   5.980  14.512   6.232 -0.1568  0.0948  0.0309
  855POPE   GL1 9711   5.854  14.665   6.622  0.3360 -0.2260 -0.1698
  855POPE   GL2 9712   6.015  14.631   6.786 -0.0374 -0.2753  0.0981
  855POPE   C1A 9713   5.547  14.784   6.914  0.3028 -0.0102  0.1373
  855POPE   D2A 9714   5.379  14.791   7.248  0.3713  0.0154  0.4991
  855POPE   C3A 9715   5.420  14.863   7.549 -0.0180 -0.0757 -0.1369
  855POPE   C4A 9716   5.538  14.986   7.904  0.1470  0.2949 -0.1516
  855POPE   C1B 9717   5.901  14.704   7.302  0.1362 -0.1248  0.1349
  855POPE   C2B 9718   5.861  14.642   7.640  0.0352 -0.1171  0.0601
  855POPE   C3B 9719   5.807  14.463   8.060 -0.2155  0.1818 -0.1175
  855POPE   C4B 9720   5.752  14.065   8.322  0.1522  0.0873  0.1189
  856POPE   NH3 9721  15.822  13.334   6.739  0.2669 -0.1685  0.2428
  856POPE   PO4 9722  15.417  13.390   6.738 -0.2417  0.0059 -0.1877
  856POPE   GL1 9723  15.307  13.396   7.101 -0.0285  0.1635  0.2018
  856POPE   GL2 9724  15.087  13.672   7.179  0.2171 -0.1575  0.3674
  856POPE   C1A 9725  15.316  13.345   7.480  0.1099  0.2732 -0.1099
  856POPE   D2A 9726  15.320  13.382   7.929  0.0271  0.2991 -0.1785
  856POPE   C3A 9727  15.226  13.260   8.291 -0.0225 -0.3050 -0.0848
  856POPE   C4A 9728  15.273  13.344   8.787  0.0641 -0.0485 -0.2198
  856POPE   C1B 9729  14.953  13.632   7.540  0.1341  0.0676 -0.2046
  856POPE   C2B 9730  14.832  13.777   7.918 -0.1492  0.0169  0.0303
  856POPE   C3B 9731  14.984  13.680   8.275  0.1591  0.0072  0.0959
  856POPE   C4B 9732  14.790  13.535   8.747  0.1801 -0.1616 -0.0463
  857POPE   NH3 9733  12.789  16.186   6.544  0.0332 -0.3585 -0.1101
  857POPE   PO4 9734  13.201  16.320   6.536 -0.2846  0.1408 -0.2931
  857POPE   GL1 9735  13.362  16.488   6.892 -0.2355  0.1503 -0.3033
  857POPE   GL2 9736  13.578  16.298   7.054  0.2253  0.0077  0.3960
  857POPE   C1A 9737  13.558  16.748   7.180  0.0305  0.2995 -0.0316
  857POPE   D2A 9738  13.575  16.843   7.540 -0.0018  0.0176  0.0236
  857POPE   C3A 9739  13.533  16.851   8.046 -0.4214  0.0276 -0.2000
  857POPE   C4A 9740  13.508  16.944   8.511 -0.2397 -0.3517  0.1775
  857POPE   C1B 9741  13.568  16.349   7.579  0.1373  0.1293 -0.0933
  857POPE   C2B 9742  13.732  16.217   7.909  0.0490 -0.2058 -0.2922
  857POPE   C3B 9743  13.934  16.100   8.258  0.0698 -0.3122 -0.2040
  857POPE   C4B 9744  14.347  16.313   8.517 -0.2347 -0.1346 -0.0190
  858POPE   NH3 9745   9.318   6.621   6.133  0.2099  0.0025  0.0970
  858POPE   PO4 9746   9.777   6.757   6.146 -0.0045  0.1075 -0.3997
  858POPE   GL1 9747   9.596   6.617   6.540  0.0609 -0.2210 -0.0733
  858POPE   GL2 9748   9.813   6.510   6.722 -0.0935  0.1559  0.1337
  858POPE   C1A 9749   9.320   6.484   6.843 -0.1388  0.0838 -0.1260
  858POPE   D2A 9750   9.320   6.202   7.122  0.0907 -0.0030  0.1470
  858POPE   C3A 9751   9.192   6.056   7.502 -0.1410 -0.0138 -0.1596
  858POPE   C4A 9752   9.128   6.263   7.887 -0.0970 -0.0232  0.1830
  858POPE   C1B 9753   9.774   6.399   7.116  0.4494 -0.1803 -0.0440
  858POPE   C2B 9754   9.667   6.266   7.591  0.0502 -0.0161  0.0964
  858POPE   C3B 9755   9.614   5.965   7.839 -0.1113 -0.0070 -0.0768
  858POPE   C4B 9756   9.564   5.747   8.246 -0.0260 -0.2596  0.1477
  859POPE   NH3 9757  17.981  12.731   6.181 -0.0689 -0.0064 -0.0018
  859POPE   PO4 9758  17.723  12.245   6.148 -0.3049  0.2179 -0.0466
  859POPE   GL1 9759  18.004  12.075   6.486  0.1182 -0.0467  0.0268
  859POPE   GL2 9760  18.136  12.367   6.551  0.2413 -0.0431 -0.1832
  859POPE   C1A 9761  17.882  12.061   6.961  0.1443 -0.0269 -0.1952
  859POPE   D2A 9762  17.766  12.233   7.395 -0.0936  0.2547  0.2095
  859POPE   C3A 9763  17.933  12.016   7.798 -0.1877 -0.1521  0.1051
  859POPE   C4A 9764  18.085  11.716   8.121 -0.4658 -0.0885 -0.1818
  859POPE   C1B 9765  18.397  12.107   6.794  0.0876 -0.3809 -0.2065
  859POPE   C2B 9766  18.744  12.177   7.193  0.0629 -0.2549 -0.0848
  859POPE   C3B 9767  18.899  12.234   7.738  0.0277 -0.1190  0.0040
  859POPE   C4B 9768  18.837  12.274   8.131  0.1529 -0.0384  0.0971
  860POPE   NH3 9769   6.021   5.023   5.685  0.1338 -0.2689 -0.0312
  860POPE   PO4 9770   6.199   4.791   5.655 -0.0113 -0.3306  0.1300
  860POPE   GL1 9771   6.517   4.768   5.965  0.1028  0.0800 -0.2285
  860POPE   GL2 9772   6.782   4.571   5.967  0.0410 -0.1496  0.2762
  860POPE   C1A 9773   6.635   4.705   6.422 -0.0244  0.2780  0.1413
  860POPE   D2A 9774   6.605   4.682   6.851  0.0048 -0.2254  0.1038
  860POPE   C3A 9775   6.643   4.727   7.156  0.1901  0.0174 -0.1396
  860POPE   C4A 9776   6.747   4.663   7.601 -0.3904  0.5141  0.0463
  860POPE   C1B 9777   7.150   4.738   6.259 -0.1188 -0.0953  0.0161
  860POPE   C2B 9778   7.078   4.725   6.728  0.4857  0.0775 -0.0272
  860POPE   C3B 9779   7.136   4.663   7.097 -0.1913 -0.1796 -0.0371
  860POPE   C4B 9780   7.201   4.878   7.486 -0.2348  0.4892 -0.1711
  861POPE   NH3 9781  15.522  16.759   6.342 -0.2129 -0.0382  0.0612
  861POPE   PO4 9782  15.515  16.428   6.520  0.0403  0.1675  0.0268
  861POPE   GL1 9783  15.710  16.238   6.832  0.0155 -0.0226  0.0792
  861POPE   GL2 9784  15.476  16.161   7.080 -0.1554 -0.2366 -0.0118
  861POPE   C1A 9785  16.087  16.217   7.104 -0.2345  0.0443  0.0416
  861POPE   D2A 9786  16.313  16.174   7.417  0.3447  0.1222 -0.0498
  861POPE   C3A 9787  16.177  16.339   7.892  0.0825 -0.1799 -0.0091
  861POPE   C4A 9788  15.945  16.048   8.149 -0.2697  0.1646  0.0846
  861POPE   C1B 9789  15.679  16.281   7.474  0.1524 -0.2082  0.2906
  861POPE   C2B 9790  15.555  16.432   7.824  0.1739  0.1147  0.1913
  861POPE   C3B 9791  15.499  16.301   8.239  0.0121  0.2111 -0.1564
  861POPE   C4B 9792  15.329  16.042   8.558  0.3024 -0.0627 -0.1588
  862POPE   NH3 9793  15.677   1.381   5.882  0.0517 -0.6210 -0.2593
  862POPE   PO4 9794  15.772   1.300   6.260  0.0105  0.2732 -0.0956
  862POPE   GL1 9795  15.575   1.436   6.596  0.1199  0.1981  0.2085
  862POPE   GL2 9796  15.363   1.561   6.435 -0.0072 -0.0341 -0.0285
  862POPE   C1A 9797  15.474   1.322   6.974 -0.0013  0.0385  0.2331
  862POPE   D2A 9798  15.542   1.482   7.412  0.1778  0.1151 -0.1705
  862POPE   C3A 9799  15.692   1.252   7.725  0.0674 -0.0626  0.0484
  862POPE   C4A 9800  16.024   0.884   8.033  0.0092 -0.0008  0.2118
  862POPE   C1B 9801  15.482   1.812   6.868 -0.1040 -0.0446  0.0026
  862POPE   C2B 9802  15.327   2.063   7.304 -0.0504 -0.0360 -0.0462
  862POPE   C3B 9803  15.165   2.214   7.660  0.1669  0.0127 -0.3399
  862POPE   C4B 9804  15.256   2.322   8.101  0.2400  0.2144 -0.0170
  863POPE   NH3 9805  13.519   3.148   6.543  0.1144  0.1902 -0.0727
  863POPE   PO4 9806  13.847   3.361   6.295  0.0882  0.4493 -0.0058
  863POPE   GL1 9807  14.101   3.164   6.587 -0.0324  0.1813 -0.0183
  863POPE   GL2 9808  14.254   2.872   6.522  0.3142  0.0679 -0.0333
  863POPE   C1A 9809  13.962   3.059   6.983 -0.0719  0.0506 -0.2885
  863POPE   D2A 9810  14.149   2.974   7.442  0.0171  0.0567 -0.0467
  863POPE   C3A 9811  14.340   2.624   7.547  0.0983  0.0552  0.1161
  863POPE   C4A 9812  14.395   2.297   7.780  0.0592  0.1222 -0.1503
  863POPE   C1B 9813  14.550   3.101   6.728  0.1780 -0.0829 -0.2791
  863POPE   C2B 9814  14.794   3.039   7.127 -0.1121 -0.0682  0.1204
  863POPE   C3B 9815  14.992   3.159   7.529 -0.2783 -0.1666 -0.0217
  863POPE   C4B 9816  14.949   3.336   8.035 -0.1892 -0.1384  0.1586
  864POPE   NH3 9817   5.856   9.581   6.707 -0.0175  0.0120  0.2621
  864POPE   PO4 9818   6.075   9.259   6.922  0.1733 -0.3408 -0.1970
  864POPE   GL1 9819   5.940   9.124   7.300 -0.0909 -0.1191  0.1072
  864POPE   GL2 9820   5.885   8.763   7.331 -0.1733  0.1599  0.2191
  864POPE   C1A 9821   5.642   9.041   7.655 -0.0898  0.1427  0.3566
  864POPE   D2A 9822   5.494   8.870   7.992  0.2883 -0.0466  0.0003
  864POPE   C3A 9823   5.785   8.802   8.387 -0.1311  0.1744  0.1715
  864POPE   C4A 9824   5.843   8.718   8.790 -0.1112 -0.1063 -0.0318
  864POPE   C1B 9825   5.619   8.479   7.636 -0.0836  0.1367  0.1018
  864POPE   C2B 9826   5.569   8.388   8.065  0.1142  0.0857 -0.1142
  864POPE   C3B 9827   5.775   8.335   8.446  0.0416  0.1227  0.0746
  864POPE   C4B 9828   5.923   7.972   8.673 -0.1757 -0.3251 -0.1477
  865POPE   NH3 9829  10.216   8.329   6.607  0.1533  0.1928 -0.0409
  865POPE   PO4 9830  10.601   8.440   6.519  0.3427  0.2971  0.2124
  865POPE   GL1 9831  10.606   8.465   7.000 -0.1076  0.0641 -0.2805
  865POPE   GL2 9832  10.974   8.277   7.116  0.3470  0.0395  0.3419
  865POPE   C1A 9833  10.664   8.593   7.332  0.1904 -0.0846 -0.0105
  865POPE   D2A 9834  10.449   8.736   7.722 -0.0264  0.0732  0.3683
  865POPE   C3A 9835  10.305   8.557   8.070 -0.0042 -0.0428 -0.1288
  865POPE   C4A 9836  10.431   8.547   8.536  0.0766 -0.0762 -0.2075
  865POPE   C1B 9837  11.110   8.121   7.443 -0.3961  0.4630 -0.1756
  865POPE   C2B 9838  11.146   7.934   7.776  0.3051  0.0506 -0.1839
  865POPE   C3B 9839  11.344   7.904   8.153 -0.1323 -0.0915  0.0721
  865POPE   C4B 9840  11.101   8.016   8.516  0.1419  0.1434  0.1643
  866POPE   NH3 9841   5.286  14.956   6.003 -0.1098 -0.0502 -0.0223
  866POPE   PO4 9842   5.316  14.474   5.832 -0.0275  0.1782 -0.1343
  866POPE   GL1 9843   5.141  14.548   6.233 -0.0583  0.2050 -0.4077
  866POPE   GL2 9844   5.384  14.657   6.423 -0.0932 -0.4550  0.1327
  866POPE   C1A 9845   4.811  14.434   6.590 -0.0197  0.0904 -0.1710
  866POPE   D2A 9846   4.606  14.674   6.833 -0.0769 -0.2598 -0.2062
  866POPE   C3A 9847   4.490  14.758   7.182  0.1804  0.2106 -0.0973
  866POPE   C4A 9848   4.348  14.520   7.500  0.0804  0.2097 -0.1081
  866POPE   C1B 9849   5.137  14.848   6.659  0.0048  0.2791 -0.0303
  866POPE   C2B 9850   4.986  15.001   6.995  0.0524  0.0669  0.0969
  866POPE   C3B 9851   4.925  14.967   7.399 -0.2701 -0.0177  0.1891
  866POPE   C4B 9852   4.974  14.760   7.774  0.1584 -0.1756 -0.3072
  867POPE   NH3 9853  16.249  15.337   6.156 -0.1131  0.1499  0.2990
  867POPE   PO4 9854  16.354  14.818   6.141 -0.0145 -0.0408  0.3019
  867POPE   GL1 9855  16.353  14.636   6.498  0.3459 -0.1605 -0.1171
  867POPE   GL2 9856  16.638  14.765   6.679  0.0315 -0.2164 -0.1493
  867POPE   C1A 9857  16.182  14.790   6.981 -0.0404  0.3192  0.0496
  867POPE   D2A 9858  16.046  14.776   7.466  0.1327 -0.1998 -0.3261
  867POPE   C3A 9859  16.157  14.781   7.887  0.0635 -0.0362 -0.1819
  867POPE   C4A 9860  16.286  14.923   8.306  0.0536  0.0383  0.1906
  867POPE   C1B 9861  16.587  14.540   7.097  0.1723  0.2127 -0.1775
  867POPE   C2B 9862  16.769  14.536   7.438  0.0804  0.1393  0.0151
  867POPE   C3B 9863  17.032  14.202   7.568 -0.0038  0.1472 -0.1382
  867POPE   C4B 9864  17.067  14.120   7.986 -0.0511 -0.3919  0.0349
  868POPE   NH3 9865   7.109   6.054   6.028  0.0024  0.3064  0.3305
  868POPE   PO4 9866   6.941   5.639   5.911 -0.0368 -0.0016  0.0867
  868POPE   GL1 9867   7.138   5.620   6.262  0.1264  0.2105 -0.2011
  868POPE   GL2 9868   7.365   5.346   6.263 -0.0907  0.1265  0.1251
  868POPE   C1A 9869   7.298   5.664   6.712 -0.3049  0.1432 -0.0161
  868POPE   D2A 9870   7.208   5.675   7.200  0.1184 -0.0033  0.1779
  868POPE   C3A 9871   7.266   5.470   7.516 -0.1656 -0.1058 -0.1969
  868POPE   C4A 9872   7.397   5.175   7.802  0.2308 -0.1073 -0.0278
  868POPE   C1B 9873   7.456   5.061   6.537 -0.1722  0.0267 -0.4357
  868POPE   C2B 9874   7.492   5.084   6.951  0.2414 -0.2196  0.0290
  868POPE   C3B 9875   7.567   5.106   7.327  0.1882  0.0219  0.0038
  868POPE   C4B 9876   7.771   4.889   7.653 -0.0595  0.1018 -0.0385
  869YOPE   NH3 9877   4.285  10.549   6.338  0.0231  0.0085 -0.0989
  869YOPE   PO4 9878   3.853  10.765   6.358 -0.1453  0.4466  0.1423
  869YOPE   GL1 9879   3.908  10.904   6.713 -0.0750 -0.0291  0.0885
  869YOPE   GL2 9880   3.671  11.164   6.775  0.2300 -0.0656 -0.0464
  869YOPE   C1A 9881   3.728  10.769   7.118  0.1038  0.0966  0.2498
  869YOPE   D2A 9882   3.574  10.457   7.249  0.1570 -0.0016 -0.1845
  869YOPE   C3A 9883   3.585  10.480   7.738 -0.1981 -0.0484  0.0733
  869YOPE   C4A 9884   3.254  10.340   8.009  0.0081  0.0940  0.3062
  869YOPE   C1B 9885   3.491  11.382   7.185  0.0526 -0.1885 -0.3161
  869YOPE   C2B 9886   3.266  11.397   7.504  0.1292 -0.1180 -0.3813
  869YOPE   D3B 9887   2.982  11.677   7.745  0.0407  0.1154  0.1141
  869YOPE   C4B 9888   2.702  11.983   7.932 -0.0832  0.4670 -0.1891
  870YOPE   NH3 9889  10.530  13.784   6.717 -0.0049 -0.1352  0.1758
  870YOPE   PO4 9890  10.226  13.416   6.668  0.1675 -0.0668 -0.0210
  870YOPE   GL1 9891  10.042  13.337   7.063  0.1420  0.0885 -0.2117
  870YOPE   GL2 9892   9.822  13.046   7.267 -0.0450 -0.0624 -0.2643
  870YOPE   C1A 9893   9.970  13.466   7.412  0.0751 -0.2298  0.1311
  870YOPE   D2A 9894   9.864  13.221   7.756 -0.3450  0.3634 -0.0513
  870YOPE   C3A 9895   9.840  13.293   8.183  0.0920 -0.0743 -0.0003
  870YOPE   C4A 9896   9.733  13.263   8.677 -0.0486  0.1515  0.1028
  870YOPE   C1B 9897  10.096  12.723   7.532 -0.0763  0.1412  0.2991
  870YOPE   C2B 9898  10.168  12.574   7.890 -0.3784 -0.0199  0.0678
  870YOPE   D3B 9899  10.084  12.280   8.216  0.0109 -0.0096  0.1322
  870YOPE   C4B 9900   9.837  12.032   8.594 -0.1260 -0.2504  0.5116
  871YOPE   NH3 9901   9.799   8.637   6.594  0.0382  0.0330  0.0043
  871YOPE   PO4 9902   9.800   8.947   6.826 -0.0408  0.1696 -0.2681
  871YOPE   GL1 9903   9.915   8.976   7.287  0.0949  0.2521  0.0159
  871YOPE   GL2 9904   9.666   8.857   7.416  0.0626 -0.0360  0.1603
  871YOPE   C1A 9905  10.255   9.150   7.548 -0.0216  0.1107  0.0902
  871YOPE   D2A 9906  10.480   9.185   7.996  0.2378 -0.0865  0.0230
  871YOPE   C3A 9907  10.255   9.054   8.304 -0.0076  0.1553  0.1509
  871YOPE   C4A 9908  10.229   8.955   8.693 -0.2242 -0.2308 -0.0962
  871YOPE   C1B 9909   9.920   8.830   7.816 -0.3312 -0.2014 -0.0399
  871YOPE   C2B 9910   9.857   8.725   8.274 -0.0024  0.2046  0.2161
  871YOPE   D3B 9911   9.929   8.460   8.521  0.1539 -0.1028  0.3061
  871YOPE   C4B 9912  10.185   8.097   8.443 -0.0041 -0.1843  0.3156
  872YOPE   NH3 9913   2.797  10.148   6.346 -0.2368 -0.1148 -0.0502
  872YOPE   PO4 9914   3.070   9.761   6.411  0.0512  0.0096  0.1733
  872YOPE   GL1 9915   3.082   9.857   6.833  0.2503  0.1818 -0.2695
  872YOPE   GL2 9916   3.027   9.568   7.035 -0.3411 -0.0898  0.0615
  872YOPE   C1A 9917   3.033  10.006   7.237 -0.1738  0.0787 -0.0670
  872YOPE   D2A 9918   2.714   9.944   7.594  0.1108  0.1922 -0.0641
  872YOPE   C3A 9919   2.859   9.982   7.956 -0.1311  0.2161  0.1139
  872YOPE   C4A 9920   3.332   9.894   8.139  0.2711 -0.1420 -0.3094
  872YOPE   C1B 9921   2.842   9.530   7.419 -0.2267 -0.3340 -0.1530
  872YOPE   C2B 9922   3.055   9.572   7.747 -0.0552  0.0566  0.2805
  872YOPE   D3B 9923   3.262   9.351   8.012  0.0211  0.4276 -0.0087
  872YOPE   C4B 9924   3.415   9.293   8.397 -0.1132 -0.2826 -0.1515
  873YOPE   NH3 9925  15.279   1.169   6.118  0.3234  0.0630 -0.0177
  873YOPE   PO4 9926  15.064   1.563   6.063  0.1329 -0.1328 -0.0425
  873YOPE   GL1 9927  14.865   1.550   6.491  0.4270  0.1661 -0.0855
  873YOPE   GL2 9928  15.019   1.234   6.616 -0.0035  0.0016 -0.1511
  873YOPE   C1A 9929  15.030   1.647   6.884 -0.4291 -0.0329 -0.0408
  873YOPE   D2A 9930  15.067   1.404   7.301 -0.0263  0.2594 -0.3545
  873YOPE   C3A 9931  15.114   1.642   7.532  0.3520  0.1499 -0.1427
  873YOPE   C4A 9932  15.400   1.774   7.851 -0.3419 -0.2295  0.0819
  873YOPE   C1B 9933  14.867   1.127   6.947 -0.1040  0.1801 -0.1739
  873YOPE   C2B 9934  14.714   1.036   7.395 -0.1606  0.0248  0.2233
  873YOPE   D3B 9935  14.748   0.945   7.861 -0.2343  0.2875  0.1067
  873YOPE   C4B 9936  14.690   1.058   8.206 -0.1622 -0.2490 -0.0779
  874YOPE   NH3 9937   2.039   0.936   5.401  0.1148 -0.3006 -0.0051
  874YOPE   PO4 9938   1.785   0.726   5.783 -0.1823 -0.0973  0.1089
  874YOPE   GL1 9939   2.024   0.434   6.063 -0.0684  0.0750 -0.4113
  874YOPE   GL2 9940   2.151   0.206   5.922 -0.0016  0.0999  0.0204
  874YOPE   C1A 9941   2.080   0.416   6.434 -0.3418  0.2324  0.0883
  874YOPE   D2A 9942   2.504   0.482   6.718 -0.1807 -0.0746 -0.0709
  874YOPE   C3A 9943   2.533   0.438   7.154 -0.1311 -0.0126 -0.0758
  874YOPE   C4A 9944   2.386   0.570   7.548 -0.3891 -0.1470  0.0852
  874YOPE   C1B 9945   2.171  -0.024   6.298  0.1683  0.1880 -0.1374
  874YOPE   C2B 9946   1.911  -0.247   6.646 -0.2603  0.2530  0.0648
  874YOPE   D3B 9947   1.903  -0.311   7.052 -0.0582  0.0177  0.0880
  874YOPE   C4B 9948   1.904  -0.301   7.499 -0.2764  0.1465 -0.1795
  875YOPE   NH3 9949   0.978   3.895   6.278 -0.1533 -0.1829  0.3835
  875YOPE   PO4 9950   1.057   4.338   6.080 -0.0806  0.2377  0.0874
  875YOPE   GL1 9951   0.870   4.323   6.548 -0.0111  0.2649  0.1300
  875YOPE   GL2 9952   1.123   4.580   6.535 -0.2425 -0.0516 -0.1324
  875YOPE   C1A 9953   0.798   4.074   6.910  0.0588 -0.0537  0.0582
  875YOPE   D2A 9954   0.885   3.952   7.377  0.1098  0.5519 -0.1039
  875YOPE   C3A 9955   0.573   4.070   7.563  0.0435 -0.1654  0.4003
  875YOPE   C4A 9956   0.203   3.964   7.804 -0.1999  0.0185 -0.1650
  875YOPE   C1B 9957   0.995   4.664   6.930 -0.2109  0.2320  0.1882
  875YOPE   C2B 9958   0.924   4.453   7.217  0.0234  0.5090 -0.1186
  875YOPE   D3B 9959   1.079   4.390   7.637  0.0418  0.1593 -0.0706
  875YOPE   C4B 9960   1.388   4.351   7.961 -0.0772 -0.1899 -0.2479
  876YOPE   NH3 9961  14.722   6.223   6.220 -0.0324  0.0844  0.1306
  876YOPE   PO4 9962  15.189   6.165   6.190  0.0405  0.0881  0.0512
  876YOPE   GL1 9963  15.121   6.280   6.608 -0.3220  0.0964 -0.0160
  876YOPE   GL2 9964  14.966   6.019   6.647  0.1923 -0.2830  0.1474
  876YOPE   C1A 9965  15.094   6.346   7.060 -0.0135  0.0023  0.0936
  876YOPE   D2A 9966  15.059   6.658   7.315 -0.1973 -0.0206  0.1333
  876YOPE   C3A 9967  15.113   6.549   7.715  0.1181  0.0218 -0.0978
  876YOPE   C4A 9968  15.239   6.456   8.172 -0.3034 -0.0029 -0.1160
  876YOPE   C1B 9969  14.808   5.919   6.969 -0.0226 -0.1692 -0.0620
  876YOPE   C2B 9970  14.621   5.782   7.324  0.2522  0.1637 -0.2766
  876YOPE   D3B 9971  14.309   5.568   7.425  0.3806  0.0401  0.0753
  876YOPE   C4B 9972  14.241   5.232   7.373  0.4426  0.1407 -0.1452
  877YOPE   NH3 9973   8.243  13.038   6.768 -0.1161 -0.1379  0.0067
  877YOPE   PO4 9974   8.381  12.694   6.859 -0.2079 -0.2697  0.0077
  877YOPE   GL1 9975   8.373  12.852   7.252  0.0757  0.0690 -0.1127
  877YOPE   GL2 9976   8.313  13.087   7.273 -0.3167 -0.0728  0.1453
  877YOPE   C1A 9977   8.395  12.756   7.715  0.0752 -0.2138 -0.0236
  877YOPE   D2A 9978   8.363  12.721   8.162 -0.3492 -0.0949  0.0312
  877YOPE   C3A 9979   8.827  12.759   8.282 -0.0779  0.0433 -0.0283
  877YOPE   C4A 9980   9.192  12.756   8.541 -0.3096  0.0507 -0.1583
  877YOPE   C1B 9981   8.190  13.186   7.708  0.0447  0.2908  0.2988
  877YOPE   C2B 9982   8.180  13.262   8.073 -0.1322  0.1052  0.1129
  877YOPE   D3B 9983   8.015  13.121   8.481 -0.3651 -0.2228  0.0433
  877YOPE   C4B 9984   7.884  12.991   8.927  0.0045 -0.3573  0.0392
  878YOPE   NH3 9985   4.872   3.536   6.160  0.0347 -0.0242  0.3193
  878YOPE   PO4 9986   4.476   3.724   6.104  0.0421 -0.3090  0.1295
  878YOPE   GL1 9987   4.408   3.495   6.487 -0.3071  0.0196 -0.2720
  878YOPE   GL2 9988   4.059   3.592   6.579  0.0174  0.3593  0.0757
  878YOPE   C1A 9989   4.366   3.353   6.928  0.2187  0.0657 -0.1353
  878YOPE   D2A 9990   4.313   3.094   7.315  0.0024  0.0219  0.0989
  878YOPE   C3A 9991   4.516   2.942   7.695 -0.1703 -0.0405  0.2222
  878YOPE   C4A 9992   4.578   2.663   8.082  0.0495 -0.4076 -0.0600
  878YOPE   C1B 9993   3.879   3.282   6.814 -0.0698 -0.0090  0.1714
  878YOPE   C2B 9994   3.737   3.361   7.299 -0.1443 -0.0531 -0.3198
  878YOPE   D3B 9995   3.340   3.262   7.565  0.2131 -0.0388  0.1381
  878YOPE   C4B 9996   3.115   3.384   7.913  0.0734  0.2458 -0.1132
  879YOPE   NH3 9997  11.860  15.829   6.514 -0.0604  0.1158 -0.0015
  879YOPE   PO4 9998  11.630  15.578   6.843 -0.0091  0.2393 -0.1566
  879YOPE   GL1 9999  11.891  15.544   7.114  0.1641 -0.1253 -0.0396
  879YOPE   GL210000  12.049  15.865   6.975  0.1886 -0.2736 -0.1055
  879YOPE   C1A10001  11.919  15.432   7.630 -0.0568 -0.1063  0.1514
  879YOPE   D2A10002  11.932  15.411   8.076 -0.2967 -0.0556 -0.2589
  879YOPE   C3A10003  12.164  15.416   8.418 -0.2632 -0.1431 -0.0247
  879YOPE   C4A10004  12.598  15.584   8.596 -0.0971  0.1346 -0.2803
  879YOPE   C1B10005  11.966  15.900   7.450  0.0389 -0.0474 -0.0725
  879YOPE   C2B10006  11.902  15.928   7.948 -0.4261  0.3172  0.0096
  879YOPE   D3B10007  11.966  15.881   8.347  0.1169 -0.3700 -0.2531
  879YOPE   C4B10008  11.875  16.003   8.693 -0.0575 -0.0391  0.0422
  880YOPE   NH310009  10.046   5.056   5.790  0.3089  0.0012  0.1363
  880YOPE   PO410010  10.331   4.878   6.037 -0.0303  0.1223  0.0153
  880YOPE   GL110011  10.324   4.542   6.365 -0.0422  0.0014 -0.1433
  880YOPE   GL210012  10.068   4.441   6.338  0.0924  0.1497 -0.4059
  880YOPE   C1A10013  10.472   4.664   6.858  0.0771 -0.1007  0.2686
  880YOPE   D2A10014  10.545   4.773   7.205 -0.5095 -0.1397 -0.1899
  880YOPE   C3A10015  10.498   4.700   7.645 -0.0504  0.2519  0.2779
  880YOPE   C4A10016  10.636   4.805   8.133 -0.0838 -0.0600  0.4676
  880YOPE   C1B10017  10.015   4.376   6.821 -0.1497  0.0032 -0.0720
  880YOPE   C2B10018  10.124   4.510   7.227 -0.1520  0.1696  0.0624
  880YOPE   D3B10019  10.015   4.630   7.597 -0.0878  0.1954  0.0331
  880YOPE   C4B10020  10.002   4.312   7.938 -0.5746  0.0160 -0.1494
  881YOPE   NH310021  11.050   5.291   6.118 -0.1021  0.0639 -0.0011
  881YOPE   PO410022  10.706   5.459   6.299 -0.0699 -0.1012 -0.1561
  881YOPE   GL110023  10.512   5.306   6.648  0.3740 -0.0861 -0.4169
  881YOPE   GL210024  10.246   4.981   6.520  0.0073 -0.1319  0.1048
  881YOPE   C1A10025  10.336   5.112   6.999 -0.0380  0.0240 -0.2103
  881YOPE   D2A10026  10.142   5.045   7.378  0.4494  0.0951 -0.2359
  881YOPE   C3A10027  10.290   5.078   7.826  0.2971  0.1055  0.1289
  881YOPE   C4A10028  10.159   4.760   8.141  0.0534 -0.1611 -0.1447
  881YOPE   C1B10029   9.948   5.281   6.686  0.2082 -0.0221  0.2063
  881YOPE   C2B10030   9.743   5.299   6.981 -0.2941 -0.0941 -0.0542
  881YOPE   D3B10031   9.680   5.268   7.397  0.4006 -0.1180  0.2098
  881YOPE   C4B10032   9.719   4.987   7.733  0.1037  0.2118  0.1456
  882YOPE   NH310033   7.078  17.957   6.083 -0.2581 -0.1078  0.3105
  882YOPE   PO410034   7.484  18.106   6.158  0.0700 -0.0087  0.3853
  882YOPE   GL110035   7.506  18.290   6.537  0.3312  0.2263  0.3019
  882YOPE   GL210036   7.616  18.057   6.716 -0.1406 -0.0846  0.2998
  882YOPE   C1A10037   7.432  18.553   6.825 -0.2131 -0.0550  0.0479
  882YOPE   D2A10038   7.299  18.730   7.108  0.1559 -0.4808  0.2006
  882YOPE   C3A10039   7.077  19.041   7.348 -0.2868  0.2833 -0.1325
  882YOPE   C4A10040   7.224  19.204   7.793 -0.0752  0.1602  0.0911
  882YOPE   C1B10041   7.655  18.239   7.106 -0.1865 -0.0384 -0.2733
  882YOPE   C2B10042   7.655  18.525   7.415 -0.3406 -0.0391  0.1177
  882YOPE   D3B10043   7.752  18.848   7.684 -0.0786  0.0919  0.0550
  882YOPE   C4B10044   7.801  19.046   8.172  0.1826 -0.3238 -0.4002
  883YOPE   NH310045   4.140   7.216   6.851 -0.2310 -0.2972 -0.2946
  883YOPE   PO410046   4.259   7.693   6.923  0.2400  0.0653 -0.1894
  883YOPE   GL110047   4.451   8.118   7.123 -0.3836  0.1014 -0.0442
  883YOPE   GL210048   4.689   8.359   7.014  0.1677  0.4494  0.1213
  883YOPE   C1A10049   4.612   8.326   7.513 -0.1752 -0.3093 -0.0237
  883YOPE   D2A10050   4.722   8.420   7.920 -0.4018 -0.1576 -0.1345
  883YOPE   C3A10051   4.477   8.314   8.299 -0.2239  0.3065 -0.0105
  883YOPE   C4A10052   4.613   8.162   8.660  0.1613 -0.1036 -0.1227
  883YOPE   C1B10053   4.368   8.644   7.301  0.1349 -0.0280  0.1485
  883YOPE   C2B10054   4.281   8.718   7.658 -0.0751  0.4520  0.1279
  883YOPE   D3B10055   4.400   8.719   8.101 -0.0197 -0.0463  0.0455
  883YOPE   C4B10056   4.645   8.743   8.484  0.2367 -0.1225  0.0901
  884YOPE   NH310057   2.118  15.506   5.612 -0.3328 -0.2434  0.2935
  884YOPE   PO410058   2.280  15.981   5.653  0.0049  0.0291 -0.2052
  884YOPE   GL110059   2.373  15.999   6.021 -0.1199 -0.1842 -0.1703
  884YOPE   GL210060   2.699  16.071   6.172  0.0985  0.4927  0.0332
  884YOPE   C1A10061   2.226  16.104   6.381  0.1573 -0.1323  0.1126
  884YOPE   D2A10062   2.094  16.137   6.758 -0.1758 -0.0396  0.2903
  884YOPE   C3A10063   2.175  15.991   7.266 -0.0358 -0.0811  0.3146
  884YOPE   C4A10064   2.008  15.717   7.561  0.0663 -0.2012 -0.1920
  884YOPE   C1B10065   2.744  16.023   6.591 -0.0621  0.1582 -0.0212
  884YOPE   C2B10066   2.676  15.968   7.019  0.1208 -0.1997  0.2292
  884YOPE   D3B10067   2.729  15.904   7.350  0.1495  0.0183 -0.1783
  884YOPE   C4B10068   2.472  15.721   7.724 -0.3091  0.1708  0.1589
  885YOPE   NH310069  11.279   7.861   6.797  0.0166 -0.1418 -0.0912
  885YOPE   PO410070  11.633   8.136   6.707  0.2008  0.0413 -0.0276
  885YOPE   GL110071  11.968   8.173   7.038  0.1455  0.0173 -0.5889
  885YOPE   GL210072  12.010   8.499   7.100  0.0739 -0.1549  0.1142
  885YOPE   C1A10073  12.054   7.967   7.518 -0.2082 -0.1657 -0.1979
  885YOPE   D2A10074  12.413   7.972   7.705  0.2177 -0.2643  0.0525
  885YOPE   C3A10075  12.406   8.013   8.193  0.2870  0.0497  0.1782
  885YOPE   C4A10076  12.154   8.148   8.528  0.0088  0.0193  0.2475
  885YOPE   C1B10077  12.212   8.453   7.503  0.1363 -0.2124  0.1855
  885YOPE   C2B10078  12.223   8.442   7.812  0.0609  0.0564  0.1365
  885YOPE   D3B10079  12.185   8.552   8.212 -0.3305  0.2222 -0.0310
  885YOPE   C4B10080  11.880   8.804   8.460  0.0959 -0.3070 -0.2348
  886YOPE   NH310081  10.350   9.948   6.359  0.1878  0.0005 -0.1730
  886YOPE   PO410082  10.596   9.588   6.315 -0.1845  0.0455 -0.2528
  886YOPE   GL110083  10.651   9.660   6.756 -0.1842 -0.0736 -0.0474
  886YOPE   GL210084  10.442   9.885   6.871  0.0669  0.0934 -0.2358
  886YOPE   C1A10085  10.911   9.879   7.095  0.1178  0.0864 -0.1566
  886YOPE   D2A10086  10.870   9.985   7.487 -0.0928  0.2744  0.0633
  886YOPE   C3A10087  10.641  10.361   7.604 -0.0105  0.0627  0.1287
  886YOPE   C4A10088  10.411  10.707   7.764  0.0833  0.0304 -0.2442
  886YOPE   C1B10089  10.435   9.967   7.309 -0.1209 -0.0045  0.0035
  886YOPE   C2B10090  10.289  10.056   7.706  0.3002 -0.2711  0.2983
  886YOPE   D3B10091  10.082  10.044   8.053 -0.3785  0.1499 -0.1163
  886YOPE   C4B10092   9.817  10.152   8.353  0.0351  0.1992 -0.1467
  887YOPE   NH310093   8.884  17.892   6.431 -0.0577  0.1481 -0.2004
  887YOPE   PO410094   9.118  18.234   6.434 -0.0079 -0.2321 -0.0019
  887YOPE   GL110095   9.037  18.279   6.812 -0.4437 -0.0662  0.2055
  887YOPE   GL210096   9.117  18.045   6.936  0.3131  0.1957 -0.1363
  887YOPE   C1A10097   8.713  18.603   6.991 -0.1216  0.3261  0.2118
  887YOPE   D2A10098   8.492  18.924   7.125  0.0996 -0.1733  0.0625
  887YOPE   C3A10099   8.428  19.017   7.612 -0.0993 -0.0523  0.2125
  887YOPE   C4A10100   8.203  19.056   7.963 -0.0518 -0.0656 -0.2251
  887YOPE   C1B10101   9.451  17.815   7.226 -0.2244 -0.2269 -0.1663
  887YOPE   C2B10102   9.724  17.389   7.390 -0.2635  0.0799 -0.2219
  887YOPE   D3B10103   9.852  17.100   7.714 -0.0535 -0.2278  0.0879
  887YOPE   C4B10104  10.273  16.956   8.017  0.0163 -0.2283  0.1802
  888YOPE   NH310105   9.479  10.900   6.932 -0.0085 -0.0332  0.0519
  888YOPE   PO410106   8.952  10.946   6.873 -0.0609 -0.1433  0.3448
  888YOPE   GL110107   9.035  11.128   7.245  0.0758 -0.0243  0.2314
  888YOPE   GL210108   8.793  11.069   7.538  0.0585 -0.0819 -0.2452
  888YOPE   C1A10109   9.086  11.467   7.600  0.2959  0.0543  0.0622
  888YOPE   D2A10110   9.010  11.912   7.508 -0.4514  0.1603  0.1212
  888YOPE   C3A10111   9.257  12.125   7.692  0.0851  0.0626  0.3282
  888YOPE   C4A10112   9.636  12.120   7.641  0.0608  0.2173  0.3001
  888YOPE   C1B10113   8.823  10.785   7.807  0.0271  0.0510 -0.3536
  888YOPE   C2B10114   8.776  10.553   8.260  0.2046 -0.1680 -0.0843
  888YOPE   D3B10115   8.780  10.623   8.727 -0.3599  0.0049  0.0916
  888YOPE   C4B10116   8.777  10.955   9.019  0.1539 -0.2702  0.0639
  889YOPE   NH310117  12.724  12.335   7.158 -0.2513  0.1426 -0.1105
  889YOPE   PO410118  13.194  12.447   6.973 -0.1319  0.3931  0.2068
  889YOPE   GL110119  13.104  12.575   7.444 -0.1145  0.1832  0.1171
  889YOPE   GL210120  12.844  12.456   7.600  0.0950 -0.0715 -0.0653
  889YOPE   C1A10121  13.234  12.647   7.908 -0.2545 -0.1140 -0.1056
  889YOPE   D2A10122  12.966  12.742   8.343  0.0043  0.2898  0.2099
  889YOPE   C3A10123  13.017  12.986   8.711 -0.0069 -0.0716 -0.1047
  889YOPE   C4A10124  12.947  13.349   8.905 -0.2158 -0.1963  0.0958
  889YOPE   C1B10125  12.816  12.803   7.818  0.0759  0.1301  0.0365
  889YOPE   C2B10126  12.488  13.014   8.091 -0.2822  0.0979 -0.0446
  889YOPE   D3B10127  12.607  13.112   8.517  0.0465 -0.2071  0.2302
  889YOPE   C4B10128  12.577  13.469   8.683  0.0209 -0.2765 -0.0050
  890YOPE   NH310129   0.402   7.248   6.202  0.0206  0.0217  0.2105
  890YOPE   PO410130  -0.062   7.215   5.968 -0.0658 -0.0271  0.0202
  890YOPE   GL110131  -0.024   6.867   6.246 -0.1806 -0.0718 -0.0623
  890YOPE   GL210132   0.090   6.663   6.455 -0.1383  0.0396 -0.1405
  890YOPE   C1A10133  -0.243   6.907   6.609  0.0148 -0.2474 -0.0011
  890YOPE   D2A10134  -0.623   6.951   6.737  0.0106 -0.2486 -0.1928
  890YOPE   C3A10135  -0.686   6.935   7.114  0.1789 -0.0694 -0.2357
  890YOPE   C4A10136  -0.699   7.259   7.351 -0.1047 -0.1136  0.1760
  890YOPE   C1B10137   0.240   6.805   6.821 -0.1996 -0.0562  0.1478
  890YOPE   C2B10138   0.223   6.946   7.262  0.1733 -0.1175  0.2327
  890YOPE   D3B10139   0.320   6.942   7.736 -0.2963 -0.1698  0.0488
  890YOPE   C4B10140   0.240   7.107   8.134 -0.1432  0.1588  0.3204
  891YOPE   NH310141   3.043  17.594   5.446  0.1574 -0.1609 -0.2874
  891YOPE   PO410142   2.748  17.244   5.473 -0.3312 -0.3917  0.0748
  891YOPE   GL110143   2.709  17.352   5.925  0.0350  0.1536  0.1080
  891YOPE   GL210144   2.399  17.033   6.006 -0.0588 -0.3922 -0.1527
  891YOPE   C1A10145   2.629  17.527   6.326 -0.0353  0.0857  0.1565
  891YOPE   D2A10146   2.752  17.359   6.740  0.1342  0.0276  0.0778
  891YOPE   C3A10147   2.622  17.297   7.130 -0.1008  0.0219 -0.0813
  891YOPE   C4A10148   2.530  17.172   7.620  0.2480  0.0287 -0.3324
  891YOPE   C1B10149   2.563  16.999   6.454 -0.2510  0.0534  0.2138
  891YOPE   C2B10150   2.640  16.849   6.879 -0.0700  0.0202  0.0228
  891YOPE   D3B10151   2.575  16.832   7.305 -0.0958 -0.0187  0.0655
  891YOPE   C4B10152   2.670  16.662   7.666  0.1015  0.2772  0.2210
  892YOPE   NH310153  14.912  13.397   6.727 -0.1009 -0.1810 -0.5030
  892YOPE   PO410154  14.723  12.941   6.611  0.3871 -0.0113 -0.3092
  892YOPE   GL110155  14.822  12.934   7.055  0.0342 -0.2680 -0.0339
  892YOPE   GL210156  14.562  12.864   7.208 -0.0354  0.2333  0.1441
  892YOPE   C1A10157  15.144  12.834   7.401 -0.3913  0.1634  0.1591
  892YOPE   D2A10158  15.100  12.921   7.809 -0.0491  0.0287 -0.1647
  892YOPE   C3A10159  15.094  12.767   8.243  0.5632  0.1965  0.2815
  892YOPE   C4A10160  15.147  12.549   8.610  0.0251 -0.1153  0.1370
  892YOPE   C1B10161  14.698  12.664   7.573  0.1413 -0.1505  0.1114
  892YOPE   C2B10162  14.787  12.479   7.962  0.2354 -0.2479  0.1200
  892YOPE   D3B10163  14.918  12.217   8.271  0.0808  0.0350 -0.0356
  892YOPE   C4B10164  14.669  11.816   8.354 -0.1317 -0.0251 -0.2043
  893YOPE   NH310165   2.305   0.645   5.685  0.0137 -0.0167 -0.1657
  893YOPE   PO410166   2.824   0.620   5.653  0.0478 -0.1220 -0.1168
  893YOPE   GL110167   2.614   0.350   5.961 -0.0863 -0.1421  0.1258
  893YOPE   GL210168   2.532   0.571   6.112  0.1457  0.2152 -0.0667
  893YOPE   C1A10169   2.638   0.136   6.375  0.3792  0.0172  0.1735
  893YOPE   D2A10170   2.881   0.002   6.613  0.0049  0.0689 -0.0139
  893YOPE   C3A10171   2.740  -0.105   7.114 -0.0162  0.1173 -0.0554
  893YOPE   C4A10172   2.368  -0.295   7.246  0.2741  0.0866 -0.0826
  893YOPE   C1B10173   2.601   0.910   6.448  0.0155 -0.2620  0.2269
  893YOPE   C2B10174   2.737   0.969   6.822 -0.4509  0.0130  0.2468
  893YOPE   D3B10175   2.738   0.991   7.338  0.3622 -0.2636  0.0023
  893YOPE   C4B10176   2.788   1.010   7.784  0.0905  0.0411  0.4853
  894YOPE   NH310177  10.280   9.301   6.523 -0.3784  0.0701 -0.4441
  894YOPE   PO410178  10.023   9.586   6.549 -0.4238 -0.0364 -0.0819
  894YOPE   GL110179  10.029   9.596   6.934 -0.0036 -0.1554 -0.1884
  894YOPE   GL210180   9.992   9.370   7.016  0.0341 -0.0835 -0.1867
  894YOPE   C1A10181  10.066   9.615   7.414  0.3374  0.0426  0.3936
  894YOPE   D2A10182  10.039   9.487   7.897 -0.1909 -0.1065 -0.3041
  894YOPE   C3A10183  10.067   9.632   8.283 -0.0115  0.2570  0.2079
  894YOPE   C4A10184  10.377   9.876   8.532  0.1001 -0.0561 -0.0629
  894YOPE   C1B10185   9.606   9.450   7.378  0.2121  0.0228 -0.1217
  894YOPE   C2B10186   9.572   9.215   7.749  0.0005  0.2356  0.0565
  894YOPE   D3B10187   9.712   9.290   8.172 -0.2011  0.1390 -0.2196
  894YOPE   C4B10188   9.625   9.393   8.706  0.1745 -0.1851  0.0608
  895YOPE   NH310189   0.773  13.629   6.029  0.3395  0.1975  0.1234
  895YOPE   PO410190   1.004  13.254   5.892 -0.0701  0.1558  0.0822
  895YOPE   GL110191   0.770  13.230   6.293 -0.0175 -0.0220 -0.0966
  895YOPE   GL210192   0.766  13.631   6.513  0.3097 -0.0759  0.1096
  895YOPE   C1A10193   0.807  13.182   6.740  0.1487  0.0585  0.1527
  895YOPE   D2A10194   0.706  13.350   7.142  0.2166  0.1203  0.2611
  895YOPE   C3A10195   0.957  13.130   7.488 -0.1381  0.0953  0.2069
  895YOPE   C4A10196   1.180  12.867   7.478  0.1621  0.1646 -0.0002
  895YOPE   C1B10197   0.980  13.605   6.806 -0.1708 -0.0043 -0.1552
  895YOPE   C2B10198   1.081  13.635   7.294 -0.3129 -0.0653 -0.0626
  895YOPE   D3B10199   0.886  13.593   7.651  0.0152 -0.3925 -0.2514
  895YOPE   C4B10200   0.712  13.501   8.030 -0.3429  0.2669  0.0867
  896YOPE   NH310201   7.135   6.878   6.222  0.2661  0.1272 -0.1574
  896YOPE   PO410202   7.527   6.990   6.263 -0.1584 -0.0570  0.3111
  896YOPE   GL110203   7.499   6.976   6.727  0.0733  0.1542  0.0064
  896YOPE   GL210204   7.242   6.932   6.736  0.1731 -0.4517  0.1019
  896YOPE   C1A10205   7.484   6.653   7.093 -0.0052  0.2026 -0.1260
  896YOPE   D2A10206   7.410   6.662   7.506 -0.0905  0.2560 -0.2059
  896YOPE   C3A10207   7.648   6.754   7.889  0.0122  0.0464  0.0062
  896YOPE   C4A10208   7.865   6.594   8.322 -0.2143 -0.1316 -0.0145
  896YOPE   C1B10209   6.945   6.710   7.042  0.2402 -0.1703  0.1066
  896YOPE   C2B10210   6.867   6.595   7.438  0.0393 -0.2726 -0.1527
  896YOPE   D3B10211   6.697   6.790   7.862  0.0631 -0.0619  0.0806
  896YOPE   C4B10212   6.832   6.960   8.225 -0.3396  0.1286 -0.1999
  897YOPE   NH310213  14.247  15.923   6.627  0.2847  0.0806  0.1259
  897YOPE   PO410214  14.627  15.712   6.620 -0.3026  0.1990 -0.0316
  897YOPE   GL110215  14.769  15.904   6.919  0.3868 -0.2599  0.0406
  897YOPE   GL210216  14.651  16.173   6.924 -0.0666 -0.1353 -0.0434
  897YOPE   C1A10217  15.030  16.086   7.313  0.2012 -0.0317  0.0160
  897YOPE   D2A10218  15.065  16.214   7.650 -0.2067  0.1653  0.0087
  897YOPE   C3A10219  14.991  16.065   8.169 -0.0169  0.0424  0.0083
  897YOPE   C4A10220  14.810  15.958   8.551 -0.0360  0.1448  0.0732
  897YOPE   C1B10221  14.669  16.501   7.274 -0.2431  0.3163 -0.0053
  897YOPE   C2B10222  14.708  16.611   7.625 -0.0706  0.0601 -0.1147
  897YOPE   D3B10223  14.578  16.611   8.033  0.0034  0.0257  0.0282
  897YOPE   C4B10224  14.383  16.870   8.280 -0.1250 -0.0466 -0.0626
  898YOPE   NH310225   5.941  13.639   6.531 -0.2889 -0.3111 -0.1811
  898YOPE   PO410226   6.097  13.268   6.527 -0.0122  0.0950 -0.0389
  898YOPE   GL110227   5.914  12.892   6.771 -0.0574 -0.1420  0.0772
  898YOPE   GL210228   6.198  12.835   6.996  0.0328  0.1640  0.0110
  898YOPE   C1A10229   5.644  12.692   7.037  0.2053  0.1353  0.1668
  898YOPE   D2A10230   5.404  12.415   7.246  0.0144 -0.0296  0.1421
  898YOPE   C3A10231   5.204  12.536   7.624 -0.1632 -0.1551 -0.0497
  898YOPE   C4A10232   4.918  12.515   7.886 -0.2087 -0.1932  0.3326
  898YOPE   C1B10233   6.114  13.061   7.418  0.0099  0.0066  0.0620
  898YOPE   C2B10234   6.228  12.984   7.749  0.0012 -0.0810 -0.2948
  898YOPE   D3B10235   6.298  13.107   8.099 -0.0674  0.0497 -0.1364
  898YOPE   C4B10236   6.148  12.900   8.482  0.0520  0.2907 -0.0334
  899YOPE   NH310237  13.394   9.616   6.557  0.1569  0.0957 -0.0833
  899YOPE   PO410238  13.040   9.855   6.690 -0.3203  0.0344 -0.1892
  899YOPE   GL110239  13.299  10.004   7.089 -0.1294  0.1174  0.1982
  899YOPE   GL210240  13.180  10.287   7.214 -0.0592 -0.2718  0.3486
  899YOPE   C1A10241  13.419   9.701   7.459 -0.3202 -0.0146 -0.3364
  899YOPE   D2A10242  13.570   9.826   7.818 -0.0830 -0.0316 -0.3005
  899YOPE   C3A10243  13.600   9.689   8.143  0.0491  0.1775  0.2408
  899YOPE   C4A10244  13.692   9.397   8.498 -0.2061  0.2134  0.2410
  899YOPE   C1B10245  13.274  10.334   7.661  0.0262  0.0134  0.0494
  899YOPE   C2B10246  13.523  10.278   8.033 -0.1007  0.1057 -0.0929
  899YOPE   D3B10247  13.425  10.118   8.380  0.0448 -0.0616  0.2198
  899YOPE   C4B10248  13.458  10.394   8.695 -0.1139  0.0278 -0.0917
  900YOPE   NH310249  17.320  10.495   6.429 -0.0833  0.1036 -0.0197
  900YOPE   PO410250  17.255  10.870   6.429 -0.2850  0.0394 -0.0874
  900YOPE   GL110251  17.191  10.707   6.920  0.1662 -0.0105 -0.1387
  900YOPE   GL210252  16.980  10.419   6.900 -0.0964 -0.2070 -0.1865
  900YOPE   C1A10253  17.430  10.575   7.331  0.0377  0.0953  0.2695
  900YOPE   D2A10254  17.672  10.500   7.704 -0.3775 -0.1052  0.0595
  900YOPE   C3A10255  17.586  10.319   8.065  0.2228  0.4397  0.1403
  900YOPE   C4A10256  17.321  10.264   8.322 -0.0734  0.2355  0.0345
  900YOPE   C1B10257  16.984  10.430   7.335 -0.0583  0.0825  0.0815
  900YOPE   C2B10258  17.065  10.629   7.770  0.1308 -0.0880 -0.4419
  900YOPE   D3B10259  17.380  10.757   7.948  0.2683 -0.0260  0.0990
  900YOPE   C4B10260  17.577  10.825   8.269  0.1123 -0.1300 -0.0853
  901YOPE   NH310261  12.843  10.326   6.853 -0.0928  0.0025  0.3860
  901YOPE   PO410262  13.178  10.661   6.819 -0.2658 -0.0614 -0.1821
  901YOPE   GL110263  12.926  10.768   7.120 -0.1455  0.0030  0.1380
  901YOPE   GL210264  12.571  10.687   7.019 -0.3469 -0.3045  0.2721
  901YOPE   C1A10265  13.013  10.707   7.521 -0.2079  0.0565 -0.0019
  901YOPE   D2A10266  12.806  10.461   7.797 -0.1185  0.0390 -0.1596
  901YOPE   C3A10267  13.009  10.382   8.215 -0.0977  0.1267  0.0793
  901YOPE   C4A10268  12.925  10.333   8.652  0.1718  0.1775 -0.2149
  901YOPE   C1B10269  12.494  10.735   7.467 -0.0381  0.2470 -0.0168
  901YOPE   C2B10270  12.435  10.851   7.913 -0.1544 -0.4474 -0.5841
  901YOPE   D3B10271  12.522  10.604   8.279  0.0029 -0.0999  0.1329
  901YOPE   C4B10272  12.422  10.219   8.653 -0.0584  0.0310 -0.1860
  902YOPE   NH310273  11.694   3.694   6.073 -0.1181 -0.0636 -0.0231
  902YOPE   PO410274  11.288   3.570   5.945  0.2998 -0.2662  0.1349
  902YOPE   GL110275  11.052   3.836   6.294 -0.0381  0.0020 -0.0839
  902YOPE   GL210276  10.717   3.880   6.302 -0.2028  0.0869  0.1180
  902YOPE   C1A10277  11.187   4.088   6.589  0.2839  0.2178  0.0434
  902YOPE   D2A10278  10.968   4.077   7.054  0.1952  0.1629 -0.0962
  902YOPE   C3A10279  10.623   4.272   7.055 -0.0569  0.1626  0.1469
  902YOPE   C4A10280  10.238   4.003   7.092  0.1231  0.0570 -0.1834
  902YOPE   C1B10281  10.849   3.703   6.697 -0.2637 -0.0959  0.1828
  902YOPE   C2B10282  10.650   3.706   7.027  0.1132 -0.0536 -0.0658
  902YOPE   D3B10283  10.622   3.916   7.439  0.2314 -0.1146 -0.0228
  902YOPE   C4B10284  10.465   4.180   7.692  0.0520 -0.3010 -0.2117
  903YOPE   NH310285  17.199   7.728   6.167 -0.1958  0.0276  0.0755
  903YOPE   PO410286  17.555   7.971   6.290 -0.0279  0.3064 -0.0285
  903YOPE   GL110287  17.480   7.731   6.590  0.2590  0.0039 -0.0335
  903YOPE   GL210288  17.606   7.404   6.354 -0.1340  0.1814 -0.1922
  903YOPE   C1A10289  17.497   7.407   6.927 -0.4062 -0.1765 -0.2391
  903YOPE   D2A10290  17.774   7.117   7.080 -0.0954 -0.2053  0.1444
  903YOPE   C3A10291  17.834   7.094   7.464  0.5801 -0.2403  0.0383
  903YOPE   C4A10292  17.984   7.347   7.775  0.0214  0.0659 -0.0677
  903YOPE   C1B10293  18.040   7.364   6.630  0.0129 -0.1145 -0.0720
  903YOPE   C2B10294  18.344   7.472   6.990 -0.1733  0.1199 -0.4090
  903YOPE   D3B10295  18.363   7.427   7.426  0.1716  0.0244 -0.0777
  903YOPE   C4B10296  18.521   7.403   7.906  0.0568  0.0546  0.1171
  904YOPE   NH310297  12.060  10.532   6.752 -0.1048  0.1739 -0.2261
  904YOPE   PO410298  12.372  10.209   6.826  0.1277 -0.2457  0.1736
  904YOPE   GL110299  12.250   9.973   7.120 -0.7431  0.3992 -0.1271
  904YOPE   GL210300  12.376   9.726   7.322  0.1464  0.3030  0.0206
  904YOPE   C1A10301  12.028  10.030   7.544 -0.0833  0.0076 -0.0119
  904YOPE   D2A10302  11.847  10.063   7.936 -0.0272  0.1983  0.1453
  904YOPE   C3A10303  12.014  10.205   8.297  0.1283 -0.1199  0.2424
  904YOPE   C4A10304  12.023  10.608   8.515  0.0423  0.1640  0.0531
  904YOPE   C1B10305  12.563   9.464   7.544 -0.0231  0.2727 -0.0456
  904YOPE   C2B10306  12.566   9.386   7.953 -0.2010  0.0651 -0.1981
  904YOPE   D3B10307  12.621   9.399   8.338 -0.1769  0.2290  0.0666
  904YOPE   C4B10308  12.663   9.234   8.870 -0.2130  0.1520  0.2074
  905YOPE   NH310309  13.831   3.840   6.305 -0.2306  0.1601 -0.0325
  905YOPE   PO410310  13.715   4.290   6.386  0.0911 -0.1014  0.2878
  905YOPE   GL110311  13.627   4.077   6.753  0.2140 -0.0679  0.2252
  905YOPE   GL210312  13.517   4.370   6.895  0.2605  0.2531  0.0953
  905YOPE   C1A10313  13.547   3.946   7.112 -0.1963 -0.1405 -0.0897
  905YOPE   D2A10314  13.404   3.820   7.508  0.0364  0.1228 -0.1159
  905YOPE   C3A10315  13.387   4.067   7.879 -0.2925  0.0597  0.1009
  905YOPE   C4A10316  13.522   4.484   7.986  0.4540 -0.3040 -0.2739
  905YOPE   C1B10317  13.441   4.525   7.211 -0.0161 -0.1156  0.1040
  905YOPE   C2B10318  13.332   4.763   7.582  0.0967 -0.0398  0.2406
  905YOPE   D3B10319  13.403   5.012   7.884 -0.2134 -0.0960  0.0173
  905YOPE   C4B10320  13.652   5.401   8.084 -0.2691  0.3053 -0.1284
  906YOPE   NH310321   4.925  15.720   5.814 -0.1174  0.2362 -0.0622
  906YOPE   PO410322   4.911  15.231   5.794 -0.3104 -0.4588 -0.3062
  906YOPE   GL110323   4.765  15.355   6.210  0.2027  0.0552  0.1164
  906YOPE   GL210324   5.012  15.254   6.300  0.0247 -0.0094  0.0469
  906YOPE   C1A10325   4.738  15.685   6.597  0.1436  0.0234  0.0938
  906YOPE   D2A10326   4.579  15.859   7.091  0.1073  0.0326 -0.0191
  906YOPE   C3A10327   4.452  15.646   7.450 -0.2033  0.0460  0.3277
  906YOPE   C4A10328   4.322  15.700   7.841 -0.1559 -0.1064 -0.0547
  906YOPE   C1B10329   5.086  15.330   6.635 -0.0095  0.0837  0.0531
  906YOPE   C2B10330   5.084  15.527   7.091 -0.0571 -0.1073 -0.0441
  906YOPE   D3B10331   4.964  15.618   7.429  0.1452  0.0943 -0.0277
  906YOPE   C4B10332   4.803  15.809   7.765  0.3469  0.2597  0.0879
  907YOPE   NH310333   8.150  15.912   6.627 -0.1461  0.1903 -0.2634
  907YOPE   PO410334   8.054  16.345   6.651  0.1687 -0.0176 -0.2178
  907YOPE   GL110335   8.331  16.276   7.018  0.0140  0.0638  0.0032
  907YOPE   GL210336   8.395  15.988   7.171 -0.2165  0.2130  0.1764
  907YOPE   C1A10337   8.337  16.422   7.405 -0.1004 -0.1008 -0.1832
  907YOPE   D2A10338   8.588  16.604   7.670  0.0410  0.2438  0.1585
  907YOPE   C3A10339   8.673  16.531   8.125 -0.4138  0.0253 -0.1525
  907YOPE   C4A10340   8.385  16.559   8.522  0.3332  0.1679 -0.0715
  907YOPE   C1B10341   8.382  15.641   7.447  0.0506  0.3104 -0.1655
  907YOPE   C2B10342   8.442  15.607   7.839 -0.2465  0.2123 -0.3008
  907YOPE   D3B10343   8.151  15.745   8.211 -0.5935 -0.2316  0.1263
  907YOPE   C4B10344   7.762  15.817   8.505  0.1759  0.1115  0.1417
  908YOPE   NH310345   7.181   1.852   5.710 -0.1447 -0.0175 -0.0998
  908YOPE   PO410346   7.658   1.840   5.629 -0.0908  0.1884  0.0625
  908YOPE   GL110347   7.541   2.036   6.103 -0.0919 -0.0750 -0.1277
  908YOPE   GL210348   7.254   2.295   6.232  0.3045 -0.2454  0.0868
  908YOPE   C1A10349   7.716   2.083   6.499  0.0008  0.0259 -0.0403
  908YOPE   D2A10350   7.827   2.007   6.914 -0.1121 -0.1100 -0.0237
  908YOPE   C3A10351   7.854   1.967   7.332  0.1532 -0.2404 -0.1369
  908YOPE   C4A10352   8.014   1.866   7.720 -0.0609 -0.2626 -0.2960
  908YOPE   C1B10353   7.095   2.264   6.568 -0.0029 -0.0333  0.1733
  908YOPE   C2B10354   6.855   1.907   6.822  0.2365 -0.1213 -0.0837
  908YOPE   D3B10355   6.615   1.816   7.207 -0.0475 -0.0562 -0.5079
  908YOPE   C4B10356   6.580   1.914   7.645 -0.0623  0.1873 -0.0040
  909YOPE   NH310357  13.866  11.815   6.566  0.1287  0.2111 -0.0273
  909YOPE   PO410358  13.676  11.803   7.047 -0.0440 -0.4856 -0.4115
  909YOPE   GL110359  13.544  11.674   7.481 -0.0892 -0.0034  0.2183
  909YOPE   GL210360  13.727  11.842   7.604 -0.2561  0.1159 -0.6049
  909YOPE   C1A10361  13.397  11.494   7.842 -0.1018  0.1802 -0.1236
  909YOPE   D2A10362  13.458  11.512   8.247  0.2073  0.1506  0.3846
  909YOPE   C3A10363  13.504  11.831   8.441 -0.1116  0.0804  0.0291
  909YOPE   C4A10364  13.630  12.230   8.701 -0.1021  0.1487  0.0983
  909YOPE   C1B10365  13.882  11.789   8.036  0.1724 -0.1537 -0.1903
  909YOPE   C2B10366  14.011  12.056   8.456  0.0330 -0.0940  0.1571
  909YOPE   D3B10367  14.092  12.043   8.892  0.1172  0.0281 -0.0054
  909YOPE   C4B10368  14.078  11.976   9.409 -0.3804  0.0377 -0.0184
  910YOPE   NH310369   1.411   7.459   6.268 -0.0702  0.2169 -0.1503
  910YOPE   PO410370   1.578   7.062   6.460  0.0697 -0.0236  0.0397
  910YOPE   GL110371   1.437   7.139   6.851  0.1317 -0.2255  0.1817
  910YOPE   GL210372   1.356   7.541   6.762  0.0228 -0.0524 -0.2722
  910YOPE   C1A10373   1.315   7.340   7.238  0.1226 -0.1658 -0.3995
  910YOPE   D2A10374   1.375   7.242   7.710  0.2225  0.0865 -0.0010
  910YOPE   C3A10375   1.662   6.903   7.942  0.1032  0.0204 -0.3100
  910YOPE   C4A10376   1.883   6.807   8.213 -0.2646  0.0092  0.1716
  910YOPE   C1B10377   1.281   7.840   6.983  0.0915  0.1220  0.1066
  910YOPE   C2B10378   1.295   7.794   7.431  0.3046  0.0243 -0.0792
  910YOPE   D3B10379   1.432   7.771   7.830  0.0485  0.0313  0.4257
  910YOPE   C4B10380   1.467   7.404   8.196 -0.0065 -0.2077 -0.2726
  911YOPE   NH310381   0.100   8.740   6.284 -0.3498 -0.2017  0.0367
  911YOPE   PO410382   0.444   8.564   6.073 -0.2793  0.2063  0.0678
  911YOPE   GL110383   0.530   8.562   6.491 -0.4729  0.0460 -0.1682
  911YOPE   GL210384   0.312   8.380   6.695  0.2943  0.1684  0.1705
  911YOPE   C1A10385   0.663   8.847   6.792 -0.0128  0.0714  0.0339
  911YOPE   D2A10386   0.599   8.984   7.238  0.0782 -0.0104 -0.2024
  911YOPE   C3A10387   0.679   8.757   7.493 -0.0585 -0.0528 -0.2299
  911YOPE   C4A10388   0.753   8.442   7.790  0.3817 -0.0603 -0.0913
  911YOPE   C1B10389   0.324   8.472   7.193 -0.1297 -0.0285 -0.0842
  911YOPE   C2B10390   0.284   8.426   7.639 -0.0012 -0.1674  0.2529
  911YOPE   D3B10391   0.163   8.320   8.062 -0.1657 -0.0023  0.1480
  911YOPE   C4B10392   0.164   8.136   8.415  0.0467  0.1286 -0.0486
  912YOPE   NH310393   7.057   7.848   6.576  0.0313 -0.1190  0.0395
  912YOPE   PO410394   7.335   8.234   6.377 -0.2234  0.0360  0.1652
  912YOPE   GL110395   7.370   8.160   6.818  0.0074 -0.2073 -0.0811
  912YOPE   GL210396   7.273   8.395   7.056 -0.0892 -0.0477  0.1321
  912YOPE   C1A10397   7.458   7.887   7.100  0.3054 -0.1134 -0.2366
  912YOPE   D2A10398   7.421   7.625   7.468 -0.2750 -0.1410 -0.3402
  912YOPE   C3A10399   7.828   7.460   7.808  0.1375  0.0969  0.0512
  912YOPE   C4A10400   7.789   7.149   8.128 -0.2411 -0.0399  0.0447
  912YOPE   C1B10401   7.528   8.337   7.384 -0.3585  0.1239 -0.1425
  912YOPE   C2B10402   7.553   8.274   7.803 -0.0572  0.0814  0.3759
  912YOPE   D3B10403   7.741   8.158   8.154 -0.0556 -0.0895  0.1682
  912YOPE   C4B10404   7.814   8.173   8.501 -0.2674 -0.1038 -0.0170
  913YOPE   NH310405   2.608   8.686   6.439  0.0376 -0.1785  0.1230
  913YOPE   PO410406   2.296   8.326   6.279 -0.1949  0.2937  0.1345
  913YOPE   GL110407   2.082   8.587   6.604  0.1274  0.0551 -0.0420
  913YOPE   GL210408   2.281   8.653   6.815 -0.0391  0.2447  0.1237
  913YOPE   C1A10409   1.865   8.422   7.071 -0.0503 -0.4081  0.0316
  913YOPE   D2A10410   1.830   8.441   7.476 -0.0064 -0.1905 -0.0406
  913YOPE   C3A10411   1.646   8.399   7.861  0.1319 -0.2700  0.0010
  913YOPE   C4A10412   1.354   8.640   8.024 -0.3341 -0.1734 -0.0564
  913YOPE   C1B10413   2.081   8.873   7.058 -0.0450  0.1527 -0.0633
  913YOPE   C2B10414   2.056   8.992   7.470  0.0235 -0.0664 -0.0038
  913YOPE   D3B10415   2.144   8.683   7.817  0.0389 -0.0500  0.0503
  913YOPE   C4B10416   1.934   8.603   8.242  0.3198 -0.2322 -0.3168
  914YOPE   NH310417  13.397  16.812   6.507  0.0081  0.0969  0.1260
  914YOPE   PO410418  13.598  17.274   6.543  0.1426 -0.0803  0.0672
  914YOPE   GL110419  13.611  17.131   6.899 -0.2166 -0.1351  0.0374
  914YOPE   GL210420  13.959  16.974   7.012  0.0521 -0.0546 -0.0213
  914YOPE   C1A10421  13.492  17.343   7.258 -0.0922 -0.0729  0.1268
  914YOPE   D2A10422  13.109  17.478   7.396 -0.0684  0.1264  0.0149
  914YOPE   C3A10423  12.936  17.812   7.334  0.3799 -0.3337 -0.0923
  914YOPE   C4A10424  12.502  17.814   7.418 -0.0579 -0.0030  0.2426
  914YOPE   C1B10425  13.955  17.118   7.433 -0.1039 -0.0071  0.1790
  914YOPE   C2B10426  14.023  17.457   7.793  0.0729 -0.0996  0.0277
  914YOPE   D3B10427  13.859  17.800   7.886 -0.1314 -0.3388 -0.1681
  914YOPE   C4B10428  13.566  17.824   8.157 -0.0013 -0.0231 -0.0483
  915YOPE   NH310429   6.369   2.251   5.884  0.1599  0.0835 -0.2065
  915YOPE   PO410430   6.199   1.832   5.791 -0.4247  0.2376 -0.1915
  915YOPE   GL110431   6.431   1.640   6.145 -0.1672  0.2557 -0.2017
  915YOPE   GL210432   6.280   1.331   6.198  0.0891  0.1950  0.3750
  915YOPE   C1A10433   6.670   1.578   6.540 -0.1043  0.0557 -0.0041
  915YOPE   D2A10434   7.021   1.410   6.729  0.2179 -0.1166  0.3150
  915YOPE   C3A10435   7.088   1.540   7.182  0.0149 -0.0864 -0.1976
  915YOPE   C4A10436   6.863   1.515   7.590 -0.0353  0.3040  0.0908
  915YOPE   C1B10437   6.274   1.240   6.699 -0.0336  0.2934  0.1477
  915YOPE   C2B10438   6.004   1.191   7.121  0.2316 -0.2925  0.3082
  915YOPE   D3B10439   5.925   1.070   7.588  0.1315 -0.0321  0.2265
  915YOPE   C4B10440   6.161   0.654   7.621 -0.0997  0.1261 -0.1281
  916YOPE   NH310441  14.685  14.376   6.779  0.2937  0.2099 -0.0287
  916YOPE   PO410442  14.692  14.735   6.543 -0.2063 -0.0847  0.1210
  916YOPE   GL110443  14.920  14.906   6.950  0.1282 -0.4538  0.1774
  916YOPE   GL210444  15.143  14.695   6.999 -0.1030  0.0958 -0.0036
  916YOPE   C1A10445  14.948  15.070   7.333 -0.0690 -0.1342  0.1179
  916YOPE   D2A10446  15.050  15.096   7.834 -0.0411  0.1249  0.0077
  916YOPE   C3A10447  14.862  15.119   8.224 -0.0607  0.0590  0.0999
  916YOPE   C4A10448  14.988  15.012   8.525 -0.2431  0.0042 -0.3428
  916YOPE   C1B10449  15.119  14.621   7.412 -0.3330  0.3494  0.1048
  916YOPE   C2B10450  15.239  14.624   7.854 -0.1218 -0.1272 -0.0416
  916YOPE   D3B10451  15.250  14.682   8.267  0.3069  0.0105  0.0978
  916YOPE   C4B10452  15.463  14.779   8.716 -0.2087 -0.0770  0.1713
  917YOPE   NH310453   6.595  17.982   6.223 -0.0127 -0.1274 -0.3717
  917YOPE   PO410454   6.202  17.757   6.078 -0.1677  0.0794  0.0297
  917YOPE   GL110455   6.396  17.685   6.576 -0.0902  0.2598 -0.2365
  917YOPE   GL210456   6.546  17.992   6.753  0.2238 -0.0468  0.4173
  917YOPE   C1A10457   6.294  17.644   7.037  0.0897  0.2894  0.1189
  917YOPE   D2A10458   6.231  17.720   7.444  0.0633  0.1728  0.2171
  917YOPE   C3A10459   6.343  17.616   7.769  0.1057  0.4318  0.1909
  917YOPE   C4A10460   6.587  17.336   8.081  0.3469  0.2594  0.2039
  917YOPE   C1B10461   6.693  18.088   7.110  0.0590 -0.0986 -0.1840
  917YOPE   C2B10462   6.739  18.061   7.479  0.1037  0.3794 -0.0263
  917YOPE   D3B10463   6.633  17.999   7.874 -0.0793  0.1451  0.0161
  917YOPE   C4B10464   6.673  18.167   8.270 -0.3308  0.5904 -0.0230
  918YOPE   NH310465   2.513   5.736   6.507 -0.0724 -0.2139 -0.3288
  918YOPE   PO410466   2.742   5.416   6.401  0.0059 -0.1584 -0.0461
  918YOPE   GL110467   2.829   5.390   6.792  0.0758 -0.1014 -0.0505
  918YOPE   GL210468   2.560   5.393   6.918  0.0568 -0.0262 -0.1455
  918YOPE   C1A10469   2.995   5.453   7.187  0.2202  0.0956 -0.1020
  918YOPE   D2A10470   3.010   5.337   7.600 -0.4135 -0.1876 -0.2513
  918YOPE   C3A10471   2.895   5.483   7.872 -0.0749  0.2136 -0.1753
  918YOPE   C4A10472   2.984   5.431   8.173  0.1101 -0.2661 -0.0671
  918YOPE   C1B10473   2.476   5.398   7.382 -0.1885 -0.0446 -0.1308
  918YOPE   C2B10474   2.418   5.449   7.720 -0.2495 -0.0111 -0.0650
  918YOPE   D3B10475   2.397   5.530   8.204 -0.1065  0.0624 -0.2320
  918YOPE   C4B10476   2.524   5.711   8.560  0.0314 -0.1781  0.0402
  919YOPE   NH310477   7.590  15.673   6.560  0.1645 -0.1046  0.2591
  919YOPE   PO410478   7.631  15.982   6.643  0.1238 -0.0983 -0.0001
  919YOPE   GL110479   7.820  16.101   6.987  0.1561  0.0344  0.0634
  919YOPE   GL210480   7.566  16.302   7.215  0.0231 -0.2301  0.1102
  919YOPE   C1A10481   7.971  16.141   7.461  0.1469 -0.0902 -0.0114
  919YOPE   D2A10482   8.212  16.090   7.808  0.1631 -0.3442  0.0333
  919YOPE   C3A10483   8.231  16.361   8.083 -0.2864  0.2264 -0.0178
  919YOPE   C4A10484   8.203  16.880   8.243  0.0113 -0.2156 -0.0768
  919YOPE   C1B10485   7.372  16.389   7.641  0.2169  0.2960 -0.2918
  919YOPE   C2B10486   7.219  16.376   8.068 -0.0622  0.0751 -0.0369
  919YOPE   D3B10487   6.999  16.495   8.423  0.1012  0.2695 -0.1077
  919YOPE   C4B10488   6.765  16.788   8.660  0.2134  0.4380 -0.0331
  920YOPE   NH310489   9.096  15.518   6.765 -0.3373 -0.0664  0.2328
  920YOPE   PO410490   9.228  15.938   6.640 -0.0312  0.0933  0.0993
  920YOPE   GL110491   9.465  16.140   6.945  0.5229  0.2021 -0.1673
  920YOPE   GL210492   9.282  16.303   7.008  0.2534 -0.2091 -0.2952
  920YOPE   C1A10493   9.509  16.100   7.453  0.0513 -0.1554 -0.3060
  920YOPE   D2A10494   9.743  15.927   7.902  0.2058  0.2224  0.1144
  920YOPE   C3A10495   9.606  16.213   8.261  0.2075  0.3079  0.0651
  920YOPE   C4A10496   9.466  16.260   8.688 -0.0775 -0.0972  0.0158
  920YOPE   C1B10497   9.163  16.452   7.444 -0.2891 -0.1298  0.1788
  920YOPE   C2B10498   9.258  16.266   7.880  0.2643 -0.0302 -0.2723
  920YOPE   D3B10499   9.084  16.196   8.315 -0.1507 -0.1938  0.0934
  920YOPE   C4B10500   8.999  16.047   8.690 -0.1290 -0.0506  0.2020
  921YOPE   NH310501   8.385   4.434   5.713  0.1951  0.1705  0.0073
  921YOPE   PO410502   8.859   4.381   5.631 -0.2680  0.1681 -0.0753
  921YOPE   GL110503   8.821   4.384   6.055  0.0502 -0.0014  0.0649
  921YOPE   GL210504   8.630   4.403   6.181  0.1823 -0.3542 -0.0973
  921YOPE   C1A10505   9.054   4.423   6.476  0.1053 -0.0842 -0.1847
  921YOPE   D2A10506   8.876   4.540   6.900  0.2521  0.2458 -0.0511
  921YOPE   C3A10507   9.120   4.331   7.200  0.1083  0.1694  0.1701
  921YOPE   C4A10508   9.333   4.015   7.446 -0.1973 -0.1860  0.1708
  921YOPE   C1B10509   8.759   4.816   6.358 -0.0091 -0.0536  0.2971
  921YOPE   C2B10510   8.615   4.986   6.774  0.3097  0.0644 -0.1968
  921YOPE   D3B10511   8.617   4.842   7.205 -0.3237 -0.3078 -0.1978
  921YOPE   C4B10512   8.711   4.941   7.551  0.0116 -0.2042  0.3011
  922YOPE   NH310513   3.231   3.959   6.138  0.0502  0.0010  0.1081
  922YOPE   PO410514   3.528   4.239   6.170  0.0109 -0.0792 -0.2491
  922YOPE   GL110515   3.742   4.109   6.500  0.2246 -0.1914 -0.1711
  922YOPE   GL210516   3.565   3.807   6.562  0.0912 -0.1525  0.0809
  922YOPE   C1A10517   3.557   4.205   6.904  0.1920  0.0330 -0.1297
  922YOPE   D2A10518   3.634   4.190   7.352 -0.5293  0.1941 -0.3381
  922YOPE   C3A10519   3.807   3.809   7.525  0.1430  0.0510  0.1716
  922YOPE   C4A10520   3.677   3.490   7.824  0.0706  0.1235 -0.0686
  922YOPE   C1B10521   3.801   3.814   6.967  0.0609 -0.0112 -0.0622
  922YOPE   C2B10522   4.205   3.686   7.211 -0.1134  0.1875  0.1749
  922YOPE   D3B10523   4.197   3.559   7.626 -0.2724  0.0364  0.0916
  922YOPE   C4B10524   4.151   3.409   8.052 -0.0079  0.2059  0.0375
  923YOPE   NH310525   8.577  12.184   6.999 -0.0189 -0.0834 -0.2366
  923YOPE   PO410526   8.665  11.819   7.187 -0.2655  0.0365  0.0283
  923YOPE   GL110527   8.421  11.868   7.468  0.0271  0.1087 -0.0446
  923YOPE   GL210528   8.510  11.515   7.548  0.0587  0.2236  0.1542
  923YOPE   C1A10529   8.461  11.968   7.836  0.1577  0.0622 -0.0063
  923YOPE   D2A10530   8.537  11.874   8.269  0.1483 -0.3935 -0.0839
  923YOPE   C3A10531   8.388  12.203   8.527 -0.0415 -0.2953 -0.0316
  923YOPE   C4A10532   8.707  12.509   8.680 -0.0818  0.0021 -0.2263
  923YOPE   C1B10533   8.320  11.536   7.974 -0.0924 -0.0565  0.0866
  923YOPE   C2B10534   8.261  11.528   8.415  0.1912  0.0605  0.0699
  923YOPE   D3B10535   8.117  11.345   8.685 -0.0991  0.1313 -0.2624
  923YOPE   C4B10536   8.053  11.024   8.929  0.0248  0.3007 -0.0032
  924YOPE   NH310537   5.650   2.917   5.854  0.0800  0.1684  0.0427
  924YOPE   PO410538   6.013   2.642   5.840 -0.2981  0.1298 -0.0764
  924YOPE   GL110539   6.018   2.355   6.227 -0.2375 -0.0899 -0.0203
  924YOPE   GL210540   6.119   1.964   6.324  0.1683 -0.0990  0.1010
  924YOPE   C1A10541   6.144   2.585   6.612  0.1193 -0.0270 -0.3270
  924YOPE   D2A10542   6.120   2.695   6.995 -0.3636  0.0413  0.3265
  924YOPE   C3A10543   5.893   2.695   7.336  0.0639  0.2548 -0.2300
  924YOPE   C4A10544   5.989   2.600   7.674 -0.1487  0.0381 -0.1463
  924YOPE   C1B10545   6.208   1.734   6.602 -0.0729 -0.2194 -0.1027
  924YOPE   C2B10546   6.222   1.612   7.011 -0.0377 -0.1846 -0.0859
  924YOPE   D3B10547   6.231   1.526   7.404  0.2897  0.0878  0.1005
  924YOPE   C4B10548   6.359   1.476   7.745  0.1719 -0.0771  0.0813
  925YOPE   NH310549  17.248  12.157   6.283 -0.1153  0.0973 -0.0799
  925YOPE   PO410550  16.860  12.342   6.204 -0.3337  0.2523  0.2323
  925YOPE   GL110551  17.050  12.608   6.514 -0.0079  0.1386  0.2175
  925YOPE   GL210552  16.943  12.899   6.743  0.0715  0.0945  0.1895
  925YOPE   C1A10553  17.368  12.463   7.068  0.1031  0.0025 -0.0978
  925YOPE   D2A10554  17.316  12.384   7.487  0.0711  0.2699  0.1122
  925YOPE   C3A10555  17.426  12.209   7.946  0.0881 -0.2165  0.4086
  925YOPE   C4A10556  17.229  12.193   8.250 -0.2752  0.1981  0.1962
  925YOPE   C1B10557  17.089  12.856   7.170 -0.0741 -0.0479  0.0001
  925YOPE   C2B10558  17.195  12.830   7.702  0.2508 -0.1654  0.0689
  925YOPE   D3B10559  17.351  12.767   8.051 -0.0685  0.0239 -0.1046
  925YOPE   C4B10560  17.323  12.612   8.488 -0.0277 -0.3629  0.0756
  926YOPE   NH310561  15.385   5.703   6.289 -0.0882  0.0488  0.1113
  926YOPE   PO410562  15.771   5.573   6.476  0.2448  0.2925  0.1759
  926YOPE   GL110563  15.952   5.602   6.813 -0.0017 -0.0374 -0.0837
  926YOPE   GL210564  16.270   5.636   6.776  0.1177 -0.0810  0.3939
  926YOPE   C1A10565  15.969   5.701   7.252 -0.0507  0.1892 -0.0490
  926YOPE   D2A10566  16.194   5.734   7.660 -0.0322  0.0143 -0.1265
  926YOPE   C3A10567  15.970   5.582   8.154 -0.2214  0.0045 -0.0574
  926YOPE   C4A10568  15.854   5.359   8.596 -0.0459  0.1060  0.1291
  926YOPE   C1B10569  16.444   5.943   7.112 -0.0712  0.1614  0.0597
  926YOPE   C2B10570  16.317   6.156   7.424 -0.1013 -0.1664 -0.2227
  926YOPE   D3B10571  16.532   6.315   7.870  0.3793  0.2203 -0.0929
  926YOPE   C4B10572  16.633   6.315   8.323 -0.1514  0.2791 -0.0810
  927YOPE   NH310573  15.051   0.288   6.472  0.0469  0.2217  0.1220
  927YOPE   PO410574  15.403   0.143   6.232  0.0103  0.1003 -0.0880
  927YOPE   GL110575  15.657   0.147   6.601  0.2096 -0.2955  0.0812
  927YOPE   GL210576  15.621  -0.063   6.711 -0.2822  0.0112 -0.2586
  927YOPE   C1A10577  16.043   0.257   6.811 -0.0577  0.0367 -0.2493
  927YOPE   D2A10578  16.412   0.535   6.695  0.0148 -0.2371  0.2531
  927YOPE   C3A10579  16.818   0.761   6.938  0.0516 -0.0532 -0.0811
  927YOPE   C4A10580  17.058   1.033   7.309  0.1816 -0.3665  0.0738
  927YOPE   C1B10581  15.726   0.031   7.148 -0.0145 -0.1156 -0.0780
  927YOPE   C2B10582  16.014   0.244   7.413  0.2211  0.0046  0.0484
  927YOPE   D3B10583  16.052   0.269   7.855  0.0122  0.1370  0.1184
  927YOPE   C4B10584  16.110   0.340   8.248 -0.1917  0.5307  0.1457
  928YOPE   NH310585   9.084   2.609   5.908 -0.0334  0.1404  0.1298
  928YOPE   PO410586   8.666   2.606   5.886  0.1738  0.0376 -0.1010
  928YOPE   GL110587   8.630   2.560   6.368  0.1408  0.1172  0.0999
  928YOPE   GL210588   8.984   2.513   6.437  0.0399 -0.2698 -0.2869
  928YOPE   C1A10589   8.597   2.616   6.841 -0.1025  0.0314  0.0718
  928YOPE   D2A10590   8.708   2.422   7.151 -0.0002 -0.2822  0.2962
  928YOPE   C3A10591   8.651   2.452   7.629 -0.0678  0.0052 -0.0684
  928YOPE   C4A10592   8.596   2.877   7.800 -0.0728  0.0644 -0.1008
  928YOPE   C1B10593   9.098   2.447   6.844 -0.0039  0.3134  0.2057
  928YOPE   C2B10594   9.131   2.740   7.180  0.1622 -0.1417 -0.2493
  928YOPE   D3B10595   9.058   2.894   7.497 -0.0058 -0.0080  0.2797
  928YOPE   C4B10596   9.128   2.823   7.928 -0.0734  0.1688  0.1818
  929YOPE   NH310597   3.700   5.409   6.515  0.1058 -0.1933 -0.1991
  929YOPE   PO410598   3.714   4.961   6.456 -0.2659  0.0676  0.1415
  929YOPE   GL110599   3.631   5.030   6.956 -0.0078  0.0051 -0.2058
  929YOPE   GL210600   3.894   5.085   6.934  0.0237  0.1999 -0.2228
  929YOPE   C1A10601   3.663   4.709   7.294 -0.0318 -0.1867 -0.2424
  929YOPE   D2A10602   3.823   4.702   7.682  0.2318  0.2824 -0.0740
  929YOPE   C3A10603   3.784   4.306   7.818 -0.1300 -0.0911  0.1592
  929YOPE   C4A10604   4.012   3.902   7.992  0.1034 -0.0948  0.0636
  929YOPE   C1B10605   4.213   4.902   7.246 -0.0656 -0.0288 -0.0372
  929YOPE   C2B10606   4.304   4.755   7.691 -0.0971 -0.2199  0.0877
  929YOPE   D3B10607   4.089   4.797   8.078  0.2545  0.0394 -0.0312
  929YOPE   C4B10608   4.068   4.353   8.212  0.1476  0.0713 -0.0539
  930YOPE   NH310609   6.997  17.042   6.340 -0.1396 -0.1321  0.0275
  930YOPE   PO410610   6.960  17.510   6.174 -0.1610 -0.2087 -0.0026
  930YOPE   GL110611   6.913  17.682   6.576 -0.1447  0.0073 -0.1331
  930YOPE   GL210612   7.096  17.865   6.711  0.1277  0.0248 -0.2119
  930YOPE   C1A10613   6.803  17.582   7.039 -0.1152 -0.2089  0.2844
  930YOPE   D2A10614   6.705  17.597   7.418 -0.2588  0.2166 -0.1206
  930YOPE   C3A10615   6.842  17.540   7.724  0.1407 -0.0527  0.0304
  930YOPE   C4A10616   6.984  17.716   8.097 -0.0834 -0.1414 -0.0406
  930YOPE   C1B10617   7.172  18.142   7.023  0.0833 -0.0652  0.1724
  930YOPE   C2B10618   7.202  18.308   7.405  0.0276 -0.0534 -0.1621
  930YOPE   D3B10619   7.257  18.703   7.666 -0.2288  0.0742  0.0807
  930YOPE   C4B10620   6.977  18.781   8.033 -0.3655  0.4488 -0.5128
  931YOPE   NH310621   4.470   2.627   6.226 -0.0532 -0.0086 -0.0758
  931YOPE   PO410622   4.118   2.844   6.031 -0.0363 -0.1312  0.0179
  931YOPE   GL110623   3.951   2.548   6.373 -0.1684 -0.1738  0.2681
  931YOPE   GL210624   3.829   2.139   6.395 -0.2549  0.0035  0.0807
  931YOPE   C1A10625   3.941   2.400   6.783 -0.1770 -0.1024  0.2251
  931YOPE   D2A10626   3.831   2.376   7.141  0.1381 -0.0072  0.0973
  931YOPE   C3A10627   4.040   2.439   7.530 -0.1789  0.0828  0.3985
  931YOPE   C4A10628   4.045   2.664   7.897  0.1360 -0.0081 -0.1725
  931YOPE   C1B10629   3.720   1.924   6.741  0.2364  0.2213  0.0971
  931YOPE   C2B10630   3.731   1.919   7.203 -0.0475  0.2741 -0.1827
  931YOPE   D3B10631   3.815   1.784   7.614 -0.3134 -0.0760 -0.0876
  931YOPE   C4B10632   3.769   1.755   8.054 -0.0139  0.3224 -0.2956
  932YOPE   NH310633   4.246   0.108   5.823 -0.1304  0.1480 -0.0697
  932YOPE   PO410634   4.259  -0.270   5.948 -0.1617 -0.3439  0.0464
  932YOPE   GL110635   4.432  -0.494   6.375  0.0559 -0.0655  0.3301
  932YOPE   GL210636   4.734  -0.436   6.351 -0.0494 -0.0415 -0.0616
  932YOPE   C1A10637   4.332  -0.626   6.857  0.0575  0.2135  0.0418
  932YOPE   D2A10638   4.284  -0.425   7.278 -0.0581 -0.0258 -0.1341
  932YOPE   C3A10639   4.469  -0.334   7.699 -0.1120  0.3615 -0.1153
  932YOPE   C4A10640   4.693   0.044   7.848  0.1439 -0.1963  0.1968
  932YOPE   C1B10641   4.740  -0.406   6.824 -0.1568  0.0390 -0.0264
  932YOPE   C2B10642   4.720  -0.714   7.185  0.0755 -0.3826  0.1650
  932YOPE   D3B10643   4.883  -0.886   7.606 -0.3596 -0.2124 -0.1555
  932YOPE   C4B10644   4.712  -1.153   7.942  0.2343 -0.2650  0.0751
  933YOPE   NH310645  11.682  17.185   6.459 -0.2197 -0.3559 -0.0744
  933YOPE   PO410646  11.408  17.339   6.720 -0.1081 -0.3066 -0.2624
  933YOPE   GL110647  11.400  17.520   7.057 -0.3712  0.2065 -0.1080
  933YOPE   GL210648  11.086  17.507   7.186 -0.3093 -0.3080 -0.0299
  933YOPE   C1A10649  11.537  17.594   7.520  0.1524  0.3131 -0.1972
  933YOPE   D2A10650  11.570  17.523   7.909 -0.0224  0.2155  0.2126
  933YOPE   C3A10651  11.439  17.685   8.330  0.0729 -0.1408 -0.3574
  933YOPE   C4A10652  11.401  17.832   8.729  0.0555  0.0707 -0.1813
  933YOPE   C1B10653  11.064  17.562   7.580 -0.0371 -0.1388 -0.0035
  933YOPE   C2B10654  11.186  17.878   7.946  0.0536  0.0376  0.1237
  933YOPE   D3B10655  11.059  18.105   8.338  0.1190 -0.1934  0.0530
  933YOPE   C4B10656  10.803  18.394   8.555  0.3169 -0.0997 -0.0445
  934YOPE   NH310657   3.687  17.263   5.756 -0.2453 -0.1680 -0.0355
  934YOPE   PO410658   3.205  17.131   5.682  0.4266  0.2312  0.2404
  934YOPE   GL110659   3.235  17.328   6.023  0.3525 -0.0886  0.1111
  934YOPE   GL210660   3.041  17.114   6.252  0.2048 -0.1319 -0.4281
  934YOPE   C1A10661   3.279  17.597   6.243 -0.1151  0.1203  0.0448
  934YOPE   D2A10662   3.275  17.548   6.650  0.2834  0.0315  0.2564
  934YOPE   C3A10663   3.168  17.637   7.080  0.0947 -0.3134 -0.0587
  934YOPE   C4A10664   2.938  17.628   7.506  0.2796 -0.2287 -0.0254
  934YOPE   C1B10665   3.139  16.985   6.679  0.0916 -0.1756  0.1012
  934YOPE   C2B10666   3.050  17.033   7.123 -0.4646 -0.0281 -0.1627
  934YOPE   D3B10667   3.026  17.115   7.611 -0.0193 -0.1471  0.2319
  934YOPE   C4B10668   2.819  17.199   8.030 -0.0911 -0.0910 -0.1140
  935YOPE   NH310669   6.396  15.292   6.223 -0.0786 -0.1845  0.1302
  935YOPE   PO410670   6.622  15.663   6.256  0.0428  0.0035  0.0872
  935YOPE   GL110671   6.605  15.799   6.689  0.0280  0.3368  0.0151
  935YOPE   GL210672   6.560  15.512   6.711  0.1204  0.0976  0.0724
  935YOPE   C1A10673   6.439  15.888   7.097 -0.3319 -0.0775  0.0653
  935YOPE   D2A10674   6.337  15.980   7.561 -0.0120  0.1211 -0.0236
  935YOPE   C3A10675   6.212  16.232   7.885 -0.3038 -0.0849 -0.1836
  935YOPE   C4A10676   6.044  16.399   8.199  0.2219  0.0711 -0.3300
  935YOPE   C1B10677   6.460  15.348   7.126  0.0408 -0.0225 -0.0018
  935YOPE   C2B10678   6.351  15.389   7.574  0.1539 -0.0192  0.0003
  935YOPE   D3B10679   6.199  15.669   7.917 -0.0328  0.1097  0.0985
  935YOPE   C4B10680   6.084  15.897   8.317  0.1293 -0.1007 -0.1258
  936YOPE   NH310681   5.762  17.624   5.589 -0.0421 -0.2194 -0.0338
  936YOPE   PO410682   5.974  17.273   5.887  0.0557  0.4221 -0.4564
  936YOPE   GL110683   6.048  17.326   6.311  0.2647 -0.2322 -0.2600
  936YOPE   GL210684   6.202  17.083   6.395  0.0482  0.4524  0.0914
  936YOPE   C1A10685   5.835  17.530   6.762 -0.1952  0.0602 -0.0132
  936YOPE   D2A10686   5.652  17.762   7.048 -0.0252 -0.0981  0.0936
  936YOPE   C3A10687   5.713  17.755   7.427 -0.4040  0.1710 -0.1854
  936YOPE   C4A10688   5.909  17.830   7.780 -0.1537 -0.0295  0.3615
  936YOPE   C1B10689   6.029  17.141   6.877  0.2079 -0.0602  0.0229
  936YOPE   C2B10690   5.983  17.313   7.228  0.0242 -0.1585  0.1821
  936YOPE   D3B10691   5.960  17.246   7.485 -0.0703  0.1075  0.0135
  936YOPE   C4B10692   5.767  17.110   7.736  0.0673  0.3532 -0.2153
  937YOPE   NH310693   3.516   1.737   5.599 -0.1521  0.0214 -0.2144
  937YOPE   PO410694   3.546   2.047   5.980  0.1362 -0.4253  0.0653
  937YOPE   GL110695   3.345   1.874   6.381  0.1091 -0.0485 -0.2337
  937YOPE   GL210696   3.101   1.690   6.375  0.0140 -0.2564 -0.0549
  937YOPE   C1A10697   3.221   1.875   6.816 -0.1215  0.1877 -0.1365
  937YOPE   D2A10698   3.249   1.767   7.096  0.1742 -0.0557 -0.2261
  937YOPE   C3A10699   3.292   1.853   7.472 -0.2079 -0.2961 -0.2008
  937YOPE   C4A10700   3.251   1.927   7.883  0.2093 -0.0207  0.2291
  937YOPE   C1B10701   2.940   1.416   6.651  0.1051  0.3115 -0.1331
  937YOPE   C2B10702   2.981   1.387   7.057  0.2119  0.5004 -0.1369
  937YOPE   D3B10703   2.953   1.476   7.399  0.0978 -0.0262 -0.0604
  937YOPE   C4B10704   3.085   1.444   7.807 -0.1479  0.0325 -0.2564
  938YOPE   NH310705  12.058  17.498   6.448 -0.0628  0.1006  0.1828
  938YOPE   PO410706  12.154  17.185   6.254  0.3555  0.3754 -0.1613
  938YOPE   GL110707  12.136  17.023   6.672  0.1725 -0.0501 -0.1082
  938YOPE   GL210708  11.869  17.186   6.898 -0.2293 -0.1765 -0.0287
  938YOPE   C1A10709  12.107  16.808   6.966 -0.1549  0.0965  0.0467
  938YOPE   D2A10710  12.173  16.808   7.360 -0.0012 -0.0324  0.0554
  938YOPE   C3A10711  12.227  16.751   7.802 -0.0327 -0.2696  0.0945
  938YOPE   C4A10712  12.064  16.850   8.256 -0.1030  0.1132  0.0574
  938YOPE   C1B10713  11.861  17.195   7.300 -0.0935 -0.1891  0.0922
  938YOPE   C2B10714  11.979  17.154   7.807 -0.0505 -0.1595  0.0285
  938YOPE   D3B10715  11.992  17.379   8.187  0.1890  0.2467 -0.1070
  938YOPE   C4B10716  11.824  17.452   8.563 -0.1625  0.1523  0.0726
  939POPC   NC310717  17.579  10.919   6.071 -0.3429 -0.2789 -0.1519
  939POPC   PO410718  18.058  11.010   6.175  0.0067 -0.0066  0.0699
  939POPC   GL110719  18.276  10.715   6.434  0.2424  0.0054 -0.0394
  939POPC   GL210720  18.616  10.744   6.599 -0.0058  0.1314  0.1139
  939POPC   C1A10721  18.182  10.790   6.865 -0.1627  0.0644  0.0395
  939POPC   D2A10722  17.978  10.709   7.274 -0.1148 -0.2045  0.3115
  939POPC   C3A10723  17.952  11.075   7.657 -0.0341 -0.0543  0.0940
  939POPC   C4A10724  17.701  11.299   8.013  0.2717 -0.0811  0.3348
  939POPC   C1B10725  18.635  10.819   7.089 -0.1142 -0.2656 -0.2042
  939POPC   C2B10726  18.495  10.907   7.479 -0.1064  0.0408 -0.0483
  939POPC   C3B10727  18.642  10.785   7.840 -0.2128 -0.0691  0.1824
  939POPC   C4B10728  18.764  11.091   8.136 -0.0383 -0.0777 -0.0697
  940POPC   NC310729  14.068   5.336   5.429  0.1863 -0.1143  0.0778
  940POPC   PO410730  14.162   5.646   5.719 -0.0198 -0.1437 -0.0721
  940POPC   GL110731  14.075   5.452   6.213  0.0222 -0.1179 -0.0999
  940POPC   GL210732  14.239   5.478   6.434  0.1663  0.0561 -0.2806
  940POPC   C1A10733  13.849   5.751   6.492 -0.1685  0.0360  0.0942
  940POPC   D2A10734  13.521   5.705   6.924 -0.1831  0.1651  0.0672
  940POPC   C3A10735  13.490   5.668   7.255  0.0325 -0.2838  0.1334
  940POPC   C4A10736  13.272   5.360   7.571  0.1826 -0.2457  0.0997
  940POPC   C1B10737  14.450   5.543   6.821  0.0251  0.0959 -0.0319
  940POPC   C2B10738  14.654   5.267   7.078 -0.1311 -0.1828  0.2154
  940POPC   C3B10739  14.717   5.239   7.510  0.0318  0.0705 -0.2534
  940POPC   C4B10740  14.536   5.481   7.820 -0.2072  0.2455  0.0345
  941POPC   NC310741   0.656  12.403   5.808  0.0935 -0.0437  0.1255
  941POPC   PO410742   0.472  12.717   6.115 -0.1983  0.1245  0.0380
  941POPC   GL110743   0.299  12.899   6.543 -0.0094 -0.1794 -0.0010
  941POPC   GL210744  -0.022  12.825   6.724 -0.0975  0.1852  0.3406
  941POPC   C1A10745   0.332  13.077   6.956  0.0836 -0.1189 -0.1370
  941POPC   D2A10746   0.413  13.082   7.433  0.0232  0.0826  0.0332
  941POPC   C3A10747   0.688  12.984   7.907  0.0276  0.1661  0.3113
  941POPC   C4A10748   0.467  12.792   8.238 -0.1138 -0.4172  0.0459
  941POPC   C1B10749  -0.127  12.611   7.021  0.1468  0.0256 -0.1952
  941POPC   C2B10750   0.084  12.735   7.359  0.0113  0.4214  0.1911
  941POPC   C3B10751   0.194  12.851   7.810  0.0738  0.1272 -0.0846
  941POPC   C4B10752  -0.073  12.904   8.130 -0.0646  0.0772 -0.3048
  942POPC   NC310753  12.829   7.301   6.704 -0.0770 -0.1340 -0.3426
  942POPC   PO410754  13.102   7.717   6.574 -0.0925  0.0261  0.1947
  942POPC   GL110755  13.319   7.650   6.935 -0.2449 -0.0849  0.0530
  942POPC   GL210756  13.038   7.457   7.156 -0.1400  0.2023  0.1881
  942POPC   C1A10757  13.458   7.643   7.359  0.0743 -0.0136  0.1489
  942POPC   D2A10758  13.578   7.685   7.719  0.2751  0.1263  0.0324
  942POPC   C3A10759  13.595   7.691   8.046  0.0681  0.0802  0.1115
  942POPC   C4A10760  13.517   7.488   8.336  0.2493 -0.3535  0.1042
  942POPC   C1B10761  13.071   7.270   7.505 -0.0823  0.0179 -0.0969
  942POPC   C2B10762  13.224   7.273   7.928 -0.1790 -0.2974  0.1239
  942POPC   C3B10763  13.403   7.033   8.149  0.2178 -0.0022 -0.1635
  942POPC   C4B10764  13.716   6.723   8.205 -0.1365  0.0288 -0.1308
  943POPC   NC310765  12.442   1.370   5.899  0.0060 -0.0649  0.2910
  943POPC   PO410766  12.112   1.514   6.159  0.0480  0.1603 -0.0128
  943POPC   GL110767  12.159   1.624   6.575  0.2325  0.0626  0.1359
  943POPC   GL210768  12.030   1.440   6.789 -0.1934  0.3538 -0.1364
  943POPC   C1A10769  12.452   1.733   6.849 -0.0142  0.0556  0.3293
  943POPC   D2A10770  12.865   1.668   6.888 -0.1000 -0.1223 -0.3847
  943POPC   C3A10771  13.048   2.058   7.052  0.0734  0.2564  0.2559
  943POPC   C4A10772  12.867   2.287   7.440 -0.4353 -0.0882 -0.1034
  943POPC   C1B10773  12.169   1.169   7.093 -0.0073 -0.1678  0.1239
  943POPC   C2B10774  12.153   1.178   7.534 -0.2179  0.0181  0.1217
  943POPC   C3B10775  11.926   1.268   7.988 -0.0128 -0.0205  0.0823
  943POPC   C4B10776  11.617   1.388   8.263  0.0664 -0.3669  0.1859
  944POPC   NC310777   1.504   3.704   5.543  0.0860 -0.2430  0.0235
  944POPC   PO410778   1.810   3.313   5.733  0.0499 -0.0408  0.1441
  944POPC   GL110779   1.939   3.091   6.063  0.0831 -0.1893 -0.1297
  944POPC   GL210780   1.859   3.228   6.277 -0.0061  0.1491 -0.2911
  944POPC   C1A10781   1.945   2.705   6.473 -0.0024 -0.2130 -0.0621
  944POPC   D2A10782   1.620   2.799   6.807  0.0179 -0.2252 -0.2503
  944POPC   C3A10783   1.746   2.799   7.256 -0.4722  0.0809  0.1165
  944POPC   C4A10784   1.949   2.825   7.654  0.0355  0.2769  0.0772
  944POPC   C1B10785   1.820   3.230   6.658  0.0449 -0.3268 -0.0001
  944POPC   C2B10786   1.839   3.276   7.116 -0.0484 -0.1947  0.0534
  944POPC   C3B10787   1.977   3.274   7.544  0.2027  0.2394 -0.2194
  944POPC   C4B10788   2.088   3.220   8.010 -0.1699 -0.0521 -0.2018
  945POPC   NC310789  16.956  14.699   6.261  0.1769 -0.1131  0.1726
  945POPC   PO410790  17.126  15.061   6.108  0.2212  0.0558 -0.0795
  945POPC   GL110791  17.479  15.278   6.306  0.4047  0.0245  0.1156
  945POPC   GL210792  17.267  15.462   6.560  0.2978  0.1140 -0.0977
  945POPC   C1A10793  17.873  15.398   6.611  0.0415  0.0873 -0.2134
  945POPC   D2A10794  17.888  15.268   7.026  0.0679 -0.0583  0.0490
  945POPC   C3A10795  17.902  15.173   7.378 -0.1253  0.1679  0.3552
  945POPC   C4A10796  17.757  15.210   7.723 -0.0500  0.1600  0.0918
  945POPC   C1B10797  17.383  15.425   6.966 -0.0228  0.1481 -0.0666
  945POPC   C2B10798  17.528  15.462   7.376  0.0415  0.0380 -0.0811
  945POPC   C3B10799  17.399  15.603   7.766  0.2675 -0.1094 -0.0106
  945POPC   C4B10800  17.417  15.481   8.269  0.4018  0.4336 -0.0103
  946POPC   NC310801  15.426   2.419   5.793  0.2550 -0.0158  0.2382
  946POPC   PO410802  15.499   2.824   5.837  0.0694  0.0870 -0.0757
  946POPC   GL110803  15.570   2.651   6.259 -0.0089  0.2221  0.3663
  946POPC   GL210804  15.765   2.533   6.492  0.6316  0.1278 -0.1940
  946POPC   C1A10805  15.192   2.681   6.648  0.0016 -0.1104 -0.3481
  946POPC   D2A10806  14.847   2.487   6.511  0.3403  0.1507  0.1880
  946POPC   C3A10807  14.577   2.578   6.847  0.1197  0.1892  0.1755
  946POPC   C4A10808  14.355   2.748   7.082 -0.1498  0.1546  0.3168
  946POPC   C1B10809  16.155   2.530   6.752 -0.1226  0.1262  0.1264
  946POPC   C2B10810  16.232   2.353   7.063 -0.2415  0.2793  0.1695
  946POPC   C3B10811  16.247   2.257   7.499  0.1238 -0.0420 -0.1589
  946POPC   C4B10812  16.160   2.275   7.931  0.0241 -0.1559  0.0174
  947POPC   NC310813   7.737  13.460   6.139 -0.0501  0.1348 -0.1307
  947POPC   PO410814   7.398  13.411   6.446 -0.2210 -0.1665  0.3171
  947POPC   GL110815   7.436  13.483   6.941  0.0457  0.0556  0.2041
  947POPC   GL210816   7.285  13.216   7.107 -0.2272 -0.0132 -0.1539
  947POPC   C1A10817   7.158  13.587   7.366  0.1205 -0.1494  0.0828
  947POPC   D2A10818   7.093  13.820   7.624  0.3940 -0.0155 -0.0730
  947POPC   C3A10819   7.049  13.694   8.025  0.1711  0.1292  0.0031
  947POPC   C4A10820   7.089  13.849   8.466  0.0116 -0.2093 -0.2080
  947POPC   C1B10821   7.039  13.111   7.462  0.0259  0.0577  0.0667
  947POPC   C2B10822   7.109  13.202   7.768  0.0621  0.1177  0.0658
  947POPC   C3B10823   6.940  13.218   8.173 -0.0418 -0.0294 -0.1790
  947POPC   C4B10824   6.643  13.194   8.507 -0.4025 -0.0617 -0.3355
  948POPC   NC310825  16.836   2.823   6.004 -0.0946  0.0186  0.0688
  948POPC   PO410826  16.406   2.945   6.108  0.4032  0.2819 -0.2182
  948POPC   GL110827  16.191   2.924   6.456  0.2231 -0.0345 -0.2911
  948POPC   GL210828  15.843   3.029   6.546  0.0553 -0.1369  0.1871
  948POPC   C1A10829  16.163   3.040   6.910  0.0752 -0.0961 -0.0801
  948POPC   D2A10830  15.824   3.174   7.139 -0.0902 -0.0644 -0.2463
  948POPC   C3A10831  15.871   3.212   7.605 -0.0017  0.1400 -0.2117
  948POPC   C4A10832  15.838   3.041   8.021 -0.0370 -0.2216 -0.2278
  948POPC   C1B10833  15.764   2.742   6.922 -0.0350  0.0459  0.3505
  948POPC   C2B10834  16.066   2.740   7.284  0.4234 -0.1941 -0.2189
  948POPC   C3B10835  16.039   2.689   7.706 -0.0061 -0.2761 -0.0591
  948POPC   C4B10836  16.291   2.782   8.095  0.2046 -0.0630 -0.0088
  949POPC   NC310837   5.161   7.560   6.757  0.1365 -0.0400  0.0583
  949POPC   PO410838   5.340   7.895   6.871 -0.0100  0.2513 -0.1112
  949POPC   GL110839   5.479   7.651   7.136 -0.1170 -0.0334  0.1669
  949POPC   GL210840   5.261   7.580   7.470 -0.1534 -0.2252 -0.0627
  949POPC   C1A10841   5.586   7.227   7.184  0.5728  0.0120 -0.1501
  949POPC   D2A10842   5.742   6.998   7.590 -0.0899 -0.0020 -0.0910
  949POPC   C3A10843   5.608   6.649   7.788 -0.1172  0.1725  0.1025
  949POPC   C4A10844   5.161   6.506   8.043  0.0253  0.2170  0.1703
  949POPC   C1B10845   5.764   7.673   7.649 -0.0936  0.3050  0.2450
  949POPC   C2B10846   5.940   7.373   7.932 -0.1694  0.3281 -0.1041
  949POPC   C3B10847   5.840   6.999   8.153 -0.1405 -0.1363  0.0238
  949POPC   C4B10848   5.635   6.556   8.261  0.2139  0.2494 -0.0944
  950POPC   NC310849   4.005   5.869   6.377 -0.1030  0.0242 -0.3014
  950POPC   PO410850   3.516   5.934   6.594  0.1402  0.0559 -0.0197
  950POPC   GL110851   3.888   5.741   6.856  0.1341 -0.1317 -0.2063
  950POPC   GL210852   4.160   5.964   6.846  0.0480  0.1383  0.0296
  950POPC   C1A10853   4.041   5.491   7.144  0.1582  0.1225  0.1613
  950POPC   D2A10854   4.262   5.323   7.537  0.0136  0.0853 -0.2554
  950POPC   C3A10855   4.300   5.293   7.935 -0.1867 -0.1877  0.2664
  950POPC   C4A10856   4.457   5.250   8.293 -0.1284  0.0655  0.1109
  950POPC   C1B10857   4.327   5.835   7.201 -0.0530 -0.1806  0.2136
  950POPC   C2B10858   4.249   5.817   7.634 -0.0656 -0.1984 -0.0222
  950POPC   C3B10859   4.365   5.876   7.994 -0.1342  0.0311 -0.2009
  950POPC   C4B10860   4.562   6.222   8.201  0.2277 -0.0960 -0.0534
  951POPC   NC310861  12.789  11.000   6.700 -0.0936 -0.1832  0.3722
  951POPC   PO410862  12.333  11.033   6.796  0.1891  0.1142 -0.0659
  951POPC   GL110863  12.131  10.880   7.147  0.3897 -0.0597 -0.1753
  951POPC   GL210864  12.138  11.195   7.234 -0.2133 -0.1548 -0.3893
  951POPC   C1A10865  11.990  10.892   7.608 -0.0171  0.1127  0.1410
  951POPC   D2A10866  11.982  10.880   8.090 -0.0437  0.1004 -0.0643
  951POPC   C3A10867  11.663  11.100   8.469 -0.3038  0.2099  0.4045
  951POPC   C4A10868  11.371  11.191   8.760 -0.0968 -0.1041  0.1197
  951POPC   C1B10869  12.479  11.209   7.589 -0.0840 -0.1208  0.1882
  951POPC   C2B10870  12.485  11.310   7.982  0.0793 -0.1439  0.0765
  951POPC   C3B10871  12.348  11.209   8.361 -0.0665  0.1989  0.3895
  951POPC   C4B10872  12.168  11.057   8.686 -0.0401 -0.2490 -0.3736
  952POPC   NC310873   0.306   1.042   5.692  0.3189 -0.3516  0.1974
  952POPC   PO410874   0.346   1.399   5.800  0.0932  0.0017  0.2931
  952POPC   GL110875   0.278   1.559   6.220  0.2267  0.1308  0.1948
  952POPC   GL210876   0.385   1.858   6.212 -0.0358  0.1113 -0.2154
  952POPC   C1A10877   0.067   1.422   6.628  0.4253 -0.0110  0.3451
  952POPC   D2A10878  -0.158   1.386   6.958  0.3383 -0.0621 -0.2399
  952POPC   C3A10879  -0.205   1.435   7.418 -0.1151  0.2938  0.1597
  952POPC   C4A10880  -0.006   1.579   7.932 -0.0118 -0.1584 -0.0150
  952POPC   C1B10881   0.295   2.036   6.505 -0.1666  0.0741 -0.0703
  952POPC   C2B10882   0.497   2.441   6.631 -0.3106 -0.0513  0.0924
  952POPC   C3B10883   0.699   2.869   6.799 -0.1563 -0.1091  0.4987
  952POPC   C4B10884   0.815   3.020   7.122  0.1843 -0.2465 -0.0139
  953POPC   NC310885   9.482   5.886   5.676  0.0417  0.0908 -0.2670
  953POPC   PO410886   9.352   5.517   5.909 -0.1247 -0.4568 -0.1799
  953POPC   GL110887   9.332   5.481   6.305 -0.0522 -0.0303  0.1815
  953POPC   GL210888   9.030   5.356   6.477 -0.1383 -0.2072 -0.2583
  953POPC   C1A10889   9.440   5.533   6.716  0.2781  0.0074 -0.0762
  953POPC   D2A10890   9.281   5.682   7.094  0.0823  0.1821 -0.2095
  953POPC   C3A10891   9.335   5.600   7.632  0.2281 -0.2350  0.1804
  953POPC   C4A10892   9.176   5.806   7.979 -0.0616  0.2217  0.0697
  953POPC   C1B10893   8.940   5.357   6.959  0.3530 -0.2644  0.3006
  953POPC   C2B10894   8.897   5.337   7.382 -0.2084  0.0208  0.0984
  953POPC   C3B10895   8.857   5.466   7.766 -0.0333  0.0685  0.2772
  953POPC   C4B10896   8.491   5.363   8.029  0.0303 -0.2826 -0.2450
  954POPC   NC310897  16.494  16.697   5.903  0.0638 -0.0498  0.0543
  954POPC   PO410898  16.917  16.490   5.963  0.0181  0.2533 -0.2126
  954POPC   GL110899  16.883  16.332   6.364  0.0647  0.0093  0.1859
  954POPC   GL210900  17.012  15.949   6.390 -0.2342  0.1514 -0.0900
  954POPC   C1A10901  16.892  16.556   6.758 -0.1645 -0.2437 -0.0311
  954POPC   D2A10902  17.034  16.717   7.153  0.1224  0.0983 -0.0398
  954POPC   C3A10903  17.274  16.901   7.522  0.0020 -0.0451 -0.2000
  954POPC   C4A10904  17.502  16.941   7.927  0.2781 -0.0044  0.2152
  954POPC   C1B10905  17.243  15.957   6.770 -0.2098 -0.2360  0.0058
  954POPC   C2B10906  17.461  15.999   7.193 -0.1257  0.1124  0.1404
  954POPC   C3B10907  17.314  16.049   7.569  0.2951  0.1400  0.1327
  954POPC   C4B10908  17.152  16.141   8.015  0.0387 -0.1322  0.0812
  955POPC   NC310909  10.826  14.291   6.159 -0.2691  0.1840  0.1484
  955POPC   PO410910  10.837  14.181   6.564  0.1201  0.1792 -0.0126
  955POPC   GL110911  10.832  13.943   7.106 -0.0663 -0.2107 -0.0668
  955POPC   GL210912  10.903  13.603   7.141 -0.0745 -0.2622  0.0337
  955POPC   C1A10913  10.769  14.063   7.485  0.2801  0.1055 -0.0257
  955POPC   D2A10914  10.813  14.019   7.877 -0.0607  0.0275 -0.1876
  955POPC   C3A10915  10.628  13.881   8.279 -0.0107  0.4318  0.1081
  955POPC   C4A10916  10.457  13.841   8.640 -0.0209  0.4006  0.1178
  955POPC   C1B10917  10.925  13.586   7.565 -0.3474  0.2598  0.0001
  955POPC   C2B10918  10.792  13.436   8.009  0.1926 -0.4577  0.0229
  955POPC   C3B10919  10.514  13.306   8.354  0.1801 -0.0127  0.1285
  955POPC   C4B10920  10.209  13.233   8.588  0.0730 -0.0098  0.3121
  956POPC   NC310921   8.719  16.333   6.636  0.0428  0.1524 -0.0697
  956POPC   PO410922   8.852  16.780   6.586 -0.3028 -0.3150  0.3115
  956POPC   GL110923   8.989  17.059   6.919  0.2480  0.0778 -0.1469
  956POPC   GL210924   8.766  17.090   7.051 -0.0020  0.1669 -0.1660
  956POPC   C1A10925   9.219  17.389   7.228  0.0534 -0.3086 -0.1052
  956POPC   D2A10926   9.195  17.298   7.653  0.1023  0.0999 -0.2922
  956POPC   C3A10927   9.290  17.156   8.019 -0.0872 -0.0912  0.1111
  956POPC   C4A10928   9.311  17.204   8.480  0.0453 -0.0710 -0.2753
  956POPC   C1B10929   8.975  16.946   7.387 -0.0363 -0.1709 -0.1734
  956POPC   C2B10930   8.993  16.804   7.820 -0.0617 -0.1614 -0.2968
  956POPC   C3B10931   9.256  16.662   8.214  0.0057 -0.0882  0.4774
  956POPC   C4B10932   9.292  16.692   8.597 -0.1480  0.0896 -0.1615
  957POPC   NC310933   9.254   4.060   5.697 -0.3245  0.2033  0.1583
  957POPC   PO410934   9.229   3.995   6.039  0.4100  0.2091  0.0650
  957POPC   GL110935   9.372   4.032   6.384  0.2052 -0.0998 -0.0482
  957POPC   GL210936   9.531   4.381   6.369  0.0963  0.3362  0.1337
  957POPC   C1A10937   9.173   3.975   6.842 -0.1247 -0.4749 -0.0560
  957POPC   D2A10938   8.978   3.750   7.138  0.3026 -0.0556 -0.0581
  957POPC   C3A10939   8.767   3.811   7.545 -0.0192  0.1148 -0.0426
  957POPC   C4A10940   8.354   4.033   7.556  0.0345 -0.1493 -0.1305
  957POPC   C1B10941   9.512   4.370   6.787  0.1933 -0.0218 -0.0316
  957POPC   C2B10942   9.630   4.288   7.150  0.0873  0.2023 -0.2955
  957POPC   C3B10943   9.786   4.181   7.495  0.0593 -0.2698  0.1520
  957POPC   C4B10944  10.047   3.965   7.571  0.1318 -0.0378 -0.1233
  958POPC   NC310945  15.872  14.564   6.331 -0.1104  0.1273 -0.1240
  958POPC   PO410946  15.712  14.208   6.485  0.1740 -0.1240 -0.1190
  958POPC   GL110947  15.730  14.401   6.919 -0.0957 -0.0012  0.0702
  958POPC   GL210948  15.533  14.339   7.154  0.2814 -0.1963 -0.1103
  958POPC   C1A10949  16.148  14.329   7.252 -0.0401 -0.2050 -0.3500
  958POPC   D2A10950  16.222  14.331   7.683 -0.0169  0.2089  0.2563
  958POPC   C3A10951  16.667  14.485   7.930 -0.0770  0.0352  0.3678
  958POPC   C4A10952  17.066  14.633   7.857  0.1885 -0.0118 -0.1731
  958POPC   C1B10953  15.558  14.388   7.535 -0.0590  0.0988  0.1607
  958POPC   C2B10954  15.802  14.394   7.998 -0.1112  0.2029  0.3519
  958POPC   C3B10955  15.732  14.356   8.463  0.1021 -0.2938 -0.0442
  958POPC   C4B10956  15.730  14.310   8.869  0.1529 -0.0007  0.0501
  959POPC   NC310957   4.051   3.303   6.134 -0.2604 -0.0298 -0.1342
  959POPC   PO410958   3.623   3.545   6.128  0.2241  0.2053 -0.1094
  959POPC   GL110959   3.567   3.322   6.438  0.0999 -0.0432  0.3549
  959POPC   GL210960   3.712   2.941   6.360 -0.1985 -0.0834  0.1382
  959POPC   C1A10961   3.371   3.307   6.873 -0.1630 -0.0523 -0.1784
  959POPC   D2A10962   3.068   3.297   7.174 -0.1921  0.2694 -0.0317
  959POPC   C3A10963   2.843   3.523   7.528 -0.4494 -0.0293  0.1062
  959POPC   C4A10964   2.521   3.538   7.781  0.0527  0.2106 -0.0739
  959POPC   C1B10965   3.680   2.812   6.737 -0.0828  0.0652  0.0573
  959POPC   C2B10966   3.851   2.915   7.182  0.0007 -0.1479  0.2824
  959POPC   C3B10967   3.964   3.114   7.652  0.1603  0.1247  0.1033
  959POPC   C4B10968   3.600   2.980   7.976 -0.1422  0.1080 -0.2280
  960POPC   NC310969   1.600  16.935   5.192 -0.1018  0.0751 -0.2014
  960POPC   PO410970   1.458  17.065   5.669  0.0030 -0.0220 -0.1374
  960POPC   GL110971   1.256  17.196   6.040  0.2241  0.0817 -0.3478
  960POPC   GL210972   1.365  17.462   6.089 -0.0761 -0.1175 -0.3330
  960POPC   C1A10973   1.148  17.174   6.511 -0.1149  0.0718 -0.1329
  960POPC   D2A10974   1.190  17.346   6.912  0.0621  0.0397  0.1915
  960POPC   C3A10975   1.171  17.175   7.259  0.1023  0.0851  0.2928
  960POPC   C4A10976   1.116  16.891   7.584  0.0302 -0.0759  0.1741
  960POPC   C1B10977   1.342  17.778   6.407 -0.1092  0.0207 -0.0036
  960POPC   C2B10978   1.442  17.775   6.776  0.1948  0.0352  0.3285
  960POPC   C3B10979   1.461  17.608   7.265  0.0250 -0.1691 -0.0639
  960POPC   C4B10980   1.213  17.502   7.644 -0.1860  0.2474  0.2152
  961POPC   NC310981  13.761   9.320   6.882  0.3237 -0.0806 -0.0774
  961POPC   PO410982  13.394   9.145   6.681  0.0104  0.0381  0.1926
  961POPC   GL110983  13.340   9.014   7.100 -0.2747 -0.1862 -0.0569
  961POPC   GL210984  13.575   9.187   7.317 -0.1245  0.3443 -0.1204
  961POPC   C1A10985  13.375   8.833   7.574  0.3356  0.1375 -0.1499
  961POPC   D2A10986  13.089   8.716   7.951  0.0527 -0.0596  0.2060
  961POPC   C3A10987  13.110   8.603   8.333 -0.0089  0.0193 -0.1767
  961POPC   C4A10988  13.212   8.379   8.632  0.0103  0.0807  0.0028
  961POPC   C1B10989  13.543   9.293   7.762  0.0887  0.1127  0.0372
  961POPC   C2B10990  13.472   9.075   8.153 -0.1320 -0.2092  0.1484
  961POPC   C3B10991  13.431   8.981   8.601 -0.0294 -0.0124 -0.0118
  961POPC   C4B10992  13.597   8.693   8.888 -0.1314  0.0106 -0.1946
  962POPC   NC310993   8.329   2.269   5.631 -0.0950 -0.3327  0.0954
  962POPC   PO410994   8.448   2.173   6.023 -0.1762 -0.0680  0.0396
  962POPC   GL110995   8.191   2.077   6.312 -0.0650  0.1366  0.3073
  962POPC   GL210996   8.306   1.713   6.476 -0.0386  0.3710 -0.0466
  962POPC   C1A10997   8.131   2.335   6.634  0.1443  0.1380 -0.0057
  962POPC   D2A10998   8.178   2.418   7.116 -0.3000 -0.0911  0.0138
  962POPC   C3A10999   8.225   2.258   7.493 -0.2830  0.2145 -0.2374
  962POPC   C4A11000   8.127   2.529   7.841 -0.2166 -0.0682 -0.3856
  962POPC   C1B11001   8.585   1.373   6.741  0.0567 -0.4291  0.1967
  962POPC   C2B11002   8.697   1.383   7.151  0.2496 -0.0044  0.0285
  962POPC   C3B11003   8.844   1.438   7.508 -0.1600 -0.0401  0.2033
  962POPC   C4B11004   9.073   1.602   7.857  0.0174  0.0634 -0.1578
  963POPC   NC311005   8.475   6.772   6.329  0.3586 -0.1776 -0.0443
  963POPC   PO411006   8.934   6.934   6.282 -0.3090  0.3313 -0.2646
  963POPC   GL111007   8.837   6.831   6.741 -0.0329 -0.2305 -0.1092
  963POPC   GL211008   9.165   7.034   6.840 -0.0939  0.3982  0.1345
  963POPC   C1A11009   8.981   6.681   7.199 -0.3611 -0.1429  0.0108
  963POPC   D2A11010   8.936   6.741   7.667  0.2537 -0.0001 -0.0056
  963POPC   C3A11011   8.600   6.622   7.906  0.0824  0.1538  0.2172
  963POPC   C4A11012   8.640   6.330   8.114 -0.3311  0.0569  0.0012
  963POPC   C1B11013   9.199   7.162   7.253  0.1612 -0.0657 -0.2366
  963POPC   C2B11014   9.211   7.208   7.707  0.1559 -0.4696 -0.1699
  963POPC   C3B11015   9.160   6.974   8.064 -0.0004  0.0476  0.0096
  963POPC   C4B11016   8.984   6.663   8.255 -0.0709  0.2969 -0.2312
  964POPC   NC311017   2.292   3.437   6.070  0.1331  0.3075  0.1820
  964POPC   PO411018   2.689   3.619   6.009  0.0247  0.0475 -0.2335
  964POPC   GL111019   2.840   3.781   6.423  0.0572  0.0774 -0.1197
  964POPC   GL211020   3.121   3.554   6.518  0.0367  0.1167 -0.1584
  964POPC   C1A11021   2.594   3.974   6.614  0.1819 -0.0308 -0.0755
  964POPC   D2A11022   2.388   4.101   6.968  0.1894 -0.2037  0.3468
  964POPC   C3A11023   2.041   4.233   7.193  0.1034 -0.1667  0.2576
  964POPC   C4A11024   1.738   4.522   7.007  0.1032  0.1071  0.0201
  964POPC   C1B11025   2.849   3.568   6.879  0.1527 -0.1203 -0.0359
  964POPC   C2B11026   2.693   3.807   7.165 -0.1476 -0.0052 -0.0842
  964POPC   C3B11027   2.383   3.929   7.476  0.1072  0.1869 -0.0096
  964POPC   C4B11028   2.410   4.031   7.983  0.1231  0.0448 -0.2919
  965POPC   NC311029  10.307   1.048   6.024  0.1857 -0.3012 -0.3131
  965POPC   PO411030  10.411   0.678   6.259 -0.0265 -0.1708  0.2267
  965POPC   GL111031  10.596   0.651   6.740  0.1740 -0.3136 -0.0224
  965POPC   GL211032  10.893   0.942   6.749  0.4175 -0.1606 -0.1119
  965POPC   C1A11033  10.706   0.654   7.174  0.0045 -0.2348 -0.1250
  965POPC   D2A11034  10.629   0.678   7.609 -0.1017  0.1781 -0.0865
  965POPC   C3A11035  10.963   0.866   7.850  0.0021 -0.1624  0.1012
  965POPC   C4A11036  11.127   1.126   8.176 -0.4731  0.2727 -0.0119
  965POPC   C1B11037  10.872   1.173   7.139 -0.1334  0.1397 -0.3721
  965POPC   C2B11038  10.916   1.231   7.518  0.0625 -0.0586  0.1102
  965POPC   C3B11039  10.796   1.367   7.911 -0.1316  0.0600  0.1460
  965POPC   C4B11040  10.782   1.535   8.298  0.0706 -0.1535 -0.1789
  966POPC   NC311041  16.095  11.645   5.968 -0.3130 -0.1006  0.0524
  966POPC   PO411042  15.997  11.398   6.356  0.1596 -0.0105  0.4025
  966POPC   GL111043  16.103  11.335   6.808 -0.2224  0.1490  0.1197
  966POPC   GL211044  16.120  11.685   6.972  0.0332 -0.1939 -0.2655
  966POPC   C1A11045  16.358  11.193   7.025 -0.1523 -0.2428  0.0358
  966POPC   D2A11046  16.640  11.208   7.349  0.0764 -0.2841  0.0194
  966POPC   C3A11047  16.655  10.819   7.615  0.1163 -0.1970  0.0921
  966POPC   C4A11048  16.636  10.744   8.101  0.0630 -0.2170  0.0049
  966POPC   C1B11049  16.207  11.555   7.416 -0.0409 -0.4032 -0.2612
  966POPC   C2B11050  16.258  11.570   7.898  0.0818 -0.0549 -0.0884
  966POPC   C3B11051  16.282  11.630   8.237  0.1023 -0.0401  0.2795
  966POPC   C4B11052  16.580  11.738   8.544 -0.1405  0.1023 -0.0225
  967POPC   NC311053  12.343   5.440   6.630  0.0535 -0.1664 -0.2418
  967POPC   PO411054  12.523   5.920   6.617 -0.1174  0.0823 -0.0780
  967POPC   GL111055  12.668   6.147   7.040 -0.0229 -0.0949 -0.1219
  967POPC   GL211056  12.890   6.243   7.119 -0.1402 -0.0448  0.0327
  967POPC   C1A11057  12.480   6.453   7.311 -0.0750  0.0211  0.0081
  967POPC   D2A11058  12.238   6.766   7.563 -0.0489 -0.1186 -0.0009
  967POPC   C3A11059  12.044   6.605   7.847  0.1132  0.0761 -0.0177
  967POPC   C4A11060  11.723   6.614   8.227  0.1727 -0.0202 -0.3783
  967POPC   C1B11061  12.838   6.134   7.531  0.1537 -0.0693  0.0425
  967POPC   C2B11062  12.984   6.267   7.863 -0.1429 -0.0604 -0.1766
  967POPC   C3B11063  13.503   6.242   7.976  0.3616  0.1586 -0.1771
  967POPC   C4B11064  14.022   6.295   8.014  0.2158  0.3718  0.1366
  968POPC   NC311065  10.460   2.489   6.046  0.0155 -0.1418 -0.3381
  968POPC   PO411066  10.208   2.912   6.002  0.2207 -0.0296 -0.1947
  968POPC   GL111067  10.120   2.806   6.385  0.2392  0.0895  0.0741
  968POPC   GL211068  10.179   3.105   6.644  0.1725  0.0933  0.0870
  968POPC   C1A11069   9.981   2.646   6.750  0.0952  0.2126  0.0917
  968POPC   D2A11070   9.617   2.618   7.030 -0.2411 -0.0932  0.0740
  968POPC   C3A11071   9.460   2.391   7.264 -0.0399  0.0709 -0.2156
  968POPC   C4A11072   9.239   2.397   7.617 -0.0707 -0.4133 -0.2206
  968POPC   C1B11073  10.131   3.397   6.997 -0.2033 -0.0544 -0.1422
  968POPC   C2B11074  10.247   3.561   7.362  0.2519 -0.1712  0.2215
  968POPC   C3B11075  10.334   3.656   7.858 -0.1770  0.0573 -0.5211
  968POPC   C4B11076  10.431   3.351   8.206 -0.1186 -0.0680 -0.0657
  969POPC   NC311077  12.251   8.817   6.554  0.1459 -0.2583  0.1652
  969POPC   PO411078  11.785   9.045   6.751  0.0759 -0.0691  0.0491
  969POPC   GL111079  11.647   8.852   7.200 -0.2147 -0.1138  0.3510
  969POPC   GL211080  11.281   8.933   7.160 -0.3272  0.1496  0.0035
  969POPC   C1A11081  11.925   8.876   7.588 -0.3315 -0.0323 -0.2034
  969POPC   D2A11082  11.837   9.089   7.947 -0.2178  0.1655 -0.1155
  969POPC   C3A11083  12.165   9.113   8.124  0.0992 -0.0168 -0.0833
  969POPC   C4A11084  12.120   9.320   8.523  0.2182  0.0472  0.1400
  969POPC   C1B11085  11.154   8.584   7.457  0.0059  0.0007  0.2104
  969POPC   C2B11086  11.191   8.406   7.922 -0.2047 -0.0235  0.1726
  969POPC   C3B11087  11.272   8.535   8.252  0.0885  0.1438  0.4626
  969POPC   C4B11088  11.443   8.734   8.681 -0.0776 -0.0618  0.1703
  970POPC   NC311089  10.953  12.229   6.334 -0.0427  0.2103 -0.1498
  970POPC   PO411090  10.782  12.412   6.695 -0.0324 -0.3465  0.1036
  970POPC   GL111091  10.711  12.387   7.097  0.2943  0.1091 -0.1742
  970POPC   GL211092  10.482  12.443   7.314  0.2098  0.0752 -0.0452
  970POPC   C1A11093  11.024  12.510   7.355  0.2473  0.1650  0.0708
  970POPC   D2A11094  11.107  12.372   7.850 -0.1031  0.1472  0.0702
  970POPC   C3A11095  10.964  11.978   8.017  0.1756 -0.0579 -0.0151
  970POPC   C4A11096  11.012  11.829   8.327  0.2153  0.0897 -0.1424
  970POPC   C1B11097  10.665  12.332   7.669  0.0726  0.0680  0.0695
  970POPC   C2B11098  10.561  12.248   8.033 -0.2405 -0.1756 -0.2117
  970POPC   C3B11099  10.505  12.081   8.419  0.0947 -0.0476 -0.2718
  970POPC   C4B11100  10.783  11.869   8.773 -0.3184 -0.0562 -0.2705
  971POPC   NC311101  17.735   9.605   6.262  0.1159 -0.0416  0.1212
  971POPC   PO411102  18.081   9.324   6.119  0.2532 -0.1940 -0.1148
  971POPC   GL111103  18.138   9.405   6.507 -0.2420 -0.0695  0.1920
  971POPC   GL211104  18.055   9.772   6.536 -0.2800  0.1345  0.3034
  971POPC   C1A11105  18.475   9.377   6.845  0.2269  0.0126  0.1076
  971POPC   D2A11106  18.419   9.431   7.297  0.1316  0.5851 -0.1676
  971POPC   C3A11107  18.130   9.594   7.743 -0.0944 -0.2092  0.3324
  971POPC   C4A11108  17.957   9.906   8.108  0.2170 -0.1237 -0.0194
  971POPC   C1B11109  18.220   9.792   6.922  0.2368 -0.4316 -0.0829
  971POPC   C2B11110  18.397   9.916   7.262  0.0847  0.2661 -0.1879
  971POPC   C3B11111  18.619   9.820   7.647 -0.1990 -0.1838 -0.1054
  971POPC   C4B11112  18.681   9.952   8.131  0.2233 -0.1376 -0.3743
  972POPC   NC311113  10.527   6.563   6.129 -0.0231  0.0690  0.1800
  972POPC   PO411114  10.442   7.012   6.113  0.1011 -0.0287 -0.2628
  972POPC   GL111115  10.677   6.861   6.492 -0.1681 -0.0807  0.2575
  972POPC   GL211116  10.785   7.058   6.638  0.0796  0.1252  0.0365
  972POPC   C1A11117  10.509   6.733   6.866 -0.1298  0.2449 -0.0583
  972POPC   D2A11118  10.176   6.724   7.108 -0.1197  0.2221  0.1572
  972POPC   C3A11119  10.057   6.563   7.555 -0.2532 -0.0364 -0.1639
  972POPC   C4A11120   9.994   6.447   7.990  0.1593  0.1016 -0.2888
  972POPC   C1B11121  11.032   6.849   6.956 -0.1800  0.1528 -0.2744
  972POPC   C2B11122  11.110   6.614   7.442  0.0981 -0.2630  0.1190
  972POPC   C3B11123  11.000   6.596   7.728 -0.2139  0.1897  0.0374
  972POPC   C4B11124  10.828   6.833   8.122 -0.1848 -0.1511 -0.0398
  973POPC   NC311125  16.159   5.281   6.386 -0.2271 -0.0799  0.0196
  973POPC   PO411126  16.581   5.090   6.170 -0.3776 -0.1668 -0.1991
  973POPC   GL111127  16.946   5.211   6.425  0.2188  0.2852 -0.0734
  973POPC   GL211128  17.176   5.058   6.325 -0.1855  0.3192  0.1642
  973POPC   C1A11129  16.963   5.432   6.793  0.2919  0.0707  0.3286
  973POPC   D2A11130  16.633   5.443   7.090  0.0547 -0.0366  0.0357
  973POPC   C3A11131  16.673   5.373   7.563 -0.0372 -0.1351 -0.1845
  973POPC   C4A11132  16.602   5.394   7.939 -0.2108 -0.1556  0.0379
  973POPC   C1B11133  17.270   5.069   6.768 -0.3364  0.0346  0.1992
  973POPC   C2B11134  17.387   4.991   7.145  0.1021 -0.2199 -0.1219
  973POPC   C3B11135  17.373   4.792   7.530 -0.1041  0.1918  0.1552
  973POPC   C4B11136  17.362   4.631   7.928  0.2592 -0.3706 -0.2343
  974POPC   NC311137   5.227   4.913   5.896  0.3731 -0.1571 -0.0677
  974POPC   PO411138   5.633   4.816   5.900 -0.2467  0.2222  0.0224
  974POPC   GL111139   5.574   4.567   6.203  0.2378 -0.0679 -0.0556
  974POPC   GL211140   5.789   4.549   6.427  0.1090 -0.0320 -0.3336
  974POPC   C1A11141   5.336   4.451   6.559 -0.0681  0.1207 -0.0574
  974POPC   D2A11142   5.084   4.564   6.896  0.1838  0.2298  0.0552
  974POPC   C3A11143   5.295   4.645   7.355  0.1972 -0.0581 -0.2302
  974POPC   C4A11144   5.254   4.701   7.770  0.2817  0.0112 -0.1027
  974POPC   C1B11145   5.642   4.736   6.813  0.0779  0.0379 -0.0662
  974POPC   C2B11146   5.664   4.931   7.241  0.3374  0.3229 -0.1126
  974POPC   C3B11147   5.460   5.121   7.567  0.1425 -0.1495 -0.3970
  974POPC   C4B11148   5.469   5.145   7.945 -0.0901 -0.0731  0.0124
  975POPC   NC311149   7.500  10.249   6.532  0.3070 -0.1031 -0.0542
  975POPC   PO411150   7.501  10.619   6.833  0.0551 -0.2262 -0.1959
  975POPC   GL111151   7.434  10.552   7.215 -0.1221  0.2975  0.1495
  975POPC   GL211152   7.740  10.374   7.352  0.1399 -0.0517  0.0619
  975POPC   C1A11153   7.200  10.545   7.588  0.0249 -0.2276 -0.1525
  975POPC   D2A11154   7.112  10.523   7.985  0.0261 -0.3112  0.1917
  975POPC   C3A11155   6.745  10.507   8.205  0.0368  0.1652 -0.0859
  975POPC   C4A11156   6.723  10.429   8.625 -0.2861 -0.1412  0.1153
  975POPC   C1B11157   7.608  10.500   7.742 -0.2764  0.0946  0.0078
  975POPC   C2B11158   7.580  10.493   8.201  0.2774  0.1487  0.4916
  975POPC   C3B11159   7.279  10.369   8.507 -0.2456 -0.1841  0.3804
  975POPC   C4B11160   7.030  10.172   8.881  0.2226  0.0858 -0.1175
  976POPC   NC311161  15.453   6.581   6.289  0.2002  0.0123 -0.0639
  976POPC   PO411162  15.955   6.546   6.228 -0.1582 -0.0252 -0.0819
  976POPC   GL111163  15.949   6.396   6.718  0.4148 -0.2056 -0.1805
  976POPC   GL211164  15.627   6.455   6.822  0.2444 -0.0570 -0.0342
  976POPC   C1A11165  15.907   6.156   7.036 -0.0765  0.1139 -0.1261
  976POPC   D2A11166  15.871   6.121   7.553 -0.1717  0.1519  0.3578
  976POPC   C3A11167  16.045   6.053   7.981 -0.1542 -0.2431  0.1168
  976POPC   C4A11168  16.347   5.922   8.233 -0.0493 -0.2789  0.3293
  976POPC   C1B11169  15.555   6.494   7.144  0.0836 -0.1892 -0.0693
  976POPC   C2B11170  15.582   6.498   7.575 -0.1229  0.2157 -0.1892
  976POPC   C3B11171  15.751   6.472   7.996  0.0178  0.2126 -0.1904
  976POPC   C4B11172  16.136   6.428   8.287 -0.2184 -0.0631 -0.1830
  977POPC   NC311173   4.860   7.035   6.529  0.0640 -0.1599  0.0748
  977POPC   PO411174   4.727   6.734   6.724 -0.0622  0.1295 -0.1504
  977POPC   GL111175   4.698   6.767   7.083 -0.1436  0.0571 -0.1630
  977POPC   GL211176   4.516   6.993   7.084 -0.0808 -0.0182 -0.0446
  977POPC   C1A11177   4.775   6.804   7.497  0.2192 -0.1132 -0.0633
  977POPC   D2A11178   4.659   6.739   7.878 -0.0354 -0.2003  0.0052
  977POPC   C3A11179   4.998   6.963   8.119  0.0650  0.2263 -0.0100
  977POPC   C4A11180   5.283   6.884   8.511 -0.0849  0.0970  0.3577
  977POPC   C1B11181   4.272   6.774   7.416  0.3145 -0.1713 -0.2651
  977POPC   C2B11182   4.148   6.957   7.764  0.0259 -0.0411 -0.1439
  977POPC   C3B11183   3.952   6.962   8.148  0.3012  0.0166 -0.0774
  977POPC   C4B11184   3.986   7.049   8.587 -0.0509 -0.0470  0.1663
  978POPC   NC311185  16.597  11.378   6.086  0.2280 -0.1609  0.0218
  978POPC   PO411186  16.859  11.251   6.233  0.0469 -0.0881 -0.1816
  978POPC   GL111187  16.923  11.292   6.623  0.0723  0.1117 -0.1830
  978POPC   GL211188  17.260  11.336   6.696  0.0723  0.2669  0.2076
  978POPC   C1A11189  16.869  11.031   6.966  0.0365 -0.0026  0.1670
  978POPC   D2A11190  17.091  10.928   7.374 -0.1134  0.0936 -0.2853
  978POPC   C3A11191  17.101  11.121   7.773 -0.1444  0.2358 -0.0247
  978POPC   C4A11192  17.215  11.301   8.131 -0.0643  0.0851 -0.0799
  978POPC   C1B11193  17.640  11.450   6.943  0.1890 -0.2281 -0.3568
  978POPC   C2B11194  18.003  11.252   7.117 -0.0416 -0.1638 -0.0379
  978POPC   C3B11195  18.358  11.349   7.322 -0.0761  0.0039  0.1843
  978POPC   C4B11196  18.350  11.427   7.766 -0.2466  0.0953  0.0887
  979YOPC   NC311197  13.047   3.714   6.168  0.1948  0.2241 -0.1194
  979YOPC   PO411198  13.413   3.616   6.484 -0.0355  0.2545  0.0773
  979YOPC   GL111199  13.325   3.590   6.766  0.1279 -0.3120 -0.0555
  979YOPC   GL211200  13.133   3.241   6.881 -0.0464 -0.0098 -0.3942
  979YOPC   C1A11201  13.527   3.394   7.122  0.0202  0.0676 -0.3506
  979YOPC   D2A11202  13.607   3.161   7.382  0.0734 -0.0042  0.0078
  979YOPC   C3A11203  13.323   3.339   7.692 -0.2579 -0.0008  0.3025
  979YOPC   C4A11204  13.473   3.578   7.978 -0.0381 -0.1350  0.1040
  979YOPC   C1B11205  13.147   3.040   7.265  0.3678  0.3735  0.1974
  979YOPC   C2B11206  13.220   2.698   7.415  0.0367  0.0750  0.1754
  979YOPC   D3B11207  13.313   2.873   7.790  0.0708  0.1220 -0.3162
  979YOPC   C4B11208  13.298   3.040   8.169  0.0654 -0.0838  0.1485
  980YOPC   NC311209   7.368   8.763   6.438 -0.0767  0.0066  0.0247
  980YOPC   PO411210   7.422   9.182   6.775 -0.0142  0.1566  0.2256
  980YOPC   GL111211   7.408   9.323   7.230 -0.0642 -0.0931 -0.1016
  980YOPC   GL211212   7.655   9.063   7.357  0.0932  0.3028  0.1323
  980YOPC   C1A11213   7.235   9.361   7.675  0.1683  0.1341  0.2158
  980YOPC   D2A11214   7.305   9.353   8.170 -0.2142 -0.0035  0.2636
  980YOPC   C3A11215   7.232   9.037   8.403  0.1218  0.1718  0.1492
  980YOPC   C4A11216   6.962   8.677   8.347  0.0391 -0.1663 -0.2249
  980YOPC   C1B11217   7.876   8.777   7.589  0.0207 -0.2490 -0.1223
  980YOPC   C2B11218   7.940   8.624   8.070 -0.1838 -0.2601  0.0268
  980YOPC   D3B11219   7.470   8.602   8.344 -0.3421 -0.0855 -0.0892
  980YOPC   C4B11220   7.328   8.424   8.790 -0.0472 -0.1902  0.0824
  981YOPC   NC311221   3.958  13.723   5.653  0.1108  0.0897 -0.0816
  981YOPC   PO411222   3.693  13.808   6.019  0.2984  0.0687  0.0485
  981YOPC   GL111223   3.438  13.712   6.391 -0.1657  0.0502  0.2499
  981YOPC   GL211224   3.320  13.372   6.405  0.0019  0.3494  0.0899
  981YOPC   C1A11225   3.291  13.676   6.802 -0.1079  0.0855  0.1065
  981YOPC   D2A11226   3.393  13.853   7.144  0.1187 -0.0773 -0.1759
  981YOPC   C3A11227   3.325  13.595   7.425  0.2973 -0.0323  0.0204
  981YOPC   C4A11228   3.132  13.244   7.706  0.0399 -0.0219 -0.0025
  981YOPC   C1B11229   3.608  13.148   6.547 -0.1918  0.1662 -0.0532
  981YOPC   C2B11230   4.024  13.076   6.667  0.1673  0.1159  0.0120
  981YOPC   D3B11231   4.270  12.936   6.931  0.0640 -0.1970 -0.0118
  981YOPC   C4B11232   4.193  12.811   7.289  0.2535  0.2261 -0.1586
  982YOPC   NC311233   9.696   2.669   5.844  0.0679 -0.2424 -0.1076
  982YOPC   PO411234  10.005   2.268   6.093  0.0694 -0.2315  0.0751
  982YOPC   GL111235  10.095   2.091   6.531  0.0701  0.1570 -0.3626
  982YOPC   GL211236  10.302   2.309   6.665 -0.0244  0.0910 -0.1387
  982YOPC   C1A11237  10.089   1.843   6.916  0.0254  0.1285  0.0455
  982YOPC   D2A11238  10.145   1.856   7.329  0.1084  0.0359 -0.1382
  982YOPC   C3A11239  10.366   2.118   7.614 -0.0542  0.1883 -0.1370
  982YOPC   C4A11240  10.201   2.555   7.825 -0.1152 -0.3094 -0.0558
  982YOPC   C1B11241  10.458   2.588   6.869  0.0960 -0.0885  0.1725
  982YOPC   C2B11242  10.207   2.908   7.071 -0.2603 -0.0565 -0.1936
  982YOPC   D3B11243   9.987   2.726   7.430  0.0522  0.0217  0.2034
  982YOPC   C4B11244   9.805   2.836   7.760  0.2517  0.0633  0.3684
  983YOPC   NC311245  12.672  13.705   6.822  0.2743  0.2835  0.0992
  983YOPC   PO411246  12.290  13.720   6.693 -0.1209  0.1119 -0.0224
  983YOPC   GL111247  12.317  14.090   7.039  0.1289  0.1969  0.1011
  983YOPC   GL211248  12.159  13.832   7.242 -0.0897  0.0597  0.2985
  983YOPC   C1A11249  12.053  14.304   7.303  0.3807 -0.0646  0.0107
  983YOPC   D2A11250  11.671  14.338   7.537  0.1187 -0.1198 -0.0720
  983YOPC   C3A11251  11.594  14.332   8.012  0.1054 -0.1426  0.1828
  983YOPC   C4A11252  11.628  14.411   8.463 -0.0196  0.0007  0.0904
  983YOPC   C1B11253  11.963  13.933   7.631  0.1559  0.2455 -0.2150
  983YOPC   C2B11254  11.799  13.904   7.944  0.0875  0.1301  0.1832
  983YOPC   D3B11255  11.994  13.874   8.436  0.1941 -0.0253 -0.1300
  983YOPC   C4B11256  11.857  13.676   8.756  0.0641  0.0708  0.0914
  984YOPC   NC311257  11.300  10.960   6.705 -0.0059  0.1042 -0.3324
  984YOPC   PO411258  10.870  11.200   6.837  0.1179  0.2062  0.1305
  984YOPC   GL111259  10.608  11.161   7.288  0.0487  0.0999  0.1373
  984YOPC   GL211260  10.439  10.853   7.272  0.1232 -0.1701  0.2362
  984YOPC   C1A11261  10.685  11.216   7.768  0.1260 -0.0716 -0.2070
  984YOPC   D2A11262  10.776  11.051   8.172  0.2281 -0.4160 -0.0831
  984YOPC   C3A11263  10.572  10.843   8.377 -0.0649  0.1697 -0.0043
  984YOPC   C4A11264  10.562  10.881   8.737 -0.0063 -0.1758  0.0683
  984YOPC   C1B11265  10.866  10.777   7.463  0.0007  0.0894 -0.3896
  984YOPC   C2B11266  11.148  10.994   7.740  0.2668  0.2146  0.2444
  984YOPC   D3B11267  11.242  10.958   8.171  0.4419  0.1275 -0.0120
  984YOPC   C4B11268  11.076  10.867   8.526  0.1425 -0.2800  0.1916
  985YOPC   NC311269   5.330   0.707   5.255 -0.1059  0.1731  0.1294
  985YOPC   PO411270   5.630   0.893   5.619 -0.1275  0.1310  0.0125
  985YOPC   GL111271   5.952   0.930   5.893  0.0956  0.0942 -0.1483
  985YOPC   GL211272   5.799   1.119   6.090  0.1831  0.0347  0.0961
  985YOPC   C1A11273   6.138   0.818   6.321 -0.0225  0.0548  0.1332
  985YOPC   D2A11274   6.495   0.810   6.528  0.0537  0.1719 -0.1720
  985YOPC   C3A11275   6.726   0.982   6.874  0.1820  0.1815  0.1191
  985YOPC   C4A11276   6.624   1.346   7.077 -0.1895 -0.1965 -0.2403
  985YOPC   C1B11277   5.821   1.160   6.524 -0.2598 -0.0300 -0.1903
  985YOPC   C2B11278   5.796   0.895   6.779 -0.2549  0.0810  0.1786
  985YOPC   D3B11279   5.698   0.734   7.165  0.1364 -0.0889 -0.0157
  985YOPC   C4B11280   5.465   0.741   7.542 -0.2707  0.2800  0.0219
  986YOPC   NC311281  14.639  16.788   6.296 -0.0339 -0.0339 -0.2609
  986YOPC   PO411282  14.296  16.474   6.530  0.2463  0.0398  0.1157
  986YOPC   GL111283  14.452  16.740   6.849 -0.0013 -0.1359 -0.1060
  986YOPC   GL211284  14.720  16.905   6.960 -0.0023 -0.1143 -0.3492
  986YOPC   C1A11285  14.389  16.915   7.342  0.2830  0.0329  0.1747
  986YOPC   D2A11286  14.370  17.035   7.811 -0.1156 -0.2081 -0.0538
  986YOPC   C3A11287  13.996  17.062   8.008  0.0384 -0.0782  0.2573
  986YOPC   C4A11288  13.643  17.307   8.231 -0.0825  0.0640 -0.0772
  986YOPC   C1B11289  14.875  17.027   7.402 -0.1342  0.0843 -0.0163
  986YOPC   C2B11290  14.904  17.088   7.863  0.2370 -0.0994  0.1613
  986YOPC   D3B11291  14.909  16.930   8.353  0.0035  0.0033 -0.0132
  986YOPC   C4B11292  15.058  16.826   8.786 -0.0182 -0.2035 -0.2521
  987YOPC   NC311293   8.719   9.915   6.717 -0.0372 -0.0924  0.1672
  987YOPC   PO411294   8.545   9.526   6.787 -0.1382  0.3383 -0.0065
  987YOPC   GL111295   8.831   9.519   7.144  0.1545  0.0939 -0.2319
  987YOPC   GL211296   9.091   9.694   7.238  0.0082  0.1553 -0.0333
  987YOPC   C1A11297   8.679   9.403   7.574  0.0802 -0.1533 -0.1290
  987YOPC   D2A11298   8.672   9.602   7.866 -0.0426 -0.1876  0.0208
  987YOPC   C3A11299   8.666   9.233   8.171  0.2071 -0.1534 -0.0281
  987YOPC   C4A11300   8.800   8.854   8.422 -0.0245  0.1534 -0.0172
  987YOPC   C1B11301   9.054   9.766   7.577  0.2142  0.0829 -0.1586
  987YOPC   C2B11302   9.084   9.979   8.061  0.1600 -0.0284  0.2993
  987YOPC   D3B11303   8.898   9.666   8.328  0.0523  0.2264 -0.0990
  987YOPC   C4B11304   8.838   9.358   8.679  0.0560 -0.2101 -0.0210
  988YOPC   NC311305   7.406  14.201   6.509 -0.1199 -0.0243  0.3236
  988YOPC   PO411306   7.652  13.832   6.589  0.0901 -0.1828  0.4427
  988YOPC   GL111307   7.469  13.961   6.989  0.1942  0.1798 -0.1632
  988YOPC   GL211308   7.171  14.150   6.967 -0.0267  0.0822  0.3242
  988YOPC   C1A11309   7.609  13.908   7.465 -0.0426  0.2891  0.3340
  988YOPC   D2A11310   7.404  14.009   7.946 -0.0829 -0.1697  0.0792
  988YOPC   C3A11311   7.633  14.024   8.332 -0.0964  0.1898 -0.2117
  988YOPC   C4A11312   7.586  13.934   8.725  0.1376 -0.0524 -0.1900
  988YOPC   C1B11313   6.994  14.183   7.188  0.0063  0.3186 -0.2347
  988YOPC   C2B11314   6.713  14.008   7.455 -0.0241  0.0406 -0.2150
  988YOPC   D3B11315   6.707  13.987   7.916  0.0484  0.0297 -0.1731
  988YOPC   C4B11316   7.063  14.245   8.166 -0.2275 -0.0743 -0.0063
  989YOPC   NC311317   8.116  14.654   6.492  0.3367  0.1449 -0.1988
  989YOPC   PO411318   7.933  14.254   6.467  0.3425  0.1845 -0.2004
  989YOPC   GL111319   7.674  14.494   6.852  0.0119  0.1687 -0.0858
  989YOPC   GL211320   7.784  14.799   6.908 -0.2540 -0.1563  0.0708
  989YOPC   C1A11321   7.518  14.400   7.277 -0.2218 -0.0443  0.0487
  989YOPC   D2A11322   7.234  14.378   7.665  0.2717  0.1014  0.2024
  989YOPC   C3A11323   7.197  14.734   7.910  0.3169  0.0281 -0.0420
  989YOPC   C4A11324   7.388  14.855   8.320 -0.0550 -0.2618 -0.0843
  989YOPC   C1B11325   7.860  14.796   7.315 -0.0569  0.0818 -0.0417
  989YOPC   C2B11326   7.599  14.815   7.654 -0.1040 -0.0341  0.0901
  989YOPC   D3B11327   7.700  15.007   7.930 -0.1576 -0.1949 -0.4358
  989YOPC   C4B11328   7.826  15.076   8.387 -0.0617 -0.2821  0.0925
  990YOPC   NC311329   4.760  17.474   5.809  0.2316  0.1582  0.1789
  990YOPC   PO411330   4.750  17.844   5.909 -0.0298 -0.0194  0.0324
  990YOPC   GL111331   4.674  18.108   6.163  0.1974  0.2046  0.0601
  990YOPC   GL211332   4.450  17.978   6.330  0.0671  0.1688 -0.2624
  990YOPC   C1A11333   4.830  18.140   6.618 -0.0918 -0.2153 -0.2412
  990YOPC   D2A11334   4.638  18.233   6.931  0.0633  0.0775  0.0875
  990YOPC   C3A11335   4.686  17.891   7.286  0.1385  0.3042 -0.1726
  990YOPC   C4A11336   4.936  17.636   7.520 -0.2834 -0.3117  0.2397
  990YOPC   C1B11337   4.301  17.912   6.763 -0.0920 -0.1171  0.1304
  990YOPC   C2B11338   4.180  18.133   7.094  0.1350  0.1032 -0.1457
  990YOPC   D3B11339   4.209  17.989   7.492 -0.1480  0.2720 -0.0879
  990YOPC   C4B11340   3.901  17.684   7.617  0.2022  0.0028  0.1295
  991YOPC   NC311341   5.772   0.070   5.898 -0.0335  0.0182 -0.3027
  991YOPC   PO411342   5.466   0.342   5.539 -0.2607  0.3312 -0.0127
  991YOPC   GL111343   5.557   0.506   5.993 -0.1686 -0.0007 -0.3909
  991YOPC   GL211344   5.803   0.509   6.223  0.0477  0.2002 -0.1325
  991YOPC   C1A11345   5.323   0.869   6.292 -0.0316  0.0631  0.1445
  991YOPC   D2A11346   5.335   1.038   6.665 -0.1653  0.0829  0.6493
  991YOPC   C3A11347   5.406   1.134   7.108 -0.2065 -0.0136  0.3684
  991YOPC   C4A11348   5.394   1.297   7.478  0.1858  0.0543  0.0451
  991YOPC   C1B11349   5.712   0.340   6.569  0.1588 -0.4037  0.2957
  991YOPC   C2B11350   5.630   0.256   7.003  0.1675 -0.2346  0.2439
  991YOPC   D3B11351   5.783   0.282   7.525 -0.1399  0.1888  0.0572
  991YOPC   C4B11352   5.661   0.478   7.901 -0.1800  0.1103  0.0408
  992YOPC   NC311353  14.715  16.235   6.338  0.0740  0.3629 -0.2942
  992YOPC   PO411354  14.915  16.533   6.623 -0.1445  0.0111 -0.2629
  992YOPC   GL111355  15.156  16.551   6.895 -0.2133 -0.0564  0.1239
  992YOPC   GL211356  15.354  16.742   6.876 -0.3716 -0.2959  0.0176
  992YOPC   C1A11357  15.193  16.585   7.276  0.0345 -0.0930  0.0559
  992YOPC   D2A11358  15.179  16.728   7.648  0.1266 -0.1813  0.2611
  992YOPC   C3A11359  15.066  16.528   8.017 -0.0443  0.0592  0.0738
  992YOPC   C4A11360  14.854  16.446   8.440 -0.0971 -0.1690 -0.1242
  992YOPC   C1B11361  15.224  17.119   7.041  0.0094  0.3735  0.1528
  992YOPC   C2B11362  15.171  17.485   7.430  0.1822  0.0829 -0.2338
  992YOPC   D3B11363  15.342  17.348   7.803 -0.2694 -0.1780  0.2744
  992YOPC   C4B11364  15.618  17.400   8.132 -0.1175  0.0123  0.0636
  993YOPC   NC311365   3.595   2.636   5.889  0.0846  0.0334  0.1129
  993YOPC   PO411366   3.194   2.428   5.868 -0.0410  0.1663  0.0607
  993YOPC   GL111367   3.004   2.268   6.199 -0.0810 -0.1494 -0.0876
  993YOPC   GL211368   2.851   2.024   6.094 -0.1071  0.2475  0.2499
  993YOPC   C1A11369   2.854   2.178   6.623  0.1427  0.1627  0.0836
  993YOPC   D2A11370   2.747   1.833   6.962 -0.1055  0.1919  0.0406
  993YOPC   C3A11371   2.277   1.833   7.122 -0.0640 -0.2509 -0.0486
  993YOPC   C4A11372   2.153   1.700   7.544 -0.1503  0.0381  0.1407
  993YOPC   C1B11373   2.542   1.899   6.361 -0.2466 -0.1284 -0.1478
  993YOPC   C2B11374   2.142   1.748   6.472 -0.1144  0.1219  0.0662
  993YOPC   D3B11375   1.931   1.878   6.794  0.0230 -0.5716 -0.0480
  993YOPC   C4B11376   1.835   1.993   7.243 -0.1045 -0.0835 -0.1247
  994YOPC   NC311377   3.566  12.502   5.782 -0.0493 -0.0169  0.2964
  994YOPC   PO411378   3.462  12.762   6.029 -0.0813 -0.2019 -0.1157
  994YOPC   GL111379   3.361  12.608   6.395 -0.1831 -0.0434 -0.0615
  994YOPC   GL211380   3.119  12.720   6.621  0.0589 -0.0059 -0.4988
  994YOPC   C1A11381   3.676  12.549   6.636 -0.0401  0.1612 -0.2123
  994YOPC   D2A11382   3.732  12.836   7.012 -0.0768 -0.1964 -0.0063
  994YOPC   C3A11383   3.518  13.015   7.320  0.0649 -0.2267 -0.3115
  994YOPC   C4A11384   3.558  13.026   7.769 -0.0568  0.1583  0.2314
  994YOPC   C1B11385   3.255  12.697   7.044  0.0670  0.1117  0.3506
  994YOPC   C2B11386   3.133  12.624   7.539 -0.0166 -0.1069  0.1433
  994YOPC   D3B11387   2.714  12.838   7.716  0.1129 -0.1365  0.2117
  994YOPC   C4B11388   2.680  13.255   7.868  0.0869  0.0077 -0.1490
  995YOPC   NC311389  14.818  14.817   6.087 -0.3519 -0.1193 -0.2275
  995YOPC   PO411390  15.126  15.071   6.270 -0.3895  0.0836  0.0437
  995YOPC   GL111391  15.215  14.947   6.576  0.2977  0.3282 -0.0380
  995YOPC   GL211392  15.594  14.862   6.675 -0.2079 -0.0127 -0.1139
  995YOPC   C1A11393  15.296  15.186   7.019 -0.1533 -0.0401 -0.0988
  995YOPC   D2A11394  15.427  15.384   7.344  0.3387  0.1591 -0.2355
  995YOPC   C3A11395  15.461  15.439   7.825 -0.1877  0.1286  0.1442
  995YOPC   C4A11396  15.391  15.201   8.219  0.0907 -0.1866  0.2546
  995YOPC   C1B11397  15.704  14.842   7.053 -0.2027 -0.0964 -0.1872
  995YOPC   C2B11398  15.523  14.894   7.432  0.3789  0.2538  0.3227
  995YOPC   D3B11399  15.629  14.894   7.909  0.1218 -0.1451 -0.2051
  995YOPC   C4B11400  15.746  14.806   8.330  0.1656 -0.2641  0.0770
  996YOPC   NC311401   0.301  13.854   5.334  0.0899 -0.0711 -0.0507
  996YOPC   PO411402   0.325  13.735   5.823 -0.0643 -0.0063  0.0727
  996YOPC   GL111403   0.417  13.915   6.252 -0.2349  0.0077  0.0722
  996YOPC   GL211404   0.695  14.044   6.221  0.2590  0.0035 -0.0056
  996YOPC   C1A11405   0.419  14.038   6.644  0.0190 -0.0331 -0.4341
  996YOPC   D2A11406   0.795  14.076   6.913 -0.2464 -0.3627 -0.0886
  996YOPC   C3A11407   0.799  14.120   7.300 -0.0648 -0.1128  0.0635
  996YOPC   C4A11408   0.825  14.406   7.677 -0.1455 -0.4487 -0.0137
  996YOPC   C1B11409   1.102  14.056   6.486 -0.3871 -0.1729  0.3481
  996YOPC   C2B11410   1.395  14.151   6.818 -0.1561  0.2084  0.1576
  996YOPC   D3B11411   1.337  14.173   7.302  0.1540 -0.1728 -0.1017
  996YOPC   C4B11412   1.161  14.021   7.663 -0.0268 -0.0907 -0.0761
  997YOPC   NC311413   3.153  15.334   5.358  0.2745 -0.0138  0.1493
  997YOPC   PO411414   3.064  15.451   5.762 -0.2551 -0.1282  0.0156
  997YOPC   GL111415   3.081  15.632   6.191 -0.0885 -0.2679  0.5020
  997YOPC   GL211416   2.865  15.542   6.265 -0.1496 -0.1511  0.1282
  997YOPC   C1A11417   2.961  15.588   6.732 -0.0371  0.0943 -0.0043
  997YOPC   D2A11418   2.976  15.528   7.115 -0.0660  0.3067 -0.2608
  997YOPC   C3A11419   2.776  15.403   7.418  0.0180  0.0585 -0.0652
  997YOPC   C4A11420   2.562  15.191   7.745  0.3031 -0.2146 -0.2868
  997YOPC   C1B11421   2.523  15.660   6.354  0.0099 -0.0256 -0.6573
  997YOPC   C2B11422   2.384  15.626   6.774 -0.0286  0.1111  0.0237
  997YOPC   D3B11423   2.330  15.504   7.202 -0.2785 -0.0785 -0.3244
  997YOPC   C4B11424   2.143  15.239   7.449 -0.2244  0.0025 -0.2596
  998YOPC   NC311425   0.320   5.476   6.020 -0.0208 -0.1144  0.1166
  998YOPC   PO411426   0.482   5.814   6.151 -0.0879 -0.3610 -0.1219
  998YOPC   GL111427   0.602   5.621   6.588 -0.0797 -0.2799  0.0375
  998YOPC   GL211428   0.482   5.352   6.571 -0.0978  0.0267 -0.3153
  998YOPC   C1A11429   0.850   5.516   6.936  0.2110  0.2449 -0.0887
  998YOPC   D2A11430   0.915   5.254   7.263 -0.0491 -0.1243  0.1203
  998YOPC   C3A11431   0.896   4.898   7.375 -0.0005  0.0050  0.0127
  998YOPC   C4A11432   0.775   4.775   7.759 -0.0474 -0.0677  0.2899
  998YOPC   C1B11433   0.318   5.438   6.961  0.2228 -0.1389  0.2126
  998YOPC   C2B11434   0.371   5.417   7.406  0.1300  0.1489 -0.1646
  998YOPC   D3B11435   0.205   5.752   7.695 -0.1318 -0.2067  0.3595
  998YOPC   C4B11436   0.261   6.168   7.788  0.1516 -0.0700 -0.0972
  999YOPC   NC311437   9.287  17.033   6.465 -0.0921 -0.0699  0.0459
  999YOPC   PO411438   8.969  17.419   6.500 -0.0018 -0.3144  0.0753
  999YOPC   GL111439   8.905  17.556   6.864  0.2095  0.2607 -0.3648
  999YOPC   GL211440   8.646  17.565   6.846  0.0596 -0.0078 -0.0274
  999YOPC   C1A11441   8.936  17.762   7.276  0.0176  0.2185 -0.2138
  999YOPC   D2A11442   8.735  17.845   7.689  0.0908 -0.1779  0.2157
  999YOPC   C3A11443   8.448  18.169   7.696  0.1881 -0.3248  0.0994
  999YOPC   C4A11444   8.474  18.521   7.413 -0.2717 -0.1948 -0.1794
  999YOPC   C1B11445   8.416  17.651   7.201  0.1411 -0.1872  0.1517
  999YOPC   C2B11446   8.262  17.737   7.571 -0.1591  0.4700  0.0563
  999YOPC   D3B11447   8.394  17.620   8.025 -0.2872  0.0912  0.1875
  999YOPC   C4B11448   8.418  17.311   8.374  0.0647  0.1443 -0.2670
 1000YOPC   NC311449   4.590  12.356   5.704  0.3341  0.0414 -0.0533
 1000YOPC   PO411450   4.822  12.506   6.106 -0.0757 -0.0354 -0.0942
 1000YOPC   GL111451   4.697  12.485   6.521 -0.1210  0.2902 -0.0106
 1000YOPC   GL211452   4.960  12.466   6.700  0.1968 -0.0641 -0.1563
 1000YOPC   C1A11453   4.530  12.227   6.806 -0.1102 -0.1367 -0.0002
 1000YOPC   D2A11454   4.344  11.837   7.078  0.1780 -0.3122  0.2148
 1000YOPC   C3A11455   4.303  11.807   7.454  0.0258  0.0884 -0.2643
 1000YOPC   C4A11456   4.004  11.754   7.806 -0.1327 -0.0734  0.0368
 1000YOPC   C1B11457   4.687  12.676   7.040 -0.2234  0.6905 -0.0677
 1000YOPC   C2B11458   4.677  12.827   7.452 -0.0852  0.0429  0.0995
 1000YOPC   D3B11459   4.431  13.110   7.758 -0.0388  0.1427 -0.0591
 1000YOPC   C4B11460   4.065  13.268   7.987 -0.1951  0.0021 -0.0047
 1001YOPC   NC311461   2.981   5.877   6.613  0.2933  0.3775 -0.1810
 1001YOPC   PO411462   2.737   6.269   6.680  0.1687  0.1878  0.1247
 1001YOPC   GL111463   2.483   6.357   6.938 -0.0385 -0.2632  0.0140
 1001YOPC   GL211464   2.280   6.620   6.890 -0.1767 -0.3331  0.3014
 1001YOPC   C1A11465   2.382   6.312   7.300 -0.0047  0.0110 -0.1424
 1001YOPC   D2A11466   2.415   6.249   7.611 -0.0143 -0.0789  0.0290
 1001YOPC   C3A11467   2.457   6.222   8.050 -0.1219 -0.0158  0.0714
 1001YOPC   C4A11468   2.844   6.525   8.209 -0.0759 -0.0396  0.1065
 1001YOPC   C1B11469   2.164   6.792   7.273 -0.1855  0.2047  0.0585
 1001YOPC   C2B11470   1.927   6.891   7.496 -0.2278  0.0189 -0.2376
 1001YOPC   D3B11471   1.534   6.866   7.423 -0.0408 -0.1521  0.0892
 1001YOPC   C4B11472   1.301   6.725   7.069 -0.0553 -0.3184 -0.1262
 1002YOPC   NC311473   3.524  14.156   5.725  0.1611 -0.0293 -0.0879
 1002YOPC   PO411474   3.236  14.572   5.816 -0.0721 -0.2647 -0.0191
 1002YOPC   GL111475   3.393  14.538   6.256  0.1141 -0.0268 -0.1736
 1002YOPC   GL211476   3.554  14.231   6.228 -0.0389  0.1434 -0.0310
 1002YOPC   C1A11477   3.499  14.606   6.689 -0.2982 -0.0650 -0.1341
 1002YOPC   D2A11478   3.838  14.687   6.856 -0.1801 -0.0311 -0.4113
 1002YOPC   C3A11479   4.171  14.436   7.061  0.0397  0.1300 -0.3831
 1002YOPC   C4A11480   4.547  14.209   7.077  0.1602  0.1308 -0.0367
 1002YOPC   C1B11481   3.303  14.138   6.522  0.0283  0.0812 -0.0225
 1002YOPC   C2B11482   3.094  14.157   6.883 -0.0574 -0.0929 -0.0244
 1002YOPC   D3B11483   3.061  14.174   7.366  0.0483 -0.1426  0.1391
 1002YOPC   C4B11484   3.464  14.000   7.651  0.1932  0.0394 -0.1399
 1003YOPC   NC311485  11.502  14.644   6.802 -0.0866  0.1202  0.2007
 1003YOPC   PO411486  11.317  15.056   6.658 -0.1413  0.1779 -0.1370
 1003YOPC   GL111487  11.273  15.007   7.088 -0.0048  0.1711 -0.1726
 1003YOPC   GL211488  11.523  15.170   7.302  0.1080 -0.4214  0.0769
 1003YOPC   C1A11489  11.302  14.722   7.444 -0.0526 -0.1931  0.0946
 1003YOPC   D2A11490  11.130  14.364   7.758  0.1549  0.1795 -0.2149
 1003YOPC   C3A11491  11.061  14.326   8.220  0.1261 -0.2109 -0.0619
 1003YOPC   C4A11492  10.824  14.183   8.546  0.0458  0.1035 -0.2746
 1003YOPC   C1B11493  11.460  15.194   7.682  0.1812  0.1497 -0.3690
 1003YOPC   C2B11494  11.417  15.273   8.119 -0.0421 -0.0242  0.0568
 1003YOPC   D3B11495  11.454  15.055   8.485  0.3294  0.0128 -0.1507
 1003YOPC   C4B11496  11.228  14.939   8.908  0.3836  0.1147 -0.1693
 1004YOPC   NC311497  16.541  10.427   6.214 -0.1074 -0.0247 -0.0585
 1004YOPC   PO411498  16.839  10.289   6.405 -0.1829 -0.0991 -0.0366
 1004YOPC   GL111499  16.541  10.349   6.707  0.0235  0.0604  0.0305
 1004YOPC   GL211500  16.444  10.710   6.876 -0.1188 -0.1765  0.2856
 1004YOPC   C1A11501  16.092  10.285   6.901  0.0879  0.1200 -0.2671
 1004YOPC   D2A11502  15.760  10.169   7.089 -0.1964 -0.0610  0.1219
 1004YOPC   C3A11503  15.830  10.232   7.543 -0.0772  0.0712  0.0402
 1004YOPC   C4A11504  15.824  10.387   8.032  0.0395  0.0498 -0.1318
 1004YOPC   C1B11505  16.496  10.390   7.216  0.1171  0.1801  0.1944
 1004YOPC   C2B11506  16.587  10.353   7.647  0.0139 -0.5212 -0.1181
 1004YOPC   D3B11507  16.331  10.304   7.985  0.1892 -0.0492 -0.3333
 1004YOPC   C4B11508  16.005   9.979   8.238  0.5062  0.1468  0.2539
 1005YOPC   NC311509   3.325   8.354   6.521  0.1117  0.0212  0.0474
 1005YOPC   PO411510   3.155   8.673   6.380 -0.0108 -0.0551 -0.2158
 1005YOPC   GL111511   3.274   8.841   6.746  0.3695 -0.0972  0.2507
 1005YOPC   GL211512   3.300   8.626   6.963  0.1311 -0.1203  0.1914
 1005YOPC   C1A11513   3.460   9.126   7.136 -0.0896 -0.0503  0.0739
 1005YOPC   D2A11514   3.400   9.411   7.457 -0.1575  0.2052 -0.0332
 1005YOPC   C3A11515   3.642   9.597   7.737  0.4110 -0.0688 -0.0923
 1005YOPC   C4A11516   3.738   9.635   8.100  0.0724  0.3094  0.0693
 1005YOPC   C1B11517   3.358   8.713   7.409 -0.3571 -0.1272 -0.4723
 1005YOPC   C2B11518   3.666   8.491   7.709 -0.2301 -0.0600  0.3201
 1005YOPC   D3B11519   3.881   8.576   8.177  0.0129 -0.0803 -0.1504
 1005YOPC   C4B11520   3.804   8.467   8.598  0.1307  0.0146  0.0280
 1006YOPC   NC311521  12.380  12.691   6.913 -0.1282 -0.0109  0.1854
 1006YOPC   PO411522  12.679  12.871   7.206  0.0888  0.2035  0.0391
 1006YOPC   GL111523  12.440  13.021   7.524 -0.1898 -0.1936  0.1743
 1006YOPC   GL211524  12.439  13.370   7.381 -0.1589 -0.1351  0.0470
 1006YOPC   C1A11525  12.033  12.963   7.791  0.0155 -0.1394 -0.1604
 1006YOPC   D2A11526  11.977  12.948   8.195  0.0907  0.2589  0.0857
 1006YOPC   C3A11527  12.316  12.681   8.427  0.3483 -0.0164  0.0516
 1006YOPC   C4A11528  12.625  12.615   8.706 -0.1865 -0.0919 -0.1556
 1006YOPC   C1B11529  12.273  13.486   7.835 -0.0146  0.1048  0.2905
 1006YOPC   C2B11530  12.279  13.453   8.278  0.0930  0.2819 -0.2223
 1006YOPC   D3B11531  12.096  13.151   8.601 -0.1540  0.0029  0.0118
 1006YOPC   C4B11532  11.731  12.852   8.647 -0.2427  0.0716 -0.3545
 1007YOPC   NC311533  15.430  11.276   6.439  0.0661  0.1294 -0.0381
 1007YOPC   PO411534  15.751  10.930   6.532 -0.2237  0.0295  0.0543
 1007YOPC   GL111535  15.929  10.839   6.885  0.0422  0.1226  0.2124
 1007YOPC   GL211536  15.602  10.804   7.026 -0.0109 -0.1885  0.0483
 1007YOPC   C1A11537  16.107  10.709   7.188  0.1306  0.1848  0.3946
 1007YOPC   D2A11538  16.167  10.595   7.562 -0.0410  0.2035 -0.0528
 1007YOPC   C3A11539  16.145  10.798   7.980 -0.0512  0.2289  0.0921
 1007YOPC   C4A11540  16.116  10.693   8.385 -0.0481  0.2273 -0.2750
 1007YOPC   C1B11541  15.713  10.871   7.521  0.0223 -0.3120 -0.1254
 1007YOPC   C2B11542  15.520  11.071   7.836  0.1336  0.2688 -0.0400
 1007YOPC   D3B11543  15.646  10.855   8.171 -0.1720 -0.0207 -0.1298
 1007YOPC   C4B11544  15.657  10.918   8.531  0.1148  0.3713  0.1052
 1008YOPC   NC311545  11.842   2.854   5.759 -0.2899  0.1535  0.1511
 1008YOPC   PO411546  11.615   3.213   5.852 -0.0243 -0.2542 -0.2192
 1008YOPC   GL111547  11.495   3.228   6.261  0.4466  0.3115  0.1245
 1008YOPC   GL211548  11.182   3.153   6.341  0.0507  0.0405 -0.0457
 1008YOPC   C1A11549  11.654   3.188   6.608  0.1233  0.5736  0.0442
 1008YOPC   D2A11550  11.329   3.073   6.960  0.0907 -0.1986 -0.1390
 1008YOPC   C3A11551  11.307   3.183   7.303  0.2828  0.0374 -0.0195
 1008YOPC   C4A11552  11.267   3.323   7.646 -0.0503 -0.0980 -0.0036
 1008YOPC   C1B11553  11.236   3.430   6.626  0.4027 -0.1543  0.4261
 1008YOPC   C2B11554  11.190   3.580   7.103  0.0325  0.0816  0.0269
 1008YOPC   D3B11555  11.185   3.822   7.489  0.0816  0.0504  0.1346
 1008YOPC   C4B11556  11.171   3.794   7.972  0.1818  0.2106  0.1075
 1009YOPC   NC311557  13.955  14.983   6.647 -0.2326  0.0708  0.2152
 1009YOPC   PO411558  14.234  15.382   6.686 -0.2070 -0.1726  0.0434
 1009YOPC   GL111559  14.362  15.515   7.055  0.1720 -0.0834 -0.0331
 1009YOPC   GL211560  14.364  15.781   7.188  0.3606  0.0945  0.2022
 1009YOPC   C1A11561  14.500  15.291   7.351  0.2949  0.1935 -0.1872
 1009YOPC   D2A11562  14.575  15.192   7.800 -0.1351 -0.2953 -0.1369
 1009YOPC   C3A11563  14.516  15.450   8.124  0.4197 -0.1738 -0.0690
 1009YOPC   C4A11564  14.680  15.458   8.577 -0.1421 -0.1051 -0.2515
 1009YOPC   C1B11565  14.559  16.088   7.501 -0.1990  0.1713 -0.0174
 1009YOPC   C2B11566  14.541  16.159   7.881  0.2624  0.0597 -0.0709
 1009YOPC   D3B11567  14.405  15.918   8.206 -0.0191 -0.0030  0.1829
 1009YOPC   C4B11568  14.009  15.624   8.374 -0.0459  0.3761  0.0541
 1010YOPC   NC311569   1.120   6.745   6.250 -0.1184  0.0880  0.0307
 1010YOPC   PO411570   0.620   6.803   6.294  0.1219  0.0741 -0.0756
 1010YOPC   GL111571   0.609   6.565   6.618  0.3148  0.0492 -0.1347
 1010YOPC   GL211572   0.964   6.594   6.730  0.0997 -0.3335  0.1108
 1010YOPC   C1A11573   0.406   6.405   7.070 -0.1520  0.0705  0.0300
 1010YOPC   D2A11574   0.405   6.543   7.423  0.4394 -0.0959 -0.2580
 1010YOPC   C3A11575   0.698   6.442   7.751  0.1053 -0.0334 -0.3404
 1010YOPC   C4A11576   0.594   6.169   8.180  0.2114  0.1836  0.2610
 1010YOPC   C1B11577   0.889   6.506   7.248  0.0880 -0.3397 -0.3682
 1010YOPC   C2B11578   1.141   6.662   7.682 -0.3257  0.2150 -0.0228
 1010YOPC   D3B11579   0.926   6.602   8.136 -0.2282  0.0036  0.0889
 1010YOPC   C4B11580   0.972   6.725   8.599  0.1749 -0.0433 -0.2834
 1011YOPC   NC311581  14.284   9.947   6.538 -0.0965 -0.2367 -0.1767
 1011YOPC   PO411582  14.685   9.926   6.847 -0.0939  0.0384 -0.2014
 1011YOPC   GL111583  14.642   9.859   7.253 -0.5026 -0.0303  0.2059
 1011YOPC   GL211584  14.379   9.757   7.343 -0.0495 -0.3674  0.1091
 1011YOPC   C1A11585  14.904   9.830   7.555  0.0340  0.0415  0.0803
 1011YOPC   D2A11586  15.010   9.815   8.020  0.0175  0.3112  0.0498
 1011YOPC   C3A11587  15.001   9.619   8.358  0.0050 -0.0692 -0.3458
 1011YOPC   C4A11588  15.081   9.362   8.776 -0.1454 -0.1231  0.1927
 1011YOPC   C1B11589  14.489   9.817   7.761  0.1903  0.2031  0.1085
 1011YOPC   C2B11590  14.553   9.818   8.163  0.0163 -0.4956 -0.0350
 1011YOPC   D3B11591  14.334  10.157   8.431 -0.0413  0.1028 -0.0394
 1011YOPC   C4B11592  14.059  10.156   8.880 -0.1354  0.0480 -0.3269
 1012YOPC   NC311593   5.617   8.210   6.633 -0.1793  0.3725  0.0721
 1012YOPC   PO411594   6.043   8.203   6.580 -0.1416 -0.3683  0.2593
 1012YOPC   GL111595   5.965   8.330   7.052 -0.0629  0.2235 -0.0785
 1012YOPC   GL211596   5.582   8.270   7.173  0.0492  0.1043 -0.1223
 1012YOPC   C1A11597   6.042   8.291   7.476 -0.0933  0.1030  0.1462
 1012YOPC   D2A11598   5.934   8.080   7.908  0.0353 -0.2649  0.1354
 1012YOPC   C3A11599   6.194   7.930   8.224  0.4446 -0.2653  0.2154
 1012YOPC   C4A11600   6.513   7.721   8.403  0.1392  0.1978 -0.2344
 1012YOPC   C1B11601   5.471   8.070   7.476  0.0142 -0.3032 -0.1865
 1012YOPC   C2B11602   5.377   7.950   7.848 -0.3254  0.0315  0.0343
 1012YOPC   D3B11603   5.649   7.732   8.154  0.1576 -0.1661  0.1016
 1012YOPC   C4B11604   5.957   7.543   8.418  0.1078  0.3090  0.0276
 1013YOPC   NC311605   5.475  14.146   6.232 -0.2899 -0.0976 -0.0232
 1013YOPC   PO411606   5.855  14.154   6.620  0.0151  0.0300  0.1202
 1013YOPC   GL111607   5.789  14.159   6.984  0.0380 -0.2935  0.1243
 1013YOPC   GL211608   5.855  13.901   7.075 -0.1326 -0.0591 -0.0049
 1013YOPC   C1A11609   5.624  14.332   7.343  0.3018 -0.0749  0.0085
 1013YOPC   D2A11610   5.483  14.348   7.740  0.1294 -0.1355 -0.2548
 1013YOPC   C3A11611   5.271  14.422   7.978  0.3309 -0.2234 -0.1047
 1013YOPC   C4A11612   4.905  14.471   8.205  0.0700 -0.1360  0.0093
 1013YOPC   C1B11613   5.761  13.868   7.484 -0.0756  0.0170  0.0284
 1013YOPC   C2B11614   5.654  13.802   7.899  0.0269  0.0451  0.1650
 1013YOPC   D3B11615   5.231  13.874   8.088 -0.1094  0.0705  0.0177
 1013YOPC   C4B11616   4.865  13.917   8.134 -0.1495  0.1277  0.1218
 1014YOPC   NC311617  11.407   4.562   5.903  0.1291  0.0126 -0.0006
 1014YOPC   PO411618  11.020   4.781   5.899 -0.0970  0.2699  0.1481
 1014YOPC   GL111619  11.214   4.806   6.342  0.0172  0.3440  0.2713
 1014YOPC   GL211620  11.044   4.465   6.315  0.0526 -0.0200  0.2791
 1014YOPC   C1A11621  11.413   4.606   6.721  0.0512  0.2152 -0.2874
 1014YOPC   D2A11622  11.743   4.749   6.916  0.1028  0.1520 -0.0132
 1014YOPC   C3A11623  11.753   5.055   7.142 -0.0650 -0.1132  0.0009
 1014YOPC   C4A11624  11.661   5.374   7.071 -0.1227  0.0234 -0.1709
 1014YOPC   C1B11625  10.748   4.315   6.581  0.1257 -0.1851  0.1115
 1014YOPC   C2B11626  10.383   4.115   6.616  0.2404 -0.0514  0.2401
 1014YOPC   D3B11627  10.287   3.729   6.655  0.0314  0.2325  0.0798
 1014YOPC   C4B11628   9.924   3.474   6.489 -0.0928  0.0385  0.2712
 1015YOPC   NC311629   1.809   8.283   6.323 -0.3001  0.0618 -0.3271
 1015YOPC   PO411630   1.887   7.756   6.249 -0.1226  0.0744  0.0751
 1015YOPC   GL111631   2.036   7.880   6.599  0.4315  0.0272 -0.1125
 1015YOPC   GL211632   1.828   8.005   6.773  0.1260 -0.0382 -0.2449
 1015YOPC   C1A11633   2.285   7.780   7.022 -0.1585  0.2279  0.3153
 1015YOPC   D2A11634   2.395   7.736   7.488 -0.4150 -0.1403 -0.2463
 1015YOPC   C3A11635   2.284   7.649   7.848 -0.0251 -0.0633  0.1497
 1015YOPC   C4A11636   2.458   7.605   8.261 -0.0486  0.1509  0.1571
 1015YOPC   C1B11637   1.849   7.989   7.247 -0.0440  0.0407 -0.0970
 1015YOPC   C2B11638   1.928   7.971   7.708 -0.0003  0.1524 -0.1497
 1015YOPC   D3B11639   1.857   7.937   8.180 -0.0440  0.2231  0.0156
 1015YOPC   C4B11640   1.477   7.847   8.375  0.1030  0.0180  0.0961
 1016YOPC   NC311641  15.101   0.514   5.712 -0.1397  0.0365  0.0566
 1016YOPC   PO411642  15.213   0.655   6.111  0.2401  0.4583  0.1183
 1016YOPC   GL111643  15.429   0.673   6.520 -0.1274  0.0758  0.2124
 1016YOPC   GL211644  15.435   0.931   6.537 -0.0054 -0.2407 -0.0173
 1016YOPC   C1A11645  15.636   0.504   6.951 -0.0462 -0.1106 -0.2401
 1016YOPC   D2A11646  15.455   0.452   7.314 -0.3877  0.0800  0.2128
 1016YOPC   C3A11647  15.556   0.309   7.671 -0.0802  0.4151  0.2183
 1016YOPC   C4A11648  15.552   0.346   8.134 -0.0984 -0.0374  0.4841
 1016YOPC   C1B11649  15.317   0.895   7.040  0.1737  0.0916  0.2246
 1016YOPC   C2B11650  15.331   0.998   7.498  0.0386 -0.2543 -0.0594
 1016YOPC   D3B11651  15.202   1.185   7.759  0.1972 -0.0921 -0.0670
 1016YOPC   C4B11652  15.005   1.392   8.098  0.0637 -0.0236 -0.2549
 1017YOPC   NC311653   6.351   5.846   5.994 -0.0642 -0.1579  0.1769
 1017YOPC   PO411654   5.979   5.896   6.240 -0.0734  0.0661  0.1690
 1017YOPC   GL111655   6.272   5.684   6.543 -0.1729  0.2196  0.0473
 1017YOPC   GL211656   6.535   5.550   6.402 -0.0511  0.1093  0.1923
 1017YOPC   C1A11657   6.457   5.459   6.880 -0.4617 -0.1003 -0.0492
 1017YOPC   D2A11658   6.400   5.143   7.069 -0.3687  0.1252 -0.1581
 1017YOPC   C3A11659   6.329   5.029   7.422 -0.2915 -0.0678  0.0935
 1017YOPC   C4A11660   6.343   4.892   7.818 -0.0261  0.1310  0.2246
 1017YOPC   C1B11661   6.392   5.153   6.450 -0.2355  0.0949  0.2379
 1017YOPC   C2B11662   6.146   4.856   6.657 -0.1725 -0.0298 -0.2259
 1017YOPC   D3B11663   6.151   4.759   7.069 -0.0100  0.2091 -0.1521
 1017YOPC   C4B11664   6.280   4.531   7.454 -0.1617  0.0819 -0.3988
 1018YOPC   NC311665   0.902  10.629   5.682 -0.1897 -0.2809  0.3579
 1018YOPC   PO411666   1.203  10.722   6.010 -0.0203 -0.1610  0.0551
 1018YOPC   GL111667   1.031  10.837   6.383  0.1015 -0.0927 -0.1333
 1018YOPC   GL211668   1.388  10.963   6.441 -0.2006  0.1579  0.0751
 1018YOPC   C1A11669   1.042  11.035   6.806 -0.0369  0.1044 -0.1872
 1018YOPC   D2A11670   1.390  11.190   6.961  0.1097 -0.1845  0.2726
 1018YOPC   C3A11671   1.742  11.403   6.970 -0.2158  0.0554 -0.0334
 1018YOPC   C4A11672   1.863  11.285   6.553 -0.0416  0.2305  0.0507
 1018YOPC   C1B11673   1.457  10.759   6.707  0.0213 -0.1342  0.1986
 1018YOPC   C2B11674   1.589  10.358   6.864 -0.0257 -0.0565  0.2098
 1018YOPC   D3B11675   1.677  10.381   7.277 -0.1187 -0.3618 -0.0249
 1018YOPC   C4B11676   1.733  10.523   7.587  0.0856 -0.1199  0.2214
 1019YOPC   NC311677   8.052   5.245   5.728 -0.1938  0.0010 -0.2165
 1019YOPC   PO411678   8.442   5.127   5.828  0.0755  0.1176 -0.1071
 1019YOPC   GL111679   8.345   4.779   6.059  0.1964  0.0158  0.4830
 1019YOPC   GL211680   8.090   4.775   5.955 -0.1379  0.2314  0.1782
 1019YOPC   C1A11681   8.156   4.947   6.466 -0.0879  0.0323 -0.0797
 1019YOPC   D2A11682   7.963   4.975   6.859  0.0694  0.0561  0.3089
 1019YOPC   C3A11683   8.108   5.071   7.223  0.2802  0.1108  0.3262
 1019YOPC   C4A11684   8.225   5.139   7.586  0.2822 -0.1540 -0.0656
 1019YOPC   C1B11685   7.782   4.667   6.389  0.1204 -0.1153  0.0718
 1019YOPC   C2B11686   7.591   4.639   6.776  0.0107 -0.0894  0.1845
 1019YOPC   D3B11687   7.682   4.643   7.207 -0.0193 -0.0882 -0.0065
 1019YOPC   C4B11688   7.810   4.354   7.540 -0.0028  0.0305  0.0824
 1020YOPC   NC311689   5.133   1.893   5.866  0.2048 -0.1982  0.0822
 1020YOPC   PO411690   5.272   2.460   5.885 -0.1811 -0.0227  0.4120
 1020YOPC   GL111691   5.475   2.601   6.204  0.1568  0.0845  0.0839
 1020YOPC   GL211692   5.373   2.910   6.295  0.2128 -0.1094 -0.1280
 1020YOPC   C1A11693   5.616   2.571   6.580  0.0965  0.2244  0.1828
 1020YOPC   D2A11694   5.529   2.581   7.036  0.2530  0.3202 -0.1433
 1020YOPC   C3A11695   5.398   2.680   7.485 -0.0064  0.1502 -0.0453
 1020YOPC   C4A11696   5.399   2.602   7.942  0.2063  0.1365  0.0223
 1020YOPC   C1B11697   5.134   2.605   6.590  0.2468 -0.0525  0.1038
 1020YOPC   C2B11698   4.967   2.435   6.898  0.0013  0.0702 -0.2616
 1020YOPC   D3B11699   5.091   2.320   7.305 -0.2325 -0.1614 -0.0416
 1020YOPC   C4B11700   4.979   2.269   7.774  0.1621  0.3420  0.0657
 1021YOPC   NC311701  13.870   4.096   5.928 -0.2892  0.0255  0.1763
 1021YOPC   PO411702  14.287   4.176   6.059 -0.0422 -0.1957 -0.0960
 1021YOPC   GL111703  14.270   4.200   6.483 -0.0208 -0.2555  0.0494
 1021YOPC   GL211704  14.104   4.007   6.692 -0.2343 -0.2582 -0.2421
 1021YOPC   C1A11705  14.409   4.320   6.919 -0.1085  0.0161  0.4050
 1021YOPC   D2A11706  14.321   4.408   7.369 -0.0518 -0.1901 -0.1503
 1021YOPC   C3A11707  14.516   4.387   7.802 -0.1946  0.2679  0.2003
 1021YOPC   C4A11708  14.829   4.573   7.923 -0.2095 -0.2325 -0.0239
 1021YOPC   C1B11709  13.980   4.145   7.071  0.1010 -0.0358 -0.0813
 1021YOPC   C2B11710  13.750   4.223   7.453 -0.0648  0.2716  0.0316
 1021YOPC   D3B11711  13.946   4.373   7.813 -0.1726  0.4075  0.2844
 1021YOPC   C4B11712  13.951   4.467   8.233 -0.1576 -0.0553  0.2820
 1022YOPC   NC311713  16.516   8.781   6.447  0.0404 -0.2328 -0.0565
 1022YOPC   PO411714  16.742   9.215   6.285  0.1936  0.0409  0.1787
 1022YOPC   GL111715  16.950   9.084   6.664 -0.2483  0.1944  0.1018
 1022YOPC   GL211716  17.191   8.762   6.741  0.1335  0.1777 -0.1289
 1022YOPC   C1A11717  17.159   9.201   7.127 -0.2679  0.0611  0.0575
 1022YOPC   D2A11718  17.540   9.204   7.345 -0.2022 -0.2581 -0.3973
 1022YOPC   C3A11719  17.577   9.019   7.708 -0.0995  0.0141  0.2580
 1022YOPC   C4A11720  17.466   8.705   7.988 -0.1882 -0.0814  0.3281
 1022YOPC   C1B11721  17.540   8.881   6.978  0.3235 -0.2950  0.0718
 1022YOPC   C2B11722  17.674   8.652   7.319 -0.0107  0.2449 -0.0250
 1022YOPC   D3B11723  17.814   8.615   7.735 -0.2234  0.2661  0.2354
 1022YOPC   C4B11724  17.948   8.717   8.139  0.1938 -0.4118  0.2016
 1023YOPC   NC311725  11.149  16.009   6.840 -0.1591 -0.1288  0.1732
 1023YOPC   PO411726  11.572  16.097   6.875 -0.0180  0.1142  0.3960
 1023YOPC   GL111727  11.494  15.983   7.304 -0.0692  0.2215 -0.1272
 1023YOPC   GL211728  11.512  15.677   7.351  0.1292  0.2834 -0.2492
 1023YOPC   C1A11729  11.447  16.152   7.703 -0.1174 -0.0985  0.0837
 1023YOPC   D2A11730  11.408  16.211   8.054  0.0115 -0.0241  0.1994
 1023YOPC   C3A11731  11.554  16.489   8.349 -0.1735 -0.0957 -0.1551
 1023YOPC   C4A11732  11.559  16.397   8.798  0.0576 -0.0351  0.2819
 1023YOPC   C1B11733  11.477  15.673   7.756 -0.0236 -0.0034 -0.0866
 1023YOPC   C2B11734  11.499  15.749   8.162  0.1580 -0.0945 -0.4681
 1023YOPC   D3B11735  11.633  15.525   8.497  0.3664 -0.1351  0.1621
 1023YOPC   C4B11736  11.854  15.563   8.856  0.1469 -0.1409 -0.0767
 1024YOPC   NC311737   4.160   0.550   5.604  0.1891 -0.2175  0.0857
 1024YOPC   PO411738   4.203   0.891   5.690 -0.1105 -0.3257 -0.3161
 1024YOPC   GL111739   4.154   0.671   6.093  0.0239 -0.1066 -0.0384
 1024YOPC   GL211740   4.352   0.530   6.150 -0.2713  0.0502 -0.0805
 1024YOPC   C1A11741   3.907   0.758   6.423  0.2388 -0.1486 -0.1634
 1024YOPC   D2A11742   3.599   0.704   6.731 -0.3896 -0.0130  0.2570
 1024YOPC   C3A11743   3.710   0.869   7.229 -0.0231  0.0734  0.0296
 1024YOPC   C4A11744   3.829   0.934   7.610 -0.0692 -0.3178  0.1750
 1024YOPC   C1B11745   4.297   0.419   6.557 -0.0444  0.1019  0.1518
 1024YOPC   C2B11746   4.085   0.595   6.902 -0.2466  0.2109  0.0797
 1024YOPC   D3B11747   4.053   0.561   7.395  0.2632  0.1982  0.3529
 1024YOPC   C4B11748   4.248   0.398   7.745 -0.1322  0.0556 -0.0992
 1025YOPC   NC311749  16.429   0.346   6.281  0.0346 -0.1523 -0.1264
 1025YOPC   PO411750  16.228   0.711   6.203 -0.0875 -0.1156  0.2304
 1025YOPC   GL111751  15.908   0.758   6.597  0.0752 -0.0294  0.0547
 1025YOPC   GL211752  15.892   1.062   6.806 -0.0099  0.2040 -0.0653
 1025YOPC   C1A11753  16.105   0.664   7.054 -0.3006 -0.3509  0.2673
 1025YOPC   D2A11754  16.445   0.479   7.179  0.0815  0.1363 -0.2815
 1025YOPC   C3A11755  16.797   0.588   7.407  0.1900  0.0287  0.1376
 1025YOPC   C4A11756  17.134   0.573   7.678 -0.0845  0.1288 -0.0433
 1025YOPC   C1B11757  15.783   0.942   7.267 -0.1206  0.1006 -0.1571
 1025YOPC   C2B11758  15.800   0.695   7.624  0.1194 -0.0730  0.2412
 1025YOPC   D3B11759  15.522   0.801   7.914  0.3185 -0.0173 -0.0602
 1025YOPC   C4B11760  15.127   0.784   8.174 -0.2054 -0.2520  0.0344
 1026YOPC   NC311761  15.778  12.311   6.445  0.3011 -0.1378  0.3185
 1026YOPC   PO411762  15.432  12.462   6.794 -0.1695  0.1514 -0.0651
 1026YOPC   GL111763  15.597  12.525   7.204 -0.2473 -0.4585  0.0363
 1026YOPC   GL211764  15.980  12.648   7.209 -0.0352  0.0587  0.0182
 1026YOPC   C1A11765  15.616  12.450   7.619 -0.0274  0.3260  0.1878
 1026YOPC   D2A11766  15.850  12.366   8.007 -0.2466 -0.1348 -0.0479
 1026YOPC   C3A11767  15.948  12.581   8.359  0.2564 -0.1601  0.2731
 1026YOPC   C4A11768  16.177  12.538   8.729  0.2181  0.1785 -0.2008
 1026YOPC   C1B11769  16.234  12.624   7.529  0.0182  0.1565  0.0331
 1026YOPC   C2B11770  16.339  12.467   7.857  0.1941 -0.1799 -0.1453
 1026YOPC   D3B11771  16.362  12.697   8.253 -0.1407 -0.1458  0.1580
 1026YOPC   C4B11772  16.516  12.921   8.620 -0.1655  0.0548  0.2475
 1027YOPC   NC311773  17.056   8.160   6.056  0.0211  0.1560 -0.1393
 1027YOPC   PO411774  16.698   8.303   6.350  0.1769  0.0601  0.2620
 1027YOPC   GL111775  16.761   8.276   6.760 -0.0091 -0.1443  0.1426
 1027YOPC   GL211776  16.719   8.549   6.855 -0.1007  0.2282  0.3097
 1027YOPC   C1A11777  16.868   8.003   7.175 -0.2857  0.0755 -0.0031
 1027YOPC   D2A11778  17.061   7.920   7.558 -0.0450 -0.2291  0.0434
 1027YOPC   C3A11779  17.280   8.305   7.608  0.1284  0.4467  0.0256
 1027YOPC   C4A11780  17.219   8.718   7.559  0.3364 -0.1398 -0.0157
 1027YOPC   C1B11781  17.042   8.481   7.128 -0.0333  0.0375 -0.0575
 1027YOPC   C2B11782  17.415   8.101   7.174 -0.1455  0.2260 -0.0883
 1027YOPC   D3B11783  17.227   7.716   7.157  0.1351 -0.1598  0.3072
 1027YOPC   C4B11784  16.818   7.468   7.271  0.0402  0.0513 -0.0070
 1028YOPC   NC311785   1.364  14.949   5.648 -0.1545 -0.1291 -0.1046
 1028YOPC   PO411786   1.043  15.298   5.766 -0.0504 -0.1270 -0.0325
 1028YOPC   GL111787   1.081  15.453   6.099  0.0308 -0.0454 -0.1180
 1028YOPC   GL211788   0.778  15.619   6.116 -0.0738  0.0041 -0.0511
 1028YOPC   C1A11789   1.197  15.418   6.547  0.0254 -0.1943  0.3342
 1028YOPC   D2A11790   1.392  15.501   6.864 -0.2828  0.0385  0.1654
 1028YOPC   C3A11791   1.839  15.535   6.766 -0.2516 -0.3809 -0.1549
 1028YOPC   C4A11792   1.986  15.644   6.290  0.0264  0.0358 -0.4076
 1028YOPC   C1B11793   0.852  15.811   6.532 -0.1053  0.0728  0.1790
 1028YOPC   C2B11794   0.961  15.620   7.002 -0.1973  0.2273  0.0092
 1028YOPC   D3B11795   1.239  15.624   7.305 -0.0556 -0.0460  0.0111
 1028YOPC   C4B11796   1.325  15.791   7.670  0.2248 -0.2352  0.0167
 1029YOPC   NC311797   8.576   6.126   5.877  0.1046  0.0186  0.1175
 1029YOPC   PO411798   8.310   6.322   6.229 -0.2831  0.0608  0.2172
 1029YOPC   GL111799   8.397   6.296   6.639  0.0280 -0.1422 -0.3344
 1029YOPC   GL211800   8.669   6.356   6.664 -0.2866  0.0734  0.1649
 1029YOPC   C1A11801   8.411   6.609   7.016 -0.1901 -0.3980  0.2748
 1029YOPC   D2A11802   8.460   6.665   7.368  0.0112 -0.0702  0.1328
 1029YOPC   C3A11803   8.146   6.505   7.659 -0.0109 -0.0670 -0.0154
 1029YOPC   C4A11804   8.195   6.295   7.940  0.5008  0.2250 -0.2081
 1029YOPC   C1B11805   8.800   6.270   7.027  0.2926  0.0957 -0.2201
 1029YOPC   C2B11806   8.780   6.339   7.482  0.2439  0.1178  0.2377
 1029YOPC   D3B11807   8.759   6.016   7.765  0.1581  0.1666  0.0567
 1029YOPC   C4B11808   8.631   5.835   8.128  0.1140 -0.1244 -0.0595
 1030YOPC   NC311809   7.020  12.026   6.620 -0.1728 -0.0257 -0.2316
 1030YOPC   PO411810   6.764  11.643   6.733  0.0009 -0.1474 -0.0371
 1030YOPC   GL111811   6.758  11.731   7.149  0.2239 -0.0677  0.1038
 1030YOPC   GL211812   6.792  12.041   7.063  0.3356 -0.1464  0.2365
 1030YOPC   C1A11813   6.757  11.749   7.628 -0.1040 -0.2188  0.0263
 1030YOPC   D2A11814   6.709  11.875   7.929 -0.4507 -0.0832  0.0849
 1030YOPC   C3A11815   6.733  11.835   8.332 -0.3024  0.0794  0.1920
 1030YOPC   C4A11816   6.501  11.755   8.614 -0.3673 -0.0356 -0.0408
 1030YOPC   C1B11817   6.835  12.155   7.440 -0.1882 -0.1708  0.2462
 1030YOPC   C2B11818   7.021  12.472   7.665  0.0444 -0.1607  0.2108
 1030YOPC   D3B11819   6.924  12.302   8.118 -0.0825  0.1924 -0.1487
 1030YOPC   C4B11820   6.982  12.255   8.619  0.2512  0.3093  0.1767
 1031YOPC   NC311821  17.476   3.336   5.977 -0.1356 -0.2315 -0.2168
 1031YOPC   PO411822  16.951   3.372   6.016 -0.2250 -0.0952  0.1597
 1031YOPC   GL111823  17.220   3.374   6.408 -0.2554  0.0565 -0.2890
 1031YOPC   GL211824  17.465   3.583   6.462  0.0085  0.0921  0.0608
 1031YOPC   C1A11825  16.989   3.456   6.786 -0.0172 -0.1651 -0.0292
 1031YOPC   D2A11826  16.786   3.422   7.169 -0.2111 -0.2519 -0.1796
 1031YOPC   C3A11827  16.758   3.307   7.550  0.1691 -0.0001  0.2456
 1031YOPC   C4A11828  16.739   3.201   8.009  0.1599 -0.4156 -0.0637
 1031YOPC   C1B11829  17.446   3.651   6.783 -0.1083 -0.1007  0.0420
 1031YOPC   C2B11830  17.569   3.743   7.209 -0.2625  0.1289  0.0272
 1031YOPC   D3B11831  17.269   3.616   7.479  0.0350  0.1943  0.2328
 1031YOPC   C4B11832  17.282   3.394   7.861  0.4432  0.1384  0.1095
 1032YOPC   NC311833   8.113  13.793   6.394 -0.2787  0.2869 -0.0822
 1032YOPC   PO411834   8.302  13.551   6.769  0.3198 -0.0675  0.0948
 1032YOPC   GL111835   8.340  13.548   7.202 -0.1194  0.1285 -0.0575
 1032YOPC   GL211836   8.529  13.554   7.326 -0.1491  0.0704 -0.0605
 1032YOPC   C1A11837   8.042  13.716   7.526  0.1344  0.1452  0.2134
 1032YOPC   D2A11838   7.876  13.810   7.942  0.2223 -0.0231  0.2252
 1032YOPC   C3A11839   7.953  13.651   8.289 -0.2281 -0.0387 -0.0304
 1032YOPC   C4A11840   7.823  13.532   8.656 -0.0671  0.0727 -0.1229
 1032YOPC   C1B11841   8.473  13.632   7.831 -0.0059 -0.1617 -0.0565
 1032YOPC   C2B11842   8.494  13.668   8.229  0.1597 -0.2274  0.0242
 1032YOPC   D3B11843   8.572  14.011   8.505  0.3889  0.0422  0.3584
 1032YOPC   C4B11844   8.660  14.399   8.386  0.1903 -0.0443  0.1707
 1033YOPC   NC311845  16.273   2.115   6.224 -0.0513  0.0615  0.2704
 1033YOPC   PO411846  16.586   1.949   5.974  0.3351 -0.2577  0.0287
 1033YOPC   GL111847  16.865   2.013   6.310 -0.0745  0.0662 -0.2212
 1033YOPC   GL211848  17.216   2.007   6.237 -0.2508  0.2002  0.1135
 1033YOPC   C1A11849  16.965   1.868   6.761  0.1009  0.0709  0.1179
 1033YOPC   D2A11850  17.128   2.081   7.036 -0.4538  0.2045 -0.0542
 1033YOPC   C3A11851  17.089   1.988   7.461 -0.1460  0.1240 -0.1266
 1033YOPC   C4A11852  17.229   1.991   7.956 -0.1156 -0.0587  0.1131
 1033YOPC   C1B11853  17.456   2.152   6.599  0.0627 -0.4015 -0.2389
 1033YOPC   C2B11854  17.595   2.212   7.036  0.5971 -0.1475  0.0304
 1033YOPC   D3B11855  17.478   2.224   7.315 -0.1589  0.1398 -0.2078
 1033YOPC   C4B11856  17.215   2.376   7.674  0.0524 -0.2595 -0.0626
 1034YOPC   NC311857  15.846   9.726   6.620 -0.2138  0.0895  0.1155
 1034YOPC   PO411858  15.507   9.397   6.512  0.1084 -0.0532  0.1123
 1034YOPC   GL111859  15.670   9.210   7.011  0.1120 -0.1489 -0.1935
 1034YOPC   GL211860  15.789   8.965   7.005  0.0479 -0.1793 -0.2120
 1034YOPC   C1A11861  15.711   9.151   7.502  0.2058 -0.3839 -0.0294
 1034YOPC   D2A11862  15.714   9.043   7.885 -0.0980 -0.0184  0.2267
 1034YOPC   C3A11863  15.677   9.158   8.323  0.0991 -0.1562 -0.2363
 1034YOPC   C4A11864  15.498   9.170   8.686  0.0366  0.3667 -0.1153
 1034YOPC   C1B11865  15.616   8.640   7.350 -0.1139  0.0730  0.0475
 1034YOPC   C2B11866  15.292   8.377   7.600 -0.0297  0.1182 -0.0341
 1034YOPC   D3B11867  15.050   7.953   7.352 -0.2475 -0.1841  0.1204
 1034YOPC   C4B11868  15.037   7.747   7.042  0.1966 -0.2365  0.0720
 1035YOPC   NC311869   6.507  11.370   6.341 -0.2349  0.3166  0.1433
 1035YOPC   PO411870   6.097  11.630   6.418  0.0274  0.2263 -0.0058
 1035YOPC   GL111871   6.009  11.555   6.813  0.5616  0.1033  0.0161
 1035YOPC   GL211872   5.824  11.736   6.860  0.0776 -0.1920  0.1050
 1035YOPC   C1A11873   6.000  11.420   7.202  0.2807 -0.0332 -0.0349
 1035YOPC   D2A11874   5.952  11.412   7.620 -0.0376 -0.0737 -0.0367
 1035YOPC   C3A11875   5.788  11.715   7.890 -0.0001 -0.0770 -0.0834
 1035YOPC   C4A11876   5.838  11.954   8.317  0.0789  0.0584 -0.2447
 1035YOPC   C1B11877   5.765  11.814   7.331  0.0151 -0.0481  0.1316
 1035YOPC   C2B11878   5.593  12.144   7.609  0.1012  0.0979 -0.1102
 1035YOPC   D3B11879   5.759  12.415   7.959  0.3358 -0.0330 -0.0759
 1035YOPC   C4B11880   5.780  12.759   8.144  0.0351 -0.2066  0.5360
 1036YOPC   NC311881   4.373  14.039   5.697 -0.2402  0.1705 -0.4239
 1036YOPC   PO411882   4.348  14.539   5.767  0.1545  0.0308 -0.0042
 1036YOPC   GL111883   4.400  14.834   6.205 -0.2136 -0.3209 -0.0949
 1036YOPC   GL211884   4.671  14.890   6.395  0.3032  0.1685 -0.1710
 1036YOPC   C1A11885   4.158  14.972   6.506 -0.1692 -0.0123 -0.0508
 1036YOPC   D2A11886   4.118  15.042   7.011  0.1262  0.3546  0.0828
 1036YOPC   C3A11887   3.923  14.749   7.329  0.2786  0.0233 -0.1341
 1036YOPC   C4A11888   4.012  14.816   7.753  0.0668 -0.0411  0.0624
 1036YOPC   C1B11889   4.550  15.188   6.720  0.1839  0.1898 -0.2905
 1036YOPC   C2B11890   4.585  15.311   7.123 -0.3133 -0.0040  0.1336
 1036YOPC   D3B11891   4.259  15.214   7.479  0.0489 -0.4317  0.2401
 1036YOPC   C4B11892   4.209  15.226   7.917 -0.0763 -0.0571 -0.0109
 1037YOPC   NC311893   1.386   9.085   6.108 -0.2472  0.0831  0.1344
 1037YOPC   PO411894   1.614   8.629   6.054 -0.1234 -0.0034  0.2241
 1037YOPC   GL111895   1.458   8.632   6.450 -0.1749 -0.0789 -0.0290
 1037YOPC   GL211896   1.122   8.789   6.542 -0.3048  0.0194  0.0403
 1037YOPC   C1A11897   1.402   8.329   6.841  0.2087  0.0173 -0.1152
 1037YOPC   D2A11898   1.401   8.309   7.290 -0.0408  0.2957  0.0345
 1037YOPC   C3A11899   1.160   8.211   7.674 -0.1094 -0.0543  0.0335
 1037YOPC   C4A11900   1.192   8.112   8.062 -0.1602  0.1311 -0.1363
 1037YOPC   C1B11901   1.107   8.768   7.012  0.0190  0.3885  0.0558
 1037YOPC   C2B11902   1.147   8.642   7.471 -0.1630 -0.0896  0.1683
 1037YOPC   D3B11903   1.141   9.002   7.706  0.1119 -0.2225 -0.0398
 1037YOPC   C4B11904   1.021   9.077   8.120  0.1324 -0.0938 -0.2899
 1038YOPC   NC311905   0.288   8.194   5.848  0.2075 -0.2759  0.1235
 1038YOPC   PO411906  -0.013   8.272   6.099  0.1326 -0.1213  0.0939
 1038YOPC   GL111907  -0.120   8.281   6.468 -0.0889 -0.2157  0.2403
 1038YOPC   GL211908  -0.068   7.911   6.642 -0.0290  0.0792 -0.1433
 1038YOPC   C1A11909  -0.293   8.359   6.863  0.2120 -0.3864  0.2817
 1038YOPC   D2A11910  -0.115   8.164   7.240  0.0580  0.0128 -0.1379
 1038YOPC   C3A11911  -0.210   8.088   7.662  0.0661 -0.0064  0.1187
 1038YOPC   C4A11912  -0.379   8.235   8.067  0.0500 -0.1365 -0.3946
 1038YOPC   C1B11913  -0.137   7.695   6.971  0.0085 -0.0670 -0.0870
 1038YOPC   C2B11914  -0.171   7.575   7.359  0.1389  0.1983  0.1990
 1038YOPC   D3B11915  -0.575   7.616   7.637  0.2299  0.1997  0.0973
 1038YOPC   C4B11916  -0.950   7.414   7.727  0.1921  0.0959  0.0179
 1039YOPC   NC311917   2.423   7.863   6.194 -0.0716  0.0984 -0.2295
 1039YOPC   PO411918   2.785   7.715   6.446 -0.0774 -0.0911 -0.0486
 1039YOPC   GL111919   2.520   7.997   6.675  0.0918 -0.1779  0.0182
 1039YOPC   GL211920   2.386   8.202   6.765  0.0886 -0.0622 -0.2201
 1039YOPC   C1A11921   2.691   7.968   7.146  0.1306 -0.0445  0.0539
 1039YOPC   D2A11922   2.862   8.073   7.494 -0.0195 -0.0915  0.1490
 1039YOPC   C3A11923   2.701   7.947   7.902  0.0870  0.0974  0.2015
 1039YOPC   C4A11924   2.754   8.073   8.377 -0.1696 -0.1230  0.0633
 1039YOPC   C1B11925   2.288   8.266   7.306  0.0797  0.0564  0.0314
 1039YOPC   C2B11926   2.389   8.269   7.672  0.1284 -0.1439 -0.0654
 1039YOPC   D3B11927   2.228   8.237   8.087  0.2553  0.2646  0.4079
 1039YOPC   C4B11928   2.009   8.199   8.592 -0.0817 -0.2879 -0.0420
 1040YOPC   NC311929   6.225  12.585   6.520  0.0647 -0.2520 -0.0186
 1040YOPC   PO411930   6.577  12.294   6.579  0.1383 -0.0548  0.0499
 1040YOPC   GL111931   6.557  12.455   6.883 -0.3820 -0.1977  0.2722
 1040YOPC   GL211932   6.870  12.795   7.052  0.0394  0.0833 -0.1019
 1040YOPC   C1A11933   6.426  12.471   7.234 -0.0537  0.3085  0.2249
 1040YOPC   D2A11934   6.491  12.398   7.712  0.4298  0.0515 -0.1008
 1040YOPC   C3A11935   6.288  12.591   8.043 -0.1597 -0.2475  0.1647
 1040YOPC   C4A11936   6.023  12.420   8.485 -0.2610  0.0419 -0.0358
 1040YOPC   C1B11937   6.629  12.816   7.495  0.0023 -0.1942 -0.1674
 1040YOPC   C2B11938   6.751  12.840   7.852 -0.0938  0.3353 -0.0428
 1040YOPC   D3B11939   6.727  12.754   8.290  0.5031  0.0822  0.0650
 1040YOPC   C4B11940   6.577  12.717   8.688 -0.2447  0.1109  0.1249
 1041YOPC   NC311941   2.060   9.465   6.283 -0.1806 -0.0196  0.0027
 1041YOPC   PO411942   1.768   9.556   6.338 -0.2093 -0.3527 -0.4078
 1041YOPC   GL111943   1.996   9.632   6.720 -0.1070 -0.3036  0.0588
 1041YOPC   GL211944   1.956   9.296   6.831  0.0204  0.2564 -0.0960
 1041YOPC   C1A11945   1.803   9.921   7.103  0.1596  0.1177 -0.0808
 1041YOPC   D2A11946   1.678   9.965   7.527 -0.1309 -0.0395 -0.0484
 1041YOPC   C3A11947   1.325   9.855   7.770 -0.1046 -0.2379 -0.0244
 1041YOPC   C4A11948   0.979   9.607   8.021  0.0461  0.0867  0.0633
 1041YOPC   C1B11949   2.016   9.481   7.236  0.1266 -0.0975  0.0656
 1041YOPC   C2B11950   1.835   9.471   7.632  0.0663  0.1171 -0.0194
 1041YOPC   D3B11951   1.983   9.672   7.907  0.0685 -0.0854 -0.1682
 1041YOPC   C4B11952   2.388   9.669   7.987 -0.0302  0.1043  0.5658
 1042YOPC   NC311953   1.038   9.852   6.312  0.0159 -0.2844  0.4714
 1042YOPC   PO411954   0.989   9.297   6.341 -0.2307  0.1523 -0.0019
 1042YOPC   GL111955   0.944   9.286   6.725  0.1429  0.0983  0.0881
 1042YOPC   GL211956   0.960   9.591   6.779  0.3926 -0.2384  0.1141
 1042YOPC   C1A11957   1.002   9.293   7.233  0.5186  0.2501  0.0071
 1042YOPC   D2A11958   0.835   9.398   7.574 -0.0661 -0.2228  0.1020
 1042YOPC   C3A11959   0.650   9.153   7.796 -0.3674 -0.0078 -0.2795
 1042YOPC   C4A11960   0.446   8.877   7.992 -0.1268 -0.1157  0.0386
 1042YOPC   C1B11961   0.833   9.732   7.163  0.2653 -0.0495  0.1476
 1042YOPC   C2B11962   0.876  10.191   7.301 -0.1504  0.0757 -0.0592
 1042YOPC   D3B11963   0.817  10.311   7.809  0.0152  0.1716 -0.1076
 1042YOPC   C4B11964   0.854  10.478   8.226  0.0075 -0.2705 -0.1552
 1043YOPC   NC311965  17.711  15.945   5.860 -0.0855 -0.2251  0.2181
 1043YOPC   PO411966  17.400  15.718   6.051 -0.2116  0.0018  0.1244
 1043YOPC   GL111967  17.578  15.915   6.372 -0.1479  0.1156  0.2318
 1043YOPC   GL211968  17.922  16.040   6.330 -0.0535 -0.2448  0.0179
 1043YOPC   C1A11969  17.723  15.837   6.747  0.0526  0.3088  0.4210
 1043YOPC   D2A11970  17.897  15.757   7.153 -0.1517  0.0814 -0.1904
 1043YOPC   C3A11971  17.775  15.821   7.559 -0.2993 -0.0207  0.1107
 1043YOPC   C4A11972  17.759  16.068   7.891  0.3227 -0.3814 -0.1307
 1043YOPC   C1B11973  18.300  16.038   6.699 -0.1157  0.1802  0.0034
 1043YOPC   C2B11974  18.651  16.069   6.978 -0.1857 -0.1426  0.4082
 1043YOPC   D3B11975  18.350  16.038   7.356  0.1584 -0.1837  0.0489
 1043YOPC   C4B11976  17.989  16.333   7.483  0.1470  0.0232  0.1403
 1044YOPC   NC311977   9.994   7.247   6.282 -0.2175  0.1896 -0.0258
 1044YOPC   PO411978   9.996   7.724   6.424 -0.0423  0.0161  0.0416
 1044YOPC   GL111979  10.293   7.761   6.797 -0.0079  0.0186  0.0019
 1044YOPC   GL211980  10.354   8.036   7.006 -0.3003 -0.0311  0.0221
 1044YOPC   C1A11981  10.390   7.618   7.275  0.3559 -0.1047 -0.0112
 1044YOPC   D2A11982  10.378   7.689   7.635 -0.0754 -0.1027  0.0973
 1044YOPC   C3A11983  10.690   7.744   7.892  0.1458  0.5102 -0.4213
 1044YOPC   C4A11984  10.834   7.704   8.302 -0.0229  0.3583 -0.1494
 1044YOPC   C1B11985  10.606   8.100   7.405  0.1236  0.1542 -0.0806
 1044YOPC   C2B11986  10.768   8.268   7.735  0.2129 -0.2540 -0.1789
 1044YOPC   D3B11987  10.676   8.190   8.098 -0.0839 -0.2787 -0.2055
 1044YOPC   C4B11988  10.627   8.049   8.553  0.5005 -0.2189 -0.2892
 1045YOPC   NC311989   1.159   1.546   5.520 -0.2262  0.0412  0.1075
 1045YOPC   PO411990   1.133   1.936   5.719 -0.2180  0.0779  0.0282
 1045YOPC   GL111991   0.874   2.020   6.102 -0.3470  0.1470 -0.1112
 1045YOPC   GL211992   1.179   1.869   6.217 -0.1319  0.3532  0.0492
 1045YOPC   C1A11993   0.777   2.075   6.468  0.0680 -0.3271 -0.0862
 1045YOPC   D2A11994   0.652   2.072   6.877 -0.2456  0.1750 -0.1970
 1045YOPC   C3A11995   0.514   1.986   7.335  0.3239 -0.3561  0.2638
 1045YOPC   C4A11996   0.834   2.009   7.674  0.0734  0.0216  0.0147
 1045YOPC   C1B11997   1.221   1.937   6.659 -0.2018 -0.1061  0.2362
 1045YOPC   C2B11998   1.427   1.786   6.966  0.1684  0.1727  0.1833
 1045YOPC   D3B11999   1.271   1.422   7.203  0.0582 -0.1509 -0.4367
 1045YOPC   C4B12000   1.077   1.463   7.581 -0.1789 -0.0341  0.5962
 1046YOPC   NC312001   4.815   9.590   5.998  0.3238 -0.1715  0.1592
 1046YOPC   PO412002   5.014   9.799   6.369  0.0038 -0.0781 -0.1254
 1046YOPC   GL112003   4.851   9.842   6.802 -0.0404 -0.0030  0.0805
 1046YOPC   GL212004   5.147   9.852   6.962  0.2060 -0.1082  0.0033
 1046YOPC   C1A12005   4.833  10.011   7.276  0.1105  0.0175  0.1057
 1046YOPC   D2A12006   4.751  10.170   7.717 -0.0446 -0.1057  0.4462
 1046YOPC   C3A12007   4.885  10.103   8.127 -0.1497 -0.0952  0.0446
 1046YOPC   C4A12008   4.849   9.806   8.523 -0.3169 -0.3405 -0.2155
 1046YOPC   C1B12009   5.344   9.874   7.308  0.0609 -0.0281 -0.1981
 1046YOPC   C2B12010   5.333   9.817   7.654 -0.1705  0.2017  0.1883
 1046YOPC   D3B12011   5.279   9.858   7.967  0.2700 -0.2965  0.2182
 1046YOPC   C4B12012   5.250   9.670   8.287  0.0596  0.1065  0.0639
 1047YOPC   NC312013  13.664  11.344   7.084  0.0476 -0.2291  0.1549
 1047YOPC   PO412014  13.205  11.150   6.960 -0.1013  0.1566  0.0413
 1047YOPC   GL112015  13.199  11.307   7.361  0.0804 -0.0327  0.1804
 1047YOPC   GL212016  12.982  11.546   7.450 -0.1341 -0.2203 -0.0866
 1047YOPC   C1A12017  12.951  11.187   7.773 -0.1553 -0.0759 -0.0480
 1047YOPC   D2A12018  12.906  10.902   8.071 -0.0907 -0.0764  0.3315
 1047YOPC   C3A12019  12.833  11.131   8.394  0.2940 -0.1108 -0.2177
 1047YOPC   C4A12020  13.120  11.356   8.657  0.0860 -0.0934 -0.0011
 1047YOPC   C1B12021  12.882  11.633   7.910  0.1496  0.3664  0.0078
 1047YOPC   C2B12022  12.855  11.631   8.327 -0.2603  0.2558  0.0029
 1047YOPC   D3B12023  13.052  11.824   8.700 -0.0563  0.0256 -0.4138
 1047YOPC   C4B12024  13.166  12.040   9.082  0.3200  0.0367 -0.1972
 1048YOPC   NC312025   8.842   3.048   5.767 -0.2664 -0.0303 -0.0372
 1048YOPC   PO412026   8.568   3.424   5.799  0.0296 -0.0284 -0.2657
 1048YOPC   GL112027   8.502   3.589   6.234 -0.0117 -0.0746  0.0987
 1048YOPC   GL212028   8.602   3.935   6.278 -0.0454 -0.2244 -0.0474
 1048YOPC   C1A12029   8.192   3.345   6.400 -0.0535  0.1170  0.1278
 1048YOPC   D2A12030   7.977   2.964   6.398 -0.0628 -0.1261  0.4021
 1048YOPC   C3A12031   8.234   2.820   6.576 -0.1887 -0.2009 -0.1103
 1048YOPC   C4A12032   8.130   2.845   6.915  0.0742  0.0175  0.4138
 1048YOPC   C1B12033   8.705   4.136   6.654  0.0770 -0.1754  0.2728
 1048YOPC   C2B12034   8.638   4.182   7.166  0.0884  0.0795 -0.0130
 1048YOPC   D3B12035   8.694   4.432   7.453 -0.1561  0.0165 -0.2528
 1048YOPC   C4B12036   8.894   4.214   7.793 -0.2643  0.0385 -0.3435
 1049YOPC   NC312037   0.131   4.063   6.119 -0.0497  0.1139 -0.0590
 1049YOPC   PO412038  -0.164   3.708   6.057 -0.1600  0.1504  0.0338
 1049YOPC   GL112039  -0.024   3.715   6.414  0.2062 -0.3423  0.3282
 1049YOPC   GL212040  -0.207   4.014   6.463  0.0441 -0.0537 -0.0721
 1049YOPC   C1A12041  -0.032   3.665   6.886  0.4068 -0.1488 -0.0254
 1049YOPC   D2A12042   0.013   3.571   7.388 -0.0709  0.0041 -0.0426
 1049YOPC   C3A12043  -0.231   3.800   7.696  0.0084 -0.1634 -0.0963
 1049YOPC   C4A12044  -0.151   3.797   8.211  0.2219  0.1056  0.0145
 1049YOPC   C1B12045  -0.387   4.149   6.923 -0.1686 -0.3975  0.1792
 1049YOPC   C2B12046  -0.513   4.342   7.286 -0.1010  0.0726  0.0708
 1049YOPC   D3B12047  -0.621   4.073   7.624  0.1314  0.3828  0.0528
 1049YOPC   C4B12048  -0.549   4.041   7.985 -0.2701  0.1999  0.1939
 1050YOPC   NC312049  15.523  15.571   6.080 -0.1467 -0.0750 -0.0565
 1050YOPC   PO412050  16.012  15.750   6.130  0.0693  0.0604  0.1433
 1050YOPC   GL112051  16.044  15.612   6.492  0.0287  0.1034  0.1791
 1050YOPC   GL212052  16.064  15.796   6.772  0.0552 -0.0672  0.0210
 1050YOPC   C1A12053  15.929  15.317   6.933 -0.1108  0.1001 -0.0368
 1050YOPC   D2A12054  15.932  15.301   7.357 -0.0034  0.3042  0.2253
 1050YOPC   C3A12055  16.232  15.406   7.572 -0.0167  0.3943  0.0087
 1050YOPC   C4A12056  16.317  15.336   7.928 -0.0666 -0.0375  0.0379
 1050YOPC   C1B12057  16.240  15.688   7.134 -0.0116 -0.1988  0.1218
 1050YOPC   C2B12058  16.581  15.776   7.386  0.0907 -0.3140 -0.1265
 1050YOPC   D3B12059  16.364  15.868   7.816 -0.2077  0.0160 -0.3333
 1050YOPC   C4B12060  16.329  15.760   8.209 -0.1573  0.3476  0.0200
 1051YOPC   NC312061   2.039  16.443   5.654  0.1902 -0.2489 -0.0803
 1051YOPC   PO412062   1.909  16.849   5.593  0.0201 -0.1333  0.0189
 1051YOPC   GL112063   1.666  16.744   5.978 -0.3003 -0.0709 -0.0196
 1051YOPC   GL212064   1.805  17.068   6.060  0.0185  0.0611 -0.4466
 1051YOPC   C1A12065   1.375  16.727   6.384 -0.0828 -0.1983 -0.1423
 1051YOPC   D2A12066   1.312  16.856   6.850  0.2055 -0.1223  0.3115
 1051YOPC   C3A12067   1.325  16.625   7.223 -0.1979 -0.1855  0.0131
 1051YOPC   C4A12068   1.587  16.624   7.617  0.3103  0.0883 -0.1793
 1051YOPC   C1B12069   1.655  17.241   6.435 -0.0504 -0.2728  0.0878
 1051YOPC   C2B12070   1.680  17.286   6.906  0.0399 -0.2684  0.1342
 1051YOPC   D3B12071   1.634  17.087   7.250 -0.1391  0.1203 -0.0235
 1051YOPC   C4B12072   1.791  17.228   7.618  0.1475  0.1177  0.1392
 1052YOPC   NC312073  17.378  11.380   6.187 -0.0293  0.3528 -0.0520
 1052YOPC   PO412074  17.751  11.415   6.105 -0.1809 -0.2066 -0.1975
 1052YOPC   GL112075  18.078  11.542   6.415 -0.2171 -0.0927 -0.0102
 1052YOPC   GL212076  18.252  11.212   6.595 -0.3119 -0.0591 -0.0511
 1052YOPC   C1A12077  18.170  11.636   6.876  0.0067 -0.0589 -0.3994
 1052YOPC   D2A12078  18.174  11.831   7.295  0.0292 -0.0320 -0.0279
 1052YOPC   C3A12079  18.277  12.253   7.272  0.2626 -0.2443 -0.1686
 1052YOPC   C4A12080  18.427  12.582   6.928 -0.0148 -0.0929  0.2789
 1052YOPC   C1B12081  18.551  11.252   6.832 -0.0532  0.0381  0.0219
 1052YOPC   C2B12082  18.867  11.288   7.176 -0.0921 -0.3170  0.2749
 1052YOPC   D3B12083  18.814  11.289   7.597  0.6758 -0.1478  0.3626
 1052YOPC   C4B12084  18.747  11.620   7.990 -0.0594 -0.0263 -0.2284
 1053YOPC   NC312085   9.502   7.878   6.489 -0.0929 -0.0807 -0.1188
 1053YOPC   PO412086   9.815   8.224   6.309 -0.1553  0.1081 -0.2537
 1053YOPC   GL112087   9.750   8.199   6.827  0.0155 -0.1281  0.2227
 1053YOPC   GL212088   9.773   7.873   6.918 -0.2843 -0.2265  0.1898
 1053YOPC   C1A12089   9.664   8.196   7.322 -0.0494  0.0142  0.3180
 1053YOPC   D2A12090   9.532   8.386   7.798  0.0633 -0.0490 -0.0885
 1053YOPC   C3A12091   9.690   8.197   8.189  0.1952  0.1323 -0.0977
 1053YOPC   C4A12092   9.735   7.748   8.267  0.0428  0.1971 -0.0375
 1053YOPC   C1B12093   9.943   7.799   7.323  0.0201  0.0960 -0.2475
 1053YOPC   C2B12094   9.711   7.873   7.670  0.1944  0.1608  0.0171
 1053YOPC   D3B12095   9.477   7.691   7.864  0.3220  0.2779  0.0645
 1053YOPC   C4B12096   9.540   7.265   8.071 -0.0715 -0.0339  0.0701
 1054YOPC   NC312097  13.011  14.868   6.248 -0.1197  0.0003  0.0052
 1054YOPC   PO412098  13.480  14.895   6.411  0.3415 -0.2503 -0.2869
 1054YOPC   GL112099  13.553  14.904   6.956  0.0967  0.0673  0.1991
 1054YOPC   GL212100  13.338  15.067   7.145  0.4164 -0.3083  0.0443
 1054YOPC   C1A12101  13.768  14.904   7.380  0.4060 -0.1356  0.2323
 1054YOPC   D2A12102  14.207  14.956   7.542  0.1869 -0.2321 -0.0730
 1054YOPC   C3A12103  14.200  15.002   8.110 -0.1429 -0.0823  0.1760
 1054YOPC   C4A12104  14.374  15.005   8.460 -0.0360  0.0723 -0.0877
 1054YOPC   C1B12105  13.322  15.160   7.607  0.1156  0.0227  0.0470
 1054YOPC   C2B12106  13.212  15.593   7.734  0.1303 -0.0412 -0.0773
 1054YOPC   D3B12107  13.411  15.833   8.003  0.0260  0.0002  0.0102
 1054YOPC   C4B12108  13.266  16.038   8.252  0.0697  0.1089  0.2171
 1055YOPC   NC312109   6.109  16.806   5.989 -0.0289 -0.2885 -0.0901
 1055YOPC   PO412110   5.911  16.346   5.842 -0.0641  0.2663  0.0951
 1055YOPC   GL112111   5.948  16.450   6.327  0.0631  0.1521  0.1314
 1055YOPC   GL212112   5.820  16.128   6.486  0.3498  0.1488 -0.1256
 1055YOPC   C1A12113   5.756  16.691   6.670  0.0651 -0.0015 -0.1481
 1055YOPC   D2A12114   5.414  16.750   6.895  0.1728 -0.2109 -0.1245
 1055YOPC   C3A12115   5.341  16.440   7.147 -0.0006  0.2355 -0.3082
 1055YOPC   C4A12116   5.306  16.251   7.634  0.1133  0.0295 -0.1898
 1055YOPC   C1B12117   5.456  16.271   6.620  0.0458  0.0456  0.1483
 1055YOPC   C2B12118   5.020  16.513   6.586  0.1475  0.0686  0.1624
 1055YOPC   D3B12119   4.706  16.176   6.514  0.0036 -0.2705 -0.4092
 1055YOPC   C4B12120   4.291  16.142   6.707 -0.0695 -0.3471  0.1693
 1056YOPC   NC312121  16.917   6.890   6.363  0.0426  0.1962 -0.0577
 1056YOPC   PO412122  16.923   6.522   6.361  0.2788  0.0471 -0.0110
 1056YOPC   GL112123  16.920   6.659   6.802  0.2404  0.0185  0.1640
 1056YOPC   GL212124  16.839   6.346   6.940 -0.2419  0.2540  0.0448
 1056YOPC   C1A12125  17.216   6.491   7.225  0.0366  0.1214  0.0368
 1056YOPC   D2A12126  17.409   6.412   7.575  0.0561 -0.0245 -0.3376
 1056YOPC   C3A12127  17.395   6.855   7.593 -0.1804  0.2800 -0.1485
 1056YOPC   C4A12128  17.518   7.135   7.859  0.0465 -0.1324  0.1491
 1056YOPC   C1B12129  16.845   6.276   7.494  0.1891  0.0363  0.0456
 1056YOPC   C2B12130  17.073   6.225   7.847  0.2220  0.0187 -0.1563
 1056YOPC   D3B12131  17.060   6.012   8.195  0.0815 -0.1268  0.0414
 1056YOPC   C4B12132  17.157   6.241   8.504  0.3021  0.0022 -0.3490
 1057YOPC   NC312133  16.446   6.417   6.311  0.0410  0.0442 -0.0126
 1057YOPC   PO412134  16.495   6.775   6.541  0.3199  0.0217  0.1233
 1057YOPC   GL112135  16.241   6.776   6.874  0.0680  0.1255 -0.0840
 1057YOPC   GL212136  16.307   6.456   7.063  0.1646 -0.0887  0.3114
 1057YOPC   C1A12137  15.912   6.919   7.261  0.0944  0.1918  0.1239
 1057YOPC   D2A12138  15.924   7.064   7.667  0.1070 -0.0864  0.0547
 1057YOPC   C3A12139  15.642   7.397   7.797  0.0336  0.0249 -0.1167
 1057YOPC   C4A12140  15.706   7.354   8.260  0.1273 -0.1283  0.0106
 1057YOPC   C1B12141  16.365   6.669   7.352  0.1790  0.2072  0.2020
 1057YOPC   C2B12142  16.134   6.611   7.745  0.0104 -0.1654  0.2182
 1057YOPC   D3B12143  16.366   6.804   8.035  0.0862  0.2363 -0.0400
 1057YOPC   C4B12144  16.632   6.830   8.293 -0.2735 -0.1016  0.0770
 1058YOPC   NC312145   4.710   1.108   5.524  0.2328  0.3981  0.0331
 1058YOPC   PO412146   4.902   1.474   5.687 -0.3065 -0.1545 -0.1399
 1058YOPC   GL112147   4.716   1.589   6.063 -0.0731 -0.1655 -0.0075
 1058YOPC   GL212148   4.775   1.863   6.190 -0.1180 -0.1046  0.3763
 1058YOPC   C1A12149   4.358   1.594   6.258  0.1132  0.0100 -0.0749
 1058YOPC   D2A12150   4.030   1.597   6.515  0.0098  0.2423 -0.2356
 1058YOPC   C3A12151   4.025   1.510   6.975 -0.3234 -0.2236  0.0702
 1058YOPC   C4A12152   4.042   1.343   7.419  0.0813 -0.0943  0.1447
 1058YOPC   C1B12153   4.828   1.687   6.539 -0.0737 -0.2419 -0.4043
 1058YOPC   C2B12154   5.064   1.410   6.854  0.1151  0.2335  0.0579
 1058YOPC   D3B12155   5.215   1.629   7.153 -0.2458 -0.0019  0.0620
 1058YOPC   C4B12156   5.210   1.848   7.523  0.2348 -0.0659  0.2295
 1059YOPC   NC312157  13.977  17.270   6.145  0.3060  0.0764 -0.1261
 1059YOPC   PO412158  14.118  17.543   6.529  0.4038  0.2101  0.2299
 1059YOPC   GL112159  13.941  17.565   6.918  0.2274 -0.1583  0.1960
 1059YOPC   GL212160  13.802  17.934   6.961  0.1776 -0.1595 -0.1006
 1059YOPC   C1A12161  13.908  17.598   7.401 -0.4448 -0.1346 -0.1510
 1059YOPC   D2A12162  13.551  17.313   7.736 -0.0468 -0.3128 -0.0962
 1059YOPC   C3A12163  13.108  17.481   7.924  0.1141  0.1189 -0.0005
 1059YOPC   C4A12164  12.811  17.687   7.819  0.0078 -0.1965 -0.1073
 1059YOPC   C1B12165  13.783  18.148   7.284  0.1098  0.1635 -0.0932
 1059YOPC   C2B12166  13.898  18.219   7.566  0.3036 -0.0357  0.0626
 1059YOPC   D3B12167  13.672  18.301   7.881  0.1065 -0.4413 -0.1587
 1059YOPC   C4B12168  13.498  18.322   8.252 -0.1219  0.1940 -0.1484
 1060YOPC   NC312169  13.898  14.101   6.465 -0.0899 -0.0315  0.0469
 1060YOPC   PO412170  14.029  14.043   6.824 -0.0258 -0.2664 -0.0980
 1060YOPC   GL112171  13.697  14.143   6.997 -0.1800 -0.0744  0.1272
 1060YOPC   GL212172  13.642  13.865   7.195 -0.1018 -0.1490 -0.0318
 1060YOPC   C1A12173  13.522  14.479   7.173  0.0039 -0.2163  0.0731
 1060YOPC   D2A12174  13.405  14.635   7.594 -0.1709  0.0759  0.1963
 1060YOPC   C3A12175  13.587  14.899   7.943 -0.0895  0.0886  0.0679
 1060YOPC   C4A12176  13.280  15.154   8.142  0.1220 -0.1283  0.0827
 1060YOPC   C1B12177  13.451  14.060   7.501 -0.0978 -0.3029  0.4611
 1060YOPC   C2B12178  13.460  14.152   7.895  0.0286  0.3914 -0.1751
 1060YOPC   D3B12179  13.417  14.454   8.090 -0.0214  0.3938  0.1612
 1060YOPC   C4B12180  13.491  14.755   8.415 -0.0450  0.1245  0.1179
 1061YOPC   NC312181   9.532  12.816   6.363  0.2548  0.2004  0.1209
 1061YOPC   PO412182   9.779  12.624   6.725 -0.1077  0.4042  0.2919
 1061YOPC   GL112183   9.921  12.496   7.122  0.1107 -0.0971 -0.0430
 1061YOPC   GL212184  10.052  12.212   7.250  0.2682 -0.1229 -0.2702
 1061YOPC   C1A12185   9.656  12.671   7.585  0.0923  0.0770  0.0271
 1061YOPC   D2A12186   9.742  12.770   8.058 -0.1649 -0.1019 -0.2504
 1061YOPC   C3A12187   9.653  12.440   8.474 -0.2445  0.1856  0.1551
 1061YOPC   C4A12188   9.397  12.146   8.745  0.1829 -0.0746 -0.1611
 1061YOPC   C1B12189  10.123  12.162   7.621  0.0769 -0.0839  0.1315
 1061YOPC   C2B12190   9.910  11.853   7.901 -0.5168 -0.1362  0.0534
 1061YOPC   D3B12191  10.132  11.726   8.319 -0.2418 -0.1880  0.2313
 1061YOPC   C4B12192  10.511  11.383   8.659  0.2387 -0.3062  0.4293
 1062YOPC   NC312193   1.977  13.799   5.457 -0.1913  0.0466  0.1222
 1062YOPC   PO412194   1.977  14.194   5.783  0.1770 -0.0665  0.3830
 1062YOPC   GL112195   2.023  14.220   6.142 -0.1092  0.1573 -0.1474
 1062YOPC   GL212196   2.290  14.592   6.182 -0.0901 -0.1129  0.0826
 1062YOPC   C1A12197   2.331  14.072   6.356 -0.1039 -0.0429 -0.1382
 1062YOPC   D2A12198   2.359  14.031   6.865 -0.3117 -0.2136 -0.1335
 1062YOPC   C3A12199   2.622  14.164   7.132  0.0262  0.0017 -0.0623
 1062YOPC   C4A12200   2.515  13.987   7.461 -0.2636  0.1256 -0.2339
 1062YOPC   C1B12201   2.453  14.627   6.461 -0.1170 -0.1354  0.1371
 1062YOPC   C2B12202   2.496  14.558   6.796 -0.1113 -0.2061  0.1601
 1062YOPC   D3B12203   2.162  14.426   7.083 -0.0108  0.1943 -0.0075
 1062YOPC   C4B12204   1.808  14.310   7.191 -0.2581  0.2746  0.0151
 1063YOPC   NC312205  12.259   0.592   6.227  0.0592  0.0803 -0.0938
 1063YOPC   PO412206  12.587   0.968   6.271  0.4082 -0.1137  0.3177
 1063YOPC   GL112207  12.890   1.064   6.457 -0.1980  0.0983 -0.1004
 1063YOPC   GL212208  12.947   0.749   6.605  0.4734  0.1661 -0.0218
 1063YOPC   C1A12209  13.171   1.219   6.889 -0.1131 -0.0719 -0.2458
 1063YOPC   D2A12210  13.114   1.277   7.362 -0.0572 -0.0525  0.1145
 1063YOPC   C3A12211  13.022   1.759   7.453 -0.0806  0.2595  0.2876
 1063YOPC   C4A12212  13.011   1.926   7.868  0.3335 -0.1875  0.2362
 1063YOPC   C1B12213  12.994   0.642   6.978  0.0095  0.0049  0.4330
 1063YOPC   C2B12214  12.914   0.755   7.444 -0.0112  0.0495 -0.1713
 1063YOPC   D3B12215  13.076   0.964   7.794  0.1841 -0.0936 -0.3398
 1063YOPC   C4B12216  13.063   1.021   8.165  0.1122 -0.1674  0.0433
 1064YOPC   NC312217  10.587  14.459   6.967 -0.0844 -0.1339  0.1064
 1064YOPC   PO412218  10.372  14.219   6.906 -0.2335  0.0898 -0.1606
 1064YOPC   GL112219  10.283  14.079   7.346  0.1259 -0.0222  0.2467
 1064YOPC   GL212220  10.259  14.389   7.470  0.2344 -0.0721 -0.3055
 1064YOPC   C1A12221  10.183  14.065   7.847  0.1164  0.4897 -0.0616
 1064YOPC   D2A12222  10.193  14.135   8.347  0.3007  0.2838  0.0829
 1064YOPC   C3A12223  10.199  14.481   8.551 -0.0118  0.1037 -0.1068
 1064YOPC   C4A12224  10.196  14.864   8.734 -0.1773  0.1957  0.2044
 1064YOPC   C1B12225  10.122  14.623   7.851 -0.3860  0.0544 -0.0258
 1064YOPC   C2B12226  10.116  14.938   8.180  0.0706 -0.0160 -0.0571
 1064YOPC   D3B12227  10.284  15.248   8.467 -0.1786 -0.0098 -0.0375
 1064YOPC   C4B12228  10.472  15.229   8.946  0.0423 -0.4138  0.2752
 1065YOPC   NC312229  14.570   5.595   6.021 -0.2531 -0.1949 -0.1930
 1065YOPC   PO412230  14.839   5.651   6.331  0.0488 -0.2625  0.1789
 1065YOPC   GL112231  15.058   5.530   6.761 -0.3414  0.1335 -0.3437
 1065YOPC   GL212232  15.346   5.448   6.752 -0.1094 -0.1355 -0.0560
 1065YOPC   C1A12233  15.123   5.516   7.242 -0.0258  0.0336  0.0048
 1065YOPC   D2A12234  14.991   5.620   7.633 -0.0805  0.0964 -0.0462
 1065YOPC   C3A12235  15.037   5.419   7.970 -0.0328  0.1246  0.1278
 1065YOPC   C4A12236  14.809   5.087   8.210 -0.2317 -0.0847  0.2353
 1065YOPC   C1B12237  15.619   5.356   7.112  0.0207  0.0108  0.1836
 1065YOPC   C2B12238  15.662   5.409   7.548 -0.1440 -0.0826 -0.1150
 1065YOPC   D3B12239  15.542   5.602   7.860 -0.2195 -0.0897 -0.2867
 1065YOPC   C4B12240  15.469   5.547   8.307  0.0358 -0.0041  0.0621
 1066YOPC   NC312241   0.515  16.165   5.484 -0.0033 -0.1203  0.0181
 1066YOPC   PO412242   0.681  15.831   5.685  0.2522  0.4531  0.0484
 1066YOPC   GL112243   0.812  16.112   5.914  0.0558  0.0247  0.1290
 1066YOPC   GL212244   1.136  15.934   6.100  0.0520 -0.0275 -0.0465
 1066YOPC   C1A12245   0.812  16.257   6.339 -0.0138  0.2921  0.0388
 1066YOPC   D2A12246   1.179  16.288   6.652  0.0887  0.2719  0.1700
 1066YOPC   C3A12247   1.230  16.062   7.069  0.2172 -0.1316 -0.3272
 1066YOPC   C4A12248   1.192  16.227   7.514 -0.1336  0.0971  0.0285
 1066YOPC   C1B12249   1.490  15.850   6.336  0.0486  0.1310 -0.4037
 1066YOPC   C2B12250   1.634  16.000   6.734 -0.1375 -0.2323  0.3417
 1066YOPC   D3B12251   1.662  15.807   7.203  0.0871 -0.1488  0.1365
 1066YOPC   C4B12252   1.680  16.115   7.513 -0.1461 -0.0399  0.4629
 1067YOPC   NC312253   3.890   6.691   6.384  0.1526  0.0687  0.0293
 1067YOPC   PO412254   3.854   6.281   6.611 -0.2295 -0.1199 -0.2063
 1067YOPC   GL112255   3.661   6.167   6.992  0.0938  0.1219  0.1120
 1067YOPC   GL212256   3.824   6.441   7.150 -0.1146 -0.1679 -0.0096
 1067YOPC   C1A12257   3.823   5.930   7.317  0.0423  0.0338  0.0589
 1067YOPC   D2A12258   3.813   5.638   7.555  0.1912 -0.0913  0.0981
 1067YOPC   C3A12259   3.901   5.601   8.023 -0.0561  0.1059 -0.0280
 1067YOPC   C4A12260   4.121   5.663   8.428 -0.1092 -0.2015 -0.0950
 1067YOPC   C1B12261   4.204   6.302   7.280 -0.3012  0.1357 -0.2312
 1067YOPC   C2B12262   4.340   6.313   7.747  0.1856  0.0744  0.1595
 1067YOPC   D3B12263   4.093   6.528   8.077  0.0654  0.0310  0.1248
 1067YOPC   C4B12264   3.809   6.416   8.465 -0.1139  0.1809  0.1081
 1068YOPC   NC312265   0.541  14.846   5.938  0.1129  0.0390  0.1576
 1068YOPC   PO412266   0.789  15.025   6.045  0.2437 -0.2795  0.0959
 1068YOPC   GL112267   0.751  15.150   6.362  0.0213  0.1646  0.0708
 1068YOPC   GL212268   0.580  14.889   6.510  0.0951  0.4047 -0.0715
 1068YOPC   C1A12269   0.823  15.233   6.773  0.1728  0.0612 -0.2965
 1068YOPC   D2A12270   0.793  15.138   7.096  0.0475  0.0023 -0.1326
 1068YOPC   C3A12271   0.778  15.300   7.433 -0.0032 -0.1288  0.2410
 1068YOPC   C4A12272   0.770  15.725   7.507  0.1335 -0.0733  0.0564
 1068YOPC   C1B12273   0.418  14.533   6.713 -0.4110  0.1778 -0.2699
 1068YOPC   C2B12274   0.372  14.293   7.069 -0.2786  0.0043  0.2139
 1068YOPC   D3B12275   0.368  14.453   7.406 -0.3731 -0.0050 -0.2235
 1068YOPC   C4B12276   0.395  14.602   7.782  0.1760 -0.0427 -0.1463
 1069YOPC   NC312277   8.526   8.370   6.638  0.1132  0.0884  0.0959
 1069YOPC   PO412278   8.255   8.708   6.732 -0.2043 -0.3022 -0.0949
 1069YOPC   GL112279   8.198   8.677   7.161  0.0193 -0.3540 -0.0995
 1069YOPC   GL212280   8.543   8.549   7.136  0.4202  0.1267 -0.0149
 1069YOPC   C1A12281   8.435   8.930   7.548  0.1071  0.1230  0.0264
 1069YOPC   D2A12282   8.839   8.954   7.840  0.1220  0.0297  0.1883
 1069YOPC   C3A12283   8.952   8.549   8.035  0.0465  0.1069 -0.1079
 1069YOPC   C4A12284   8.729   8.362   8.380  0.0643  0.0223  0.3721
 1069YOPC   C1B12285   8.747   8.501   7.578 -0.0915  0.3431 -0.0360
 1069YOPC   C2B12286   8.623   8.110   7.679 -0.1255  0.0037 -0.0329
 1069YOPC   D3B12287   8.651   7.993   8.127 -0.1136  0.0747 -0.0099
 1069YOPC   C4B12288   8.615   7.607   8.425  0.0420  0.0600  0.1304
 1070YOPC   NC312289   7.441   2.613   5.868 -0.0113  0.2580  0.1188
 1070YOPC   PO412290   7.829   2.911   5.910 -0.0674  0.2699 -0.0363
 1070YOPC   GL112291   7.517   2.967   6.266  0.0673  0.1341 -0.1850
 1070YOPC   GL212292   7.231   2.773   6.300 -0.3594 -0.0831 -0.2678
 1070YOPC   C1A12293   7.680   3.146   6.716  0.0553  0.4348 -0.2628
 1070YOPC   D2A12294   7.715   3.175   7.116  0.1974  0.0147  0.2195
 1070YOPC   C3A12295   7.938   2.865   7.371 -0.0660 -0.0059 -0.1136
 1070YOPC   C4A12296   8.446   2.805   7.340  0.0337  0.2890  0.0898
 1070YOPC   C1B12297   7.147   2.888   6.698 -0.1987 -0.0558  0.1105
 1070YOPC   C2B12298   7.200   2.869   7.084 -0.1903  0.3245  0.0379
 1070YOPC   D3B12299   7.435   2.889   7.459 -0.1060 -0.1130  0.0076
 1070YOPC   C4B12300   7.597   3.160   7.701 -0.1378 -0.0464 -0.0892
 1071YOPC   NC312301   1.211   0.834   5.797 -0.0984 -0.2418  0.4016
 1071YOPC   PO412302   0.830   0.753   5.764 -0.0742  0.1926  0.6090
 1071YOPC   GL112303   0.827   0.960   6.121  0.1824 -0.1173  0.0757
 1071YOPC   GL212304   0.625   1.064   6.122  0.2497  0.1141  0.2250
 1071YOPC   C1A12305   0.950   0.984   6.497  0.1123  0.3094  0.1086
 1071YOPC   D2A12306   0.895   1.102   6.945  0.0286 -0.1364 -0.0487
 1071YOPC   C3A12307   1.019   0.960   7.311 -0.0324 -0.3563 -0.1223
 1071YOPC   C4A12308   1.077   0.782   7.621  0.0785 -0.1243  0.0566
 1071YOPC   C1B12309   0.486   1.133   6.527  0.1248 -0.1747  0.2165
 1071YOPC   C2B12310   0.442   1.219   6.953  0.1558  0.0279  0.0075
 1071YOPC   D3B12311   0.788   1.525   7.200  0.1414  0.0843 -0.0229
 1071YOPC   C4B12312   0.998   2.002   7.193  0.3748 -0.2921  0.1641
 1072YOPC   NC312313  10.257  17.186   6.713 -0.0430 -0.2496  0.0902
 1072YOPC   PO412314   9.838  17.095   6.607 -0.3382 -0.0123 -0.0103
 1072YOPC   GL112315   9.789  17.037   7.019 -0.0104 -0.0115 -0.1879
 1072YOPC   GL212316  10.058  17.075   7.200 -0.4410  0.2666 -0.1201
 1072YOPC   C1A12317   9.468  16.916   7.357 -0.2360 -0.1162 -0.1497
 1072YOPC   D2A12318   9.499  16.745   7.767 -0.2041 -0.1017  0.1899
 1072YOPC   C3A12319   9.814  16.926   8.186 -0.4895 -0.1687 -0.0049
 1072YOPC   C4A12320  10.118  17.130   8.477  0.0135 -0.3881  0.0195
 1072YOPC   C1B12321  10.343  17.255   7.472 -0.3364 -0.1101  0.0250
 1072YOPC   C2B12322  10.455  17.453   7.809 -0.2546  0.0440 -0.1089
 1072YOPC   D3B12323  10.104  17.444   8.107  0.0545 -0.2361 -0.1516
 1072YOPC   C4B12324   9.760  17.425   8.331  0.0732  0.2406 -0.0228
 1073YOPC   NC312325   9.095   1.368   5.756  0.0607  0.3740 -0.3532
 1073YOPC   PO412326   8.935   1.219   6.107 -0.1317  0.1744  0.0511
 1073YOPC   GL112327   9.063   1.258   6.498  0.1519  0.1210  0.1974
 1073YOPC   GL212328   8.925   1.601   6.458  0.0148  0.1524  0.1915
 1073YOPC   C1A12329   8.825   0.969   6.704 -0.2061  0.0320 -0.2265
 1073YOPC   D2A12330   8.335   0.817   6.665  0.0520 -0.2424  0.0786
 1073YOPC   C3A12331   8.222   0.414   6.914  0.0642  0.0688 -0.2165
 1073YOPC   C4A12332   8.158   0.119   7.277  0.1604 -0.1185  0.3491
 1073YOPC   C1B12333   9.134   1.473   6.911  0.0068  0.1653 -0.1693
 1073YOPC   C2B12334   9.335   1.443   7.330  0.0495 -0.1491 -0.1029
 1073YOPC   D3B12335   9.271   1.172   7.720  0.1735 -0.2130  0.1583
 1073YOPC   C4B12336   8.891   1.133   7.952 -0.0137 -0.0954 -0.1145
 1074YOPC   NC312337  10.948  17.957   6.309  0.1171 -0.2470 -0.1616
 1074YOPC   PO412338  10.973  18.349   6.615  0.3318  0.0629 -0.2767
 1074YOPC   GL112339  10.989  18.338   7.054 -0.0903  0.0581  0.0719
 1074YOPC   GL212340  11.168  18.083   7.086 -0.0604 -0.0312  0.1740
 1074YOPC   C1A12341  11.110  18.511   7.465  0.0682 -0.1419 -0.0148
 1074YOPC   D2A12342  11.207  18.386   7.843 -0.1901  0.0753 -0.2626
 1074YOPC   C3A12343  11.165  18.628   8.273  0.3175 -0.0220 -0.0729
 1074YOPC   C4A12344  11.099  18.825   8.636 -0.2254 -0.1490  0.2496
 1074YOPC   C1B12345  11.258  18.021   7.507 -0.0267  0.0580  0.2672
 1074YOPC   C2B12346  11.671  17.973   7.749 -0.0998 -0.1667  0.0361
 1074YOPC   D3B12347  11.843  17.821   8.121  0.0358 -0.0915 -0.2129
 1074YOPC   C4B12348  11.884  17.950   8.557  0.0519 -0.0888  0.4606
 1075YOPC   NC312349  14.180   7.558   6.703  0.1822  0.1549  0.0882
 1075YOPC   PO412350  13.918   7.278   6.454 -0.0666  0.2114 -0.1770
 1075YOPC   GL112351  13.952   7.060   6.689  0.0530 -0.3504  0.3189
 1075YOPC   GL212352  13.980   6.778   6.501  0.0949  0.0761  0.0820
 1075YOPC   C1A12353  14.015   6.951   7.074  0.1164  0.2042  0.2409
 1075YOPC   D2A12354  14.257   7.036   7.388 -0.0781  0.0213  0.0142
 1075YOPC   C3A12355  14.342   7.236   7.721 -0.1082 -0.2578 -0.0648
 1075YOPC   C4A12356  14.382   7.318   8.194 -0.3526 -0.3156 -0.0498
 1075YOPC   C1B12357  14.160   6.533   6.827 -0.0221 -0.0273 -0.2011
 1075YOPC   C2B12358  14.205   6.555   7.299 -0.0582  0.1643  0.1332
 1075YOPC   D3B12359  14.332   6.193   7.574 -0.0561 -0.0501  0.0273
 1075YOPC   C4B12360  14.231   5.885   7.804  0.2113  0.2887  0.0333
 1076YOPC   NC312361  16.538   3.864   6.044 -0.1246  0.2448  0.1076
 1076YOPC   PO412362  16.170   4.161   5.989 -0.0455 -0.1925 -0.1282
 1076YOPC   GL112363  16.294   3.980   6.475  0.0685 -0.0352  0.3040
 1076YOPC   GL212364  16.104   4.091   6.723 -0.0571 -0.0347  0.0840
 1076YOPC   C1A12365  16.468   3.809   6.792 -0.2900  0.0068  0.1006
 1076YOPC   D2A12366  16.435   3.445   6.874 -0.0326 -0.2116 -0.1694
 1076YOPC   C3A12367  16.334   3.328   7.287 -0.0645 -0.2667  0.1452
 1076YOPC   C4A12368  16.351   3.101   7.689 -0.3517  0.3759 -0.2045
 1076YOPC   C1B12369  16.244   4.050   7.118  0.1267  0.2152  0.0967
 1076YOPC   C2B12370  16.498   3.779   7.360  0.0798 -0.0556 -0.2745
 1076YOPC   D3B12371  16.415   3.629   7.727 -0.1958 -0.0722 -0.0227
 1076YOPC   C4B12372  16.153   3.383   8.118  0.1207 -0.0216  0.1922
 1077YOPC   NC312373  11.320   0.733   6.467 -0.2296  0.0649 -0.0007
 1077YOPC   PO412374  11.282   1.168   6.543  0.0260 -0.1261  0.0801
 1077YOPC   GL112375  11.341   1.384   6.916  0.1506  0.0111 -0.0896
 1077YOPC   GL212376  11.499   1.716   6.930  0.1379  0.0045 -0.0936
 1077YOPC   C1A12377  11.280   1.496   7.369 -0.0491 -0.1415 -0.0676
 1077YOPC   D2A12378  11.248   1.507   7.839  0.2266  0.1584  0.4438
 1077YOPC   C3A12379  11.158   1.872   8.171 -0.1989  0.0009  0.2648
 1077YOPC   C4A12380  10.958   2.286   8.277 -0.0302 -0.0844  0.3124
 1077YOPC   C1B12381  11.519   1.944   7.290 -0.1794 -0.0323 -0.0859
 1077YOPC   C2B12382  11.437   2.124   7.695 -0.3046 -0.0389 -0.0271
 1077YOPC   D3B12383  11.693   2.493   7.869  0.1973  0.0328 -0.2053
 1077YOPC   C4B12384  11.845   2.644   8.326 -0.1938 -0.1879 -0.1781
 1078YOPC   NC312385  14.109   4.654   6.217  0.2077  0.1083 -0.1258
 1078YOPC   PO412386  14.399   5.062   6.180 -0.0756  0.0884 -0.4396
 1078YOPC   GL112387  14.440   4.795   6.637 -0.3064 -0.1576 -0.1035
 1078YOPC   GL212388  14.694   4.682   6.765  0.0348 -0.0857 -0.0850
 1078YOPC   C1A12389  14.437   4.856   7.122  0.1140  0.0179  0.2416
 1078YOPC   D2A12390  14.552   4.792   7.467  0.2430 -0.1102  0.2647
 1078YOPC   C3A12391  14.430   4.966   7.877 -0.0295 -0.1233 -0.0395
 1078YOPC   C4A12392  14.291   5.234   8.237  0.1405  0.1956  0.1200
 1078YOPC   C1B12393  14.796   4.430   7.255 -0.2324  0.1164 -0.0051
 1078YOPC   C2B12394  14.751   4.082   7.478 -0.2212 -0.6040  0.2624
 1078YOPC   D3B12395  15.041   4.175   7.792 -0.4448 -0.1788  0.2653
 1078YOPC   C4B12396  15.216   4.218   8.244 -0.1092  0.2204  0.1599
 1079YOPC   NC312397  14.059  13.470   7.012 -0.0110 -0.0938  0.4443
 1079YOPC   PO412398  14.402  13.262   6.880  0.0145  0.0382 -0.0109
 1079YOPC   GL112399  14.681  13.428   7.194 -0.0402  0.2279  0.2317
 1079YOPC   GL212400  14.439  13.509   7.339  0.2632  0.2835  0.1086
 1079YOPC   C1A12401  14.715  13.154   7.565 -0.0349  0.0974 -0.0313
 1079YOPC   D2A12402  14.785  13.277   7.970 -0.3760  0.3788 -0.0129
 1079YOPC   C3A12403  14.775  13.128   8.350  0.1616 -0.0085  0.2630
 1079YOPC   C4A12404  14.914  12.996   8.716 -0.0744 -0.0364 -0.2958
 1079YOPC   C1B12405  14.410  13.648   7.746  0.0656 -0.0337  0.0384
 1079YOPC   C2B12406  14.211  13.576   8.100  0.0623  0.2352  0.1308
 1079YOPC   D3B12407  14.417  13.849   8.529  0.6269 -0.3063  0.0215
 1079YOPC   C4B12408  14.529  14.159   8.876  0.2873  0.3009  0.1183
 1080YOPC   NC312409   9.731  10.000   6.480  0.0910  0.2110  0.0080
 1080YOPC   PO412410  10.062  10.221   6.661  0.0351  0.1065 -0.1814
 1080YOPC   GL112411  10.248  10.509   6.925  0.0006  0.2806 -0.2558
 1080YOPC   GL212412  10.037  10.675   6.996 -0.1159 -0.2197 -0.0851
 1080YOPC   C1A12413  10.680  10.361   7.107  0.0610  0.0898 -0.0855
 1080YOPC   D2A12414  11.135  10.358   7.226 -0.0441  0.1631  0.0929
 1080YOPC   C3A12415  11.124  10.393   7.689 -0.4523  0.0685  0.1121
 1080YOPC   C4A12416  10.913  10.551   8.045 -0.2123  0.1261 -0.2093
 1080YOPC   C1B12417  10.086  10.558   7.423  0.2761  0.1639 -0.0097
 1080YOPC   C2B12418   9.946  10.425   7.797  0.4274 -0.0310  0.2322
 1080YOPC   D3B12419   9.995  10.622   8.167 -0.0101 -0.2529  0.0430
 1080YOPC   C4B12420  10.260  10.422   8.497 -0.2498 -0.0902  0.0734
 1081YOPC   NC312421   0.321   6.373   6.062 -0.0511 -0.0865  0.0910
 1081YOPC   PO412422  -0.171   6.426   6.087  0.1014 -0.0559  0.2227
 1081YOPC   GL112423  -0.106   6.197   6.381 -0.0372  0.0906 -0.1151
 1081YOPC   GL212424  -0.371   5.961   6.491  0.1187  0.1171  0.0684
 1081YOPC   C1A12425   0.018   6.142   6.865 -0.0778 -0.2010  0.0501
 1081YOPC   D2A12426   0.075   5.992   7.252  0.2420  0.1061  0.1114
 1081YOPC   C3A12427  -0.245   6.087   7.619  0.1583  0.0384 -0.0702
 1081YOPC   C4A12428  -0.287   6.262   8.059  0.0126 -0.1846 -0.1494
 1081YOPC   C1B12429  -0.785   5.987   6.736  0.0469 -0.1613  0.1128
 1081YOPC   C2B12430  -1.062   5.857   7.031 -0.3448  0.0933 -0.1591
 1081YOPC   D3B12431  -1.164   5.800   7.432 -0.1301 -0.0828  0.0559
 1081YOPC   C4B12432  -1.329   5.841   7.800  0.0044 -0.2827 -0.0580
 1082YOPC   NC312433   3.906   7.580   6.578 -0.1232  0.0189  0.1277
 1082YOPC   PO412434   3.630   7.980   6.555  0.1280 -0.0043  0.2879
 1082YOPC   GL112435   3.509   7.772   6.876  0.0749  0.0549  0.0668
 1082YOPC   GL212436   3.812   7.582   7.044  0.1060  0.0918  0.4107
 1082YOPC   C1A12437   3.249   7.722   7.308 -0.1362  0.1524 -0.0646
 1082YOPC   D2A12438   3.342   7.610   7.747 -0.1698 -0.0111 -0.0996
 1082YOPC   C3A12439   3.391   7.282   8.012 -0.2341 -0.0433  0.0200
 1082YOPC   C4A12440   3.474   7.266   8.479  0.0552  0.0515  0.0971
 1082YOPC   C1B12441   3.736   7.794   7.378  0.3642  0.0692  0.1552
 1082YOPC   C2B12442   3.766   7.932   7.753  0.1399  0.0304  0.1050
 1082YOPC   D3B12443   3.553   8.093   7.994  0.1766  0.3193  0.3275
 1082YOPC   C4B12444   3.172   7.965   8.087  0.2246 -0.0415 -0.0109
 1083YOPC   NC312445   5.697  15.903   6.045 -0.1193  0.1434 -0.2377
 1083YOPC   PO412446   5.870  15.440   6.083  0.1067  0.3493 -0.1283
 1083YOPC   GL112447   5.962  15.513   6.501 -0.2922 -0.2346 -0.1607
 1083YOPC   GL212448   6.158  15.233   6.684 -0.2983  0.0377  0.0004
 1083YOPC   C1A12449   6.057  15.713   6.827  0.0921 -0.0798 -0.0656
 1083YOPC   D2A12450   6.023  15.644   7.170  0.0939  0.1027 -0.0778
 1083YOPC   C3A12451   5.886  15.652   7.563 -0.1430  0.0406  0.5394
 1083YOPC   C4A12452   5.716  15.483   7.957 -0.2797 -0.0481 -0.0221
 1083YOPC   C1B12453   6.022  15.118   7.102  0.1067  0.2153  0.0298
 1083YOPC   C2B12454   5.893  15.153   7.517  0.3227  0.0640 -0.1407
 1083YOPC   D3B12455   6.087  15.186   8.034  0.0875 -0.0008  0.1595
 1083YOPC   C4B12456   6.480  15.091   8.198 -0.2400 -0.0666 -0.1844
 1084YOPC   NC312457  17.906  17.329   5.660 -0.3248  0.1784  0.1699
 1084YOPC   PO412458  17.689  17.732   5.774  0.0452 -0.0754  0.0543
 1084YOPC   GL112459  17.647  17.885   6.261 -0.2306  0.1410  0.1325
 1084YOPC   GL212460  17.406  17.880   6.307  0.0264  0.0293  0.1481
 1084YOPC   C1A12461  17.770  17.937   6.718 -0.0969 -0.2306 -0.1054
 1084YOPC   D2A12462  17.945  17.762   6.975 -0.0547  0.3316 -0.2660
 1084YOPC   C3A12463  17.856  17.452   7.222  0.3308 -0.0434  0.0082
 1084YOPC   C4A12464  17.607  17.415   7.651 -0.0329 -0.2766 -0.1067
 1084YOPC   C1B12465  17.280  17.980   6.662 -0.2338  0.3057  0.0431
 1084YOPC   C2B12466  16.983  17.819   6.958 -0.2642 -0.3976 -0.1001
 1084YOPC   D3B12467  17.089  17.858   7.364 -0.1479 -0.1321 -0.0042
 1084YOPC   C4B12468  17.085  18.100   7.780 -0.1679 -0.1093 -0.4210
 1085YOPC   NC312469   4.528   5.548   6.161  0.0111  0.0183  0.1331
 1085YOPC   PO412470   4.515   5.861   6.474  0.0960  0.2334 -0.1468
 1085YOPC   GL112471   4.895   5.801   6.812  0.2394  0.0567  0.0530
 1085YOPC   GL212472   5.152   6.027   6.930 -0.1037  0.2194  0.0428
 1085YOPC   C1A12473   4.840   5.677   7.253 -0.1118 -0.0828 -0.2125
 1085YOPC   D2A12474   4.691   5.532   7.615 -0.0941  0.1635 -0.2456
 1085YOPC   C3A12475   4.892   5.396   8.009 -0.0952 -0.2759  0.0068
 1085YOPC   C4A12476   5.180   5.360   8.403  0.6499  0.0517 -0.1848
 1085YOPC   C1B12477   5.396   5.997   7.307  0.2880  0.1162  0.0568
 1085YOPC   C2B12478   5.649   5.767   7.601  0.0753  0.3378  0.0921
 1085YOPC   D3B12479   6.005   5.788   7.728 -0.1325 -0.0792 -0.1108
 1085YOPC   C4B12480   6.386   5.932   7.741  0.1168 -0.3754 -0.0923
 1086YOPC   NC312481   5.087  10.230   6.604  0.3881  0.0992 -0.1582
 1086YOPC   PO412482   4.768  10.531   6.577 -0.0735 -0.1945 -0.1772
 1086YOPC   GL112483   4.726  10.500   6.997  0.1786  0.3020 -0.0687
 1086YOPC   GL212484   5.059  10.433   7.061  0.0362 -0.0358 -0.0046
 1086YOPC   C1A12485   4.449  10.356   7.360  0.1444 -0.0874 -0.1794
 1086YOPC   D2A12486   4.305   9.935   7.585  0.1244 -0.0120  0.4491
 1086YOPC   C3A12487   4.398   9.975   8.013  0.1013 -0.0671  0.0309
 1086YOPC   C4A12488   4.496  10.307   8.371 -0.2364  0.0826 -0.0637
 1086YOPC   C1B12489   4.877  10.617   7.486  0.3377  0.1347  0.1688
 1086YOPC   C2B12490   4.735  10.620   7.971 -0.1012 -0.1998 -0.2695
 1086YOPC   D3B12491   4.961  10.636   8.378  0.1804  0.0030 -0.0127
 1086YOPC   C4B12492   4.959  10.973   8.539  0.2197  0.0290 -0.4299
 1087YOPC   NC312493   6.857  15.232   6.394 -0.2672 -0.1490 -0.1466
 1087YOPC   PO412494   7.108  15.555   6.507 -0.1761 -0.1963  0.1618
 1087YOPC   GL112495   7.176  15.752   6.861  0.0947 -0.2014 -0.0755
 1087YOPC   GL212496   7.391  15.681   7.066  0.1625  0.1842  0.1768
 1087YOPC   C1A12497   6.960  15.992   7.154  0.4222  0.2324 -0.2066
 1087YOPC   D2A12498   6.937  16.187   7.552  0.0136 -0.1659  0.0558
 1087YOPC   C3A12499   6.797  16.141   8.013  0.0712  0.1323  0.1308
 1087YOPC   C4A12500   6.553  16.132   8.370  0.2499 -0.3172 -0.1180
 1087YOPC   C1B12501   7.319  15.822   7.453  0.1138 -0.1571 -0.2047
 1087YOPC   C2B12502   7.340  15.921   7.859  0.0613 -0.1192 -0.0450
 1087YOPC   D3B12503   7.683  16.055   8.072  0.1289 -0.0140  0.1136
 1087YOPC   C4B12504   7.969  16.247   8.501 -0.2080 -0.0571 -0.0891
 1088YOPC   NC312505   7.734   7.408   6.481  0.0686 -0.0898 -0.1214
 1088YOPC   PO412506   8.156   7.532   6.519  0.0005  0.0987 -0.0522
 1088YOPC   GL112507   8.080   7.526   6.857 -0.1036 -0.0611  0.0951
 1088YOPC   GL212508   8.406   7.628   6.994 -0.2129 -0.1847  0.2501
 1088YOPC   C1A12509   7.920   7.619   7.266 -0.2776 -0.2595 -0.3816
 1088YOPC   D2A12510   7.823   7.900   7.494 -0.0192  0.1823  0.0118
 1088YOPC   C3A12511   8.082   7.973   7.875 -0.0054  0.0536 -0.0541
 1088YOPC   C4A12512   8.232   8.221   8.137  0.2992  0.2953  0.0188
 1088YOPC   C1B12513   8.484   7.336   7.219 -0.0263  0.0477 -0.2546
 1088YOPC   C2B12514   8.697   7.138   7.468 -0.1637  0.0358  0.0042
 1088YOPC   D3B12515   8.654   7.173   7.917  0.2252  0.0718 -0.2016
 1088YOPC   C4B12516   8.641   7.123   8.249 -0.0972 -0.1229  0.1492
 1089YOPC   NC312517  10.875  14.905   6.682  0.3129 -0.0436 -0.2158
 1089YOPC   PO412518  10.746  14.927   7.059  0.0071  0.2260 -0.0893
 1089YOPC   GL112519  10.871  15.031   7.446  0.1793 -0.0629 -0.0346
 1089YOPC   GL212520  11.010  15.345   7.447  0.0447 -0.2099 -0.3692
 1089YOPC   C1A12521  11.024  14.963   7.803 -0.0751  0.3417  0.1270
 1089YOPC   D2A12522  11.206  14.821   8.046  0.1005 -0.0184 -0.3940
 1089YOPC   C3A12523  11.095  14.779   8.429 -0.1937 -0.2774 -0.0140
 1089YOPC   C4A12524  11.192  14.465   8.769  0.1960 -0.1886 -0.2151
 1089YOPC   C1B12525  11.003  15.495   7.969  0.1017  0.0653  0.2225
 1089YOPC   C2B12526  11.056  15.616   8.404 -0.1343  0.1845 -0.1331
 1089YOPC   D3B12527  11.305  15.907   8.549  0.1989  0.1857  0.1944
 1089YOPC   C4B12528  11.094  16.359   8.505  0.0807  0.0772 -0.4088
 1090YOPC   NC312529   1.494   4.172   5.903 -0.0313 -0.2741  0.1093
 1090YOPC   PO412530   1.382   3.867   6.029  0.1304  0.2845 -0.1087
 1090YOPC   GL112531   1.593   3.713   6.402 -0.0819  0.0715  0.0641
 1090YOPC   GL212532   1.304   3.512   6.534  0.3025 -0.1122  0.1055
 1090YOPC   C1A12533   1.781   3.736   6.925 -0.2490 -0.2075 -0.1052
 1090YOPC   D2A12534   1.924   3.762   7.381  0.0317  0.2897  0.2955
 1090YOPC   C3A12535   1.987   4.140   7.713 -0.0675 -0.1340  0.0002
 1090YOPC   C4A12536   1.737   4.383   7.603 -0.2629 -0.2973 -0.0725
 1090YOPC   C1B12537   1.320   3.627   6.868  0.3056  0.1011  0.0959
 1090YOPC   C2B12538   1.474   3.611   7.314  0.2347  0.0468  0.2366
 1090YOPC   D3B12539   1.462   3.279   7.540 -0.0681  0.1490  0.0152
 1090YOPC   C4B12540   1.471   3.192   7.946  0.0432  0.1320  0.3682
 1091YOPC   NC312541  11.163  16.887   6.636 -0.2120 -0.3521 -0.0908
 1091YOPC   PO412542  11.127  16.497   6.681  0.0789  0.1842 -0.1798
 1091YOPC   GL112543  11.098  16.588   7.104  0.0190  0.1168 -0.1273
 1091YOPC   GL212544  11.243  16.434   7.287 -0.0266  0.0774 -0.0356
 1091YOPC   C1A12545  10.731  16.360   7.317 -0.0001 -0.1682  0.2893
 1091YOPC   D2A12546  10.328  16.207   7.361  0.2118  0.0253  0.1546
 1091YOPC   C3A12547  10.549  15.830   7.436 -0.0858 -0.1076 -0.0561
 1091YOPC   C4A12548  10.602  15.548   7.652 -0.1563  0.2822  0.1418
 1091YOPC   C1B12549  11.014  16.620   7.598  0.0088 -0.0760 -0.0998
 1091YOPC   C2B12550  11.136  16.579   8.007 -0.0120 -0.1044 -0.2093
 1091YOPC   D3B12551  10.966  16.837   8.319  0.1005 -0.3108  0.1234
 1091YOPC   C4B12552  10.739  16.848   8.683  0.0775 -0.1248 -0.2577
 1092YOPC   NC312553  14.516  17.834   6.442  0.0058  0.0927  0.2129
 1092YOPC   PO412554  14.541  18.260   6.545  0.0284 -0.0914 -0.1762
 1092YOPC   GL112555  14.716  18.101   7.013  0.0781 -0.1359 -0.0637
 1092YOPC   GL212556  14.590  17.832   6.888 -0.1184 -0.6140 -0.1188
 1092YOPC   C1A12557  14.759  18.126   7.432  0.0084  0.0038  0.3347
 1092YOPC   D2A12558  14.718  18.091   7.840 -0.0150  0.0981  0.2467
 1092YOPC   C3A12559  14.457  17.777   8.120 -0.0607 -0.1927 -0.0002
 1092YOPC   C4A12560  14.357  17.363   8.124  0.0501 -0.1903  0.0797
 1092YOPC   C1B12561  14.255  17.927   7.203 -0.2758  0.2991 -0.3965
 1092YOPC   C2B12562  14.247  17.903   7.590  0.3278  0.1122 -0.2113
 1092YOPC   D3B12563  14.225  18.207   7.935 -0.3193  0.2051 -0.1203
 1092YOPC   C4B12564  14.022  18.187   8.277  0.0281 -0.0208  0.0335
 1093YOPC   NC312565  17.828  14.873   5.561 -0.0857 -0.1013  0.2421
 1093YOPC   PO412566  18.034  15.122   5.789  0.0983  0.4476  0.1088
 1093YOPC   GL112567  18.194  15.059   6.231 -0.1160  0.0478  0.0082
 1093YOPC   GL212568  17.951  14.948   6.340  0.2171  0.0515  0.0295
 1093YOPC   C1A12569  18.163  14.979   6.734 -0.1814  0.1786  0.0543
 1093YOPC   D2A12570  18.397  14.827   7.116  0.0915  0.0281  0.0568
 1093YOPC   C3A12571  18.435  14.997   7.473  0.1098  0.1059 -0.1666
 1093YOPC   C4A12572  18.212  15.052   7.845 -0.0276  0.4777 -0.0119
 1093YOPC   C1B12573  17.600  14.961   6.720  0.1110  0.0961 -0.0275
 1093YOPC   C2B12574  17.477  14.988   7.128 -0.1982  0.0391 -0.2723
 1093YOPC   D3B12575  17.422  14.896   7.558 -0.0420  0.0511  0.6217
 1093YOPC   C4B12576  17.415  15.046   8.010  0.0954  0.1880 -0.1727
 1094YOPC   NC312577  10.613  16.371   6.650  0.1697  0.0931 -0.0170
 1094YOPC   PO412578  10.613  16.814   6.648  0.3592  0.0938 -0.0512
 1094YOPC   GL112579  10.564  16.915   7.128 -0.0167  0.2124 -0.3575
 1094YOPC   GL212580  10.878  17.052   7.169  0.1418  0.1451 -0.0552
 1094YOPC   C1A12581  10.355  16.758   7.458 -0.0074 -0.0843  0.3386
 1094YOPC   D2A12582  10.551  16.480   7.771 -0.3445 -0.0139 -0.0795
 1094YOPC   C3A12583  10.575  16.543   8.261 -0.0895 -0.0755  0.2399
 1094YOPC   C4A12584  10.285  16.623   8.496 -0.1133 -0.0634  0.2045
 1094YOPC   C1B12585  10.806  17.143   7.525  0.1272 -0.0176 -0.2876
 1094YOPC   C2B12586  10.767  16.938   7.895  0.0093 -0.0209  0.1389
 1094YOPC   D3B12587  10.604  17.240   8.256 -0.0498  0.0156  0.3244
 1094YOPC   C4B12588  10.442  17.546   8.499  0.1750 -0.1823  0.1021
 1095YOPC   NC312589   1.728  17.986   5.090 -0.0991  0.0616 -0.0599
 1095YOPC   PO412590   1.596  18.012   5.503 -0.0282  0.0914  0.2147
 1095YOPC   GL112591   1.669  18.104   5.871  0.1462 -0.3469  0.1457
 1095YOPC   GL212592   1.767  17.772   6.018  0.4314 -0.2072 -0.0988
 1095YOPC   C1A12593   1.674  18.148   6.390 -0.1649  0.0952  0.3074
 1095YOPC   D2A12594   1.560  18.321   6.869 -0.0980  0.0612  0.3511
 1095YOPC   C3A12595   1.702  18.141   7.204 -0.3248  0.1935  0.0544
 1095YOPC   C4A12596   2.129  18.168   7.412  0.1037 -0.1548 -0.1283
 1095YOPC   C1B12597   2.110  17.506   6.114 -0.1291 -0.0109  0.1566
 1095YOPC   C2B12598   2.187  17.303   6.457  0.2631  0.2743  0.1599
 1095YOPC   D3B12599   2.208  17.318   6.827 -0.0668  0.0633 -0.0812
 1095YOPC   C4B12600   2.149  17.251   7.245  0.0270 -0.0320 -0.3232
 1096YOPC   NC312601   9.759   1.811   6.129  0.0167 -0.2408 -0.1196
 1096YOPC   PO412602   9.442   1.441   6.123 -0.1221  0.1637 -0.1310
 1096YOPC   GL112603   9.528   1.549   6.539  0.0847  0.0674  0.0310
 1096YOPC   GL212604   9.833   1.629   6.626 -0.2384  0.2004 -0.1134
 1096YOPC   C1A12605   9.583   1.165   6.837 -0.2218 -0.2485 -0.1029
 1096YOPC   D2A12606   9.733   0.792   7.076  0.1852 -0.2545 -0.0756
 1096YOPC   C3A12607   9.565   0.765   7.433 -0.0505  0.0776  0.1447
 1096YOPC   C4A12608   9.482   0.765   7.876 -0.2089  0.0132  0.2245
 1096YOPC   C1B12609   9.594   1.728   7.036 -0.2180 -0.1313 -0.0757
 1096YOPC   C2B12610   9.604   1.819   7.444 -0.0808  0.2276  0.1792
 1096YOPC   D3B12611   9.589   1.719   7.781 -0.3163  0.4290 -0.4047
 1096YOPC   C4B12612   9.648   1.615   8.147  0.2719  0.0351 -0.1044
 1097YOPC   NC312613  11.212   2.271   6.175 -0.0036 -0.3575 -0.0633
 1097YOPC   PO412614  11.625   2.377   6.217 -0.3887 -0.0181 -0.0069
 1097YOPC   GL112615  11.756   2.341   6.661  0.0479 -0.2877 -0.0453
 1097YOPC   GL212616  12.006   2.086   6.702 -0.1956 -0.0586  0.0621
 1097YOPC   C1A12617  11.930   2.398   7.123  0.0828 -0.1290  0.3345
 1097YOPC   D2A12618  11.981   2.118   7.484  0.1269 -0.1550  0.0853
 1097YOPC   C3A12619  12.046   2.161   7.926  0.1190  0.0654  0.0320
 1097YOPC   C4A12620  12.082   2.209   8.293 -0.1896 -0.2131 -0.0364
 1097YOPC   C1B12621  11.943   1.903   6.983  0.0621 -0.3720  0.2463
 1097YOPC   C2B12622  12.152   1.634   7.291 -0.1034  0.1928  0.2209
 1097YOPC   D3B12623  12.190   1.681   7.790 -0.1629 -0.2868 -0.3665
 1097YOPC   C4B12624  12.563   1.693   8.065  0.1745  0.3324 -0.1681
 1098YOPC   NC312625   5.619  12.304   6.186 -0.0718 -0.3663 -0.0442
 1098YOPC   PO412626   5.726  12.601   6.396  0.2379  0.2806 -0.2069
 1098YOPC   GL112627   5.551  12.428   6.669 -0.0190  0.4612 -0.2054
 1098YOPC   GL212628   5.899  12.267   6.768 -0.3348  0.1427  0.3374
 1098YOPC   C1A12629   5.389  12.048   6.899  0.2134  0.1785 -0.1497
 1098YOPC   D2A12630   5.264  11.879   7.361  0.2254  0.3073  0.0914
 1098YOPC   C3A12631   5.155  12.054   7.822  0.0727 -0.0308 -0.1607
 1098YOPC   C4A12632   5.296  12.319   8.100  0.1634 -0.2135  0.1115
 1098YOPC   C1B12633   5.890  12.286   7.182  0.4472  0.0700 -0.1015
 1098YOPC   C2B12634   5.998  12.539   7.527  0.1615 -0.1589 -0.1762
 1098YOPC   D3B12635   5.610  12.794   7.617 -0.0904  0.1560  0.0979
 1098YOPC   C4B12636   5.199  12.895   7.274 -0.2178  0.1367 -0.3336
 1099YOPC   NC312637  12.542   4.703   6.527  0.0267  0.2174  0.1573
 1099YOPC   PO412638  12.663   5.042   6.564 -0.1271  0.2026  0.4176
 1099YOPC   GL112639  12.536   5.048   6.955 -0.0465 -0.2672 -0.0705
 1099YOPC   GL212640  12.208   4.937   6.882  0.1666 -0.0183 -0.0697
 1099YOPC   C1A12641  12.431   4.995   7.382 -0.2437 -0.1396  0.0547
 1099YOPC   D2A12642  12.424   5.157   7.779 -0.1414 -0.0747  0.0044
 1099YOPC   C3A12643  12.154   5.051   8.130  0.2643 -0.3339  0.0011
 1099YOPC   C4A12644  12.006   5.252   8.475  0.0885  0.0738 -0.0886
 1099YOPC   C1B12645  12.103   4.578   7.199  0.1555 -0.1228  0.1473
 1099YOPC   C2B12646  11.703   4.474   7.395  0.1360  0.0499 -0.2159
 1099YOPC   D3B12647  11.551   4.768   7.499 -0.1696 -0.0858  0.2405
 1099YOPC   C4B12648  11.563   5.255   7.542  0.0584  0.0578  0.0100
 1100YOPC   NC312649  13.556   5.656   5.578  0.1387 -0.1273  0.1031
 1100YOPC   PO412650  13.593   5.330   5.884 -0.0016 -0.2636  0.0750
 1100YOPC   GL112651  13.670   5.199   6.298 -0.0705 -0.0343  0.3732
 1100YOPC   GL212652  13.985   5.046   6.498  0.2157 -0.3801 -0.2780
 1100YOPC   C1A12653  13.618   5.295   6.732 -0.0591  0.0461  0.1149
 1100YOPC   D2A12654  13.399   5.149   7.082 -0.0664  0.1015  0.1255
 1100YOPC   C3A12655  13.037   5.322   7.139  0.0327  0.0164  0.0215
 1100YOPC   C4A12656  12.990   5.787   7.223  0.0726  0.2369 -0.0755
 1100YOPC   C1B12657  14.131   5.166   6.849 -0.1404  0.0708 -0.0306
 1100YOPC   C2B12658  13.918   5.456   7.096  0.1507  0.1017 -0.6387
 1100YOPC   D3B12659  13.795   5.421   7.541  0.1253 -0.1133 -0.0403
 1100YOPC   C4B12660  14.074   5.341   7.839 -0.4099 -0.2121  0.2627
 1101YOPC   NC312661   1.768   5.568   6.021 -0.1950  0.2596  0.1981
 1101YOPC   PO412662   2.256   5.357   6.178  0.0301  0.0034 -0.2052
 1101YOPC   GL112663   2.175   5.309   6.598  0.1567  0.2047 -0.2276
 1101YOPC   GL212664   1.878   5.482   6.678  0.0760 -0.0758 -0.1143
 1101YOPC   C1A12665   2.222   5.095   7.025 -0.3708  0.1987 -0.0835
 1101YOPC   D2A12666   1.986   4.856   7.335  0.1233 -0.1164  0.0887
 1101YOPC   C3A12667   2.282   4.918   7.763 -0.1410  0.3599 -0.1356
 1101YOPC   C4A12668   2.697   5.071   7.977 -0.2117  0.2236 -0.1272
 1101YOPC   C1B12669   1.949   5.486   7.111 -0.1191 -0.0003  0.3695
 1101YOPC   C2B12670   1.933   5.346   7.564  0.1665 -0.3004  0.0219
 1101YOPC   D3B12671   1.780   4.982   7.766  0.0146 -0.2820  0.0022
 1101YOPC   C4B12672   1.697   4.722   8.131  0.2062 -0.1818 -0.0732
 1102YOPC   NC312673  13.492   6.870   6.386 -0.1773  0.1114  0.2207
 1102YOPC   PO412674  13.107   6.851   6.599 -0.1644  0.2698  0.1090
 1102YOPC   GL112675  13.171   6.767   7.011 -0.1385 -0.0252  0.1416
 1102YOPC   GL212676  12.932   6.935   7.114 -0.0687 -0.1377  0.4878
 1102YOPC   C1A12677  13.164   6.553   7.409 -0.1258 -0.1889  0.0485
 1102YOPC   D2A12678  13.331   6.723   7.765 -0.2362 -0.0715 -0.2283
 1102YOPC   C3A12679  13.230   6.551   8.208 -0.0096  0.1554  0.0791
 1102YOPC   C4A12680  13.069   6.780   8.584 -0.0103  0.2621 -0.0259
 1102YOPC   C1B12681  12.777   6.819   7.526  0.4323  0.0566  0.3151
 1102YOPC   C2B12682  12.847   6.966   7.864  0.1573  0.1015 -0.3671
 1102YOPC   D3B12683  12.417   7.014   8.005  0.1240  0.1090  0.2700
 1102YOPC   C4B12684  12.226   7.039   8.348  0.1119  0.3531  0.1832
 1103YOPC   NC312685  13.183   0.413   6.277  0.1131 -0.0509 -0.1888
 1103YOPC   PO412686  12.735   0.463   6.270 -0.0485  0.1310 -0.0703
 1103YOPC   GL112687  12.512   0.375   6.665  0.0523 -0.2283  0.0813
 1103YOPC   GL212688  12.461   0.722   6.739  0.1275 -0.2294 -0.3109
 1103YOPC   C1A12689  12.676   0.265   7.167  0.0345  0.0820 -0.0474
 1103YOPC   D2A12690  12.772   0.217   7.634 -0.0453  0.1774  0.0228
 1103YOPC   C3A12691  12.601   0.122   8.053 -0.1831 -0.3291 -0.2095
 1103YOPC   C4A12692  12.472   0.353   8.424 -0.0641 -0.0479 -0.1327
 1103YOPC   C1B12693  12.465   0.681   7.112 -0.1322 -0.0773 -0.2560
 1103YOPC   C2B12694  12.423   0.741   7.567 -0.2955 -0.2864  0.3363
 1103YOPC   D3B12695  12.661   0.645   7.923  0.0046  0.1302 -0.0512
 1103YOPC   C4B12696  12.947   0.606   8.298 -0.0399 -0.3674  0.0077
 1104YOPC   NC312697   3.349  10.745   6.406  0.0423  0.2372  0.2106
 1104YOPC   PO412698   3.229  10.436   6.122 -0.1281  0.0076 -0.0147
 1104YOPC   GL112699   3.207  10.343   6.554  0.0341  0.1227  0.3353
 1104YOPC   GL212700   2.932  10.502   6.721 -0.0694 -0.2031 -0.3259
 1104YOPC   C1A12701   3.479  10.163   6.868 -0.0492 -0.1705 -0.4453
 1104YOPC   D2A12702   3.505   9.847   7.185 -0.1136  0.0291 -0.2040
 1104YOPC   C3A12703   3.885   9.658   7.294  0.4363  0.2206 -0.0171
 1104YOPC   C4A12704   4.102   9.507   7.651  0.0423  0.1988  0.2961
 1104YOPC   C1B12705   3.052  10.548   7.126  0.0192  0.0403 -0.1003
 1104YOPC   C2B12706   3.110  10.511   7.489  0.0050  0.1400  0.0037
 1104YOPC   D3B12707   3.030  10.759   7.754  0.1632  0.1197 -0.1695
 1104YOPC   C4B12708   2.611  10.879   7.916 -0.0711 -0.0137 -0.1508
 1105YOPC   NC312709   0.683   3.133   5.734 -0.0556  0.1298 -0.1531
 1105YOPC   PO412710   0.986   2.864   5.820  0.0787  0.1270 -0.1441
 1105YOPC   GL112711   1.079   3.040   6.248  0.1217  0.1759  0.1400
 1105YOPC   GL212712   0.770   3.183   6.447  0.0643  0.3587 -0.0943
 1105YOPC   C1A12713   1.191   3.087   6.702 -0.1529 -0.2240  0.0025
 1105YOPC   D2A12714   1.363   3.151   7.040 -0.1422 -0.0286 -0.1173
 1105YOPC   C3A12715   1.246   2.882   7.324 -0.0163 -0.2738 -0.0757
 1105YOPC   C4A12716   1.379   2.790   7.627 -0.0721 -0.0881 -0.1153
 1105YOPC   C1B12717   0.864   3.452   6.828  0.2616 -0.0373 -0.0261
 1105YOPC   C2B12718   0.929   3.477   7.261 -0.0329  0.2519 -0.1290
 1105YOPC   D3B12719   0.807   3.162   7.616 -0.1712 -0.0378 -0.0767
 1105YOPC   C4B12720   0.615   2.780   7.850  0.2072 -0.1765 -0.0589
 1106YOPC   NC312721  11.968  13.422   6.971  0.0809 -0.1556 -0.0992
 1106YOPC   PO412722  12.066  12.989   7.149 -0.1830 -0.0374  0.0961
 1106YOPC   GL112723  11.807  12.618   7.431 -0.1484 -0.1789 -0.2211
 1106YOPC   GL212724  11.495  12.452   7.309 -0.0142 -0.1320 -0.0776
 1106YOPC   C1A12725  11.783  12.503   7.923  0.2520 -0.2346 -0.2178
 1106YOPC   D2A12726  11.836  12.478   8.304 -0.1475 -0.1882 -0.2027
 1106YOPC   C3A12727  12.154  12.204   8.492 -0.1621 -0.2519  0.0290
 1106YOPC   C4A12728  12.244  12.128   8.881 -0.1573 -0.3044 -0.1155
 1106YOPC   C1B12729  11.557  12.178   7.642 -0.2588 -0.0619  0.1329
 1106YOPC   C2B12730  11.415  12.040   8.075  0.0742  0.0479 -0.0481
 1106YOPC   D3B12731  11.401  12.270   8.370  0.0975  0.2272 -0.2513
 1106YOPC   C4B12732  11.641  12.373   8.729  0.3420 -0.2163  0.1063
 1107YOPC   NC312733   6.529  13.585   6.589  0.3373  0.2300 -0.0891
 1107YOPC   PO412734   6.526  13.913   6.401 -0.0612  0.1205  0.0557
 1107YOPC   GL112735   6.313  13.969   6.828 -0.2179 -0.1711 -0.1467
 1107YOPC   GL212736   6.468  14.140   6.984 -0.1862 -0.1691 -0.3185
 1107YOPC   C1A12737   6.332  13.746   7.248  0.0901 -0.0783  0.2054
 1107YOPC   D2A12738   6.296  13.828   7.651  0.1308 -0.1881 -0.0699
 1107YOPC   C3A12739   6.052  13.494   7.814  0.0826 -0.1485 -0.2235
 1107YOPC   C4A12740   5.778  13.169   7.932  0.0009  0.2667  0.0269
 1107YOPC   C1B12741   6.117  14.266   7.271 -0.2086  0.3162  0.1157
 1107YOPC   C2B12742   6.164  14.290   7.748 -0.0889  0.0517  0.1388
 1107YOPC   D3B12743   6.134  13.918   8.100  0.0930 -0.5898  0.0826
 1107YOPC   C4B12744   5.911  13.589   8.261  0.1218  0.3140  0.0836
 1108YOPC   NC312745  14.468  11.263   6.588 -0.0623  0.0584 -0.0286
 1108YOPC   PO412746  13.977  11.306   6.676 -0.0585 -0.3551  0.0730
 1108YOPC   GL112747  14.194  11.281   7.021 -0.1185 -0.1172 -0.2166
 1108YOPC   GL212748  14.073  11.482   7.329  0.2700 -0.1510 -0.0758
 1108YOPC   C1A12749  14.404  11.092   7.315 -0.1416  0.0666  0.0250
 1108YOPC   D2A12750  14.601  11.503   7.436  0.2089  0.0311  0.2337
 1108YOPC   C3A12751  14.723  11.525   7.852  0.2457 -0.0288  0.0403
 1108YOPC   C4A12752  14.784  11.386   8.272 -0.1008  0.2281 -0.0017
 1108YOPC   C1B12753  14.236  11.433   7.756  0.1132 -0.2237  0.0222
 1108YOPC   C2B12754  14.232  11.463   8.251  0.1047  0.1403  0.1069
 1108YOPC   D3B12755  14.016  11.569   8.540 -0.3882 -0.2913 -0.0568
 1108YOPC   C4B12756  13.757  11.739   8.837 -0.3414  0.1377 -0.1556
 1109YOPC   NC312757  12.773  17.986   6.357  0.0198 -0.1030 -0.1163
 1109YOPC   PO412758  12.313  17.911   6.466  0.2830 -0.1513 -0.0607
 1109YOPC   GL112759  12.107  17.836   6.838 -0.2923  0.2175 -0.2171
 1109YOPC   GL212760  11.793  17.761   6.820 -0.1427  0.2183 -0.3130
 1109YOPC   C1A12761  12.081  17.651   7.228 -0.0666 -0.0242  0.0330
 1109YOPC   D2A12762  12.060  17.604   7.590  0.0523 -0.1467  0.0019
 1109YOPC   C3A12763  12.305  17.639   7.869  0.1215 -0.0757  0.1385
 1109YOPC   C4A12764  12.351  17.799   8.365 -0.2079 -0.2338 -0.2004
 1109YOPC   C1B12765  11.692  17.940   7.249  0.1011 -0.1498  0.1896
 1109YOPC   C2B12766  11.587  18.370   7.472 -0.1936 -0.1908 -0.0115
 1109YOPC   D3B12767  11.693  18.457   7.859 -0.1943  0.2957  0.2536
 1109YOPC   C4B12768  11.508  18.262   8.284  0.2535  0.1135  0.0742
 1110YOPC   NC312769  13.035  13.137   6.472  0.0306  0.3314  0.2673
 1110YOPC   PO412770  13.001  13.340   6.805  0.1637  0.0820  0.3111
 1110YOPC   GL112771  12.938  13.376   7.206 -0.0898 -0.0149 -0.3435
 1110YOPC   GL212772  13.171  13.609   7.416  0.4087 -0.3607 -0.1820
 1110YOPC   C1A12773  12.829  13.320   7.730 -0.0210 -0.2686  0.3876
 1110YOPC   D2A12774  12.752  13.443   8.151  0.1618 -0.1345  0.4729
 1110YOPC   C3A12775  13.009  13.638   8.305  0.0025 -0.1571  0.0374
 1110YOPC   C4A12776  13.314  13.667   8.685  0.1071  0.0581 -0.0093
 1110YOPC   C1B12777  13.202  13.726   7.829  0.2663  0.1008  0.0474
 1110YOPC   C2B12778  13.523  13.763   8.187 -0.1866  0.0780  0.2046
 1110YOPC   D3B12779  13.876  13.655   8.486  0.0926 -0.1499  0.1132
 1110YOPC   C4B12780  13.761  13.761   8.941 -0.1382  0.0779 -0.1754
 1111YOPC   NC312781   7.331  12.416   5.971 -0.0942  0.0801  0.0794
 1111YOPC   PO412782   7.475  12.554   6.396  0.0530  0.1815 -0.3797
 1111YOPC   GL112783   7.580  12.659   6.929 -0.1530 -0.0264 -0.1347
 1111YOPC   GL212784   7.928  12.696   7.082 -0.1856  0.2864 -0.0737
 1111YOPC   C1A12785   7.409  12.788   7.311  0.1906 -0.2607 -0.0879
 1111YOPC   D2A12786   7.475  12.799   7.826  0.2537  0.1928 -0.1956
 1111YOPC   C3A12787   7.223  12.765   8.184 -0.1310 -0.4662  0.0646
 1111YOPC   C4A12788   7.088  12.785   8.599  0.1189  0.0061 -0.1056
 1111YOPC   C1B12789   7.829  12.767   7.538  0.0179 -0.1334 -0.0314
 1111YOPC   C2B12790   7.919  12.844   7.954 -0.2629  0.1900  0.0043
 1111YOPC   D3B12791   7.689  12.804   8.305  0.4472  0.0172 -0.4798
 1111YOPC   C4B12792   7.522  12.981   8.605  0.0273  0.0857 -0.1050
 1112YOPC   NC312793  16.407   1.625   6.274 -0.0609 -0.2362 -0.0312
 1112YOPC   PO412794  16.676   1.433   5.931 -0.1698  0.2237  0.0572
 1112YOPC   GL112795  16.647   1.199   6.401  0.0452 -0.2167  0.1196
 1112YOPC   GL212796  16.265   1.086   6.487 -0.2832 -0.2562 -0.0523
 1112YOPC   C1A12797  16.795   1.342   6.889 -0.2553  0.0562 -0.0612
 1112YOPC   D2A12798  17.024   1.541   7.235 -0.0667 -0.1781 -0.2327
 1112YOPC   C3A12799  17.255   1.436   7.585  0.2059 -0.0791  0.0149
 1112YOPC   C4A12800  17.554   1.386   7.961  0.0311 -0.1531  0.0154
 1112YOPC   C1B12801  16.346   1.112   6.943 -0.0565  0.1521 -0.1872
 1112YOPC   C2B12802  16.535   1.000   7.198  0.2001  0.1325  0.0332
 1112YOPC   D3B12803  16.718   1.045   7.617  0.1510 -0.2315 -0.0624
 1112YOPC   C4B12804  17.011   1.070   7.870 -0.2823 -0.2449 -0.2375
 1113YOPC   NC312805  16.280   9.468   6.484 -0.0928 -0.0858 -0.2024
 1113YOPC   PO412806  15.998   9.116   6.600  0.1486  0.1614  0.0318
 1113YOPC   GL112807  16.189   8.816   6.818  0.0132 -0.0347  0.1852
 1113YOPC   GL212808  16.435   8.971   6.900  0.0803 -0.0418  0.1179
 1113YOPC   C1A12809  16.142   8.778   7.309 -0.1200 -0.1695 -0.0225
 1113YOPC   D2A12810  16.095   8.712   7.677  0.0781  0.1277  0.3114
 1113YOPC   C3A12811  15.743   8.540   7.832 -0.0467 -0.2365 -0.0989
 1113YOPC   C4A12812  15.783   8.428   8.225  0.1463  0.1709  0.1236
 1113YOPC   C1B12813  16.673   8.938   7.188  0.0136 -0.1681  0.1173
 1113YOPC   C2B12814  16.743   8.934   7.636  0.0409  0.0465  0.1826
 1113YOPC   D3B12815  16.514   8.786   8.021 -0.0210  0.3993  0.1067
 1113YOPC   C4B12816  16.116   8.873   8.191  0.0204  0.1737 -0.0314
 1114YOPC   NC312817   1.226   4.964   6.221  0.0428 -0.0176  0.0264
 1114YOPC   PO412818   1.589   4.599   6.142 -0.0647  0.3742  0.1261
 1114YOPC   GL112819   1.776   4.546   6.485 -0.0074 -0.0702 -0.0649
 1114YOPC   GL212820   1.600   4.785   6.639 -0.4818  0.2272  0.2266
 1114YOPC   C1A12821   2.150   4.595   6.767  0.3896  0.3020 -0.0176
 1114YOPC   D2A12822   2.437   4.570   7.098  0.1430  0.0866  0.0179
 1114YOPC   C3A12823   2.342   4.485   7.558  0.0942 -0.3215  0.0669
 1114YOPC   C4A12824   2.180   4.484   8.004  0.2048 -0.2377  0.0046
 1114YOPC   C1B12825   1.677   5.106   6.962  0.5135  0.1124 -0.1417
 1114YOPC   C2B12826   1.377   5.330   7.194 -0.4512 -0.0878 -0.3762
 1114YOPC   D3B12827   1.327   5.217   7.663 -0.0828  0.0138 -0.0198
 1114YOPC   C4B12828   1.433   5.301   7.935  0.3433 -0.0580  0.2041
 1115YOPC   NC312829  17.250   9.141   6.230 -0.2777  0.1360 -0.0207
 1115YOPC   PO412830  17.709   8.994   6.146 -0.2427 -0.1322  0.0610
 1115YOPC   GL112831  17.649   9.233   6.612 -0.1528 -0.1868  0.1141
 1115YOPC   GL212832  17.337   9.438   6.639  0.1756 -0.0945 -0.1895
 1115YOPC   C1A12833  17.792   9.465   6.973 -0.0368  0.0915  0.0578
 1115YOPC   D2A12834  17.947   9.646   7.295  0.1331 -0.0641 -0.0582
 1115YOPC   C3A12835  17.624   9.666   7.676 -0.0159  0.1175  0.3709
 1115YOPC   C4A12836  17.660   9.400   8.090  0.2437 -0.1492 -0.1111
 1115YOPC   C1B12837  17.372   9.640   6.943 -0.1214 -0.0226  0.3118
 1115YOPC   C2B12838  17.196   9.628   7.320 -0.1558 -0.2027 -0.1689
 1115YOPC   D3B12839  17.228   9.366   7.702  0.2742 -0.1919 -0.2452
 1115YOPC   C4B12840  17.215   9.150   8.015  0.0478  0.0053 -0.0427
 1116YOPC   NC312841   0.331  11.403   6.010 -0.0951  0.0818  0.1779
 1116YOPC   PO412842   0.521  11.625   6.295 -0.1536 -0.1932 -0.1579
 1116YOPC   GL112843   0.594  11.697   6.650  0.1428 -0.1699  0.1990
 1116YOPC   GL212844   0.882  11.901   6.549  0.1751  0.2656  0.1423
 1116YOPC   C1A12845   0.601  11.709   7.118 -0.0147 -0.0794 -0.1167
 1116YOPC   D2A12846   0.617  11.808   7.521  0.1637  0.1372 -0.0281
 1116YOPC   C3A12847   0.460  12.007   7.831  0.0582 -0.3354 -0.1393
 1116YOPC   C4A12848   0.274  12.316   8.028  0.1576  0.0341  0.0828
 1116YOPC   C1B12849   1.041  12.168   6.832 -0.1736  0.2332  0.1043
 1116YOPC   C2B12850   1.182  12.521   6.989  0.0952 -0.0743 -0.2532
 1116YOPC   D3B12851   1.139  12.430   7.264 -0.1661  0.0756  0.2499
 1116YOPC   C4B12852   1.327  12.515   7.778 -0.0164 -0.1543  0.0174
 1117YOPC   NC312853  16.897  15.519   6.200  0.1150 -0.2504 -0.0915
 1117YOPC   PO412854  16.516  15.782   6.311 -0.3018  0.0719  0.2830
 1117YOPC   GL112855  16.606  15.602   6.671  0.1000  0.0640  0.3149
 1117YOPC   GL212856  16.411  15.395   6.763  0.2128  0.1936  0.0582
 1117YOPC   C1A12857  16.838  15.568   6.959  0.2363 -0.0953  0.1568
 1117YOPC   D2A12858  17.085  15.712   7.243 -0.0752  0.1361 -0.1084
 1117YOPC   C3A12859  16.901  15.739   7.743  0.1293  0.0116 -0.1673
 1117YOPC   C4A12860  16.847  15.819   8.169 -0.0165  0.2291 -0.0085
 1117YOPC   C1B12861  16.444  15.247   7.088 -0.0665 -0.1838 -0.2354
 1117YOPC   C2B12862  16.454  15.013   7.591  0.1056 -0.0230  0.0723
 1117YOPC   D3B12863  16.658  14.961   7.894  0.0854 -0.0392  0.0158
 1117YOPC   C4B12864  16.846  14.742   8.270  0.1057 -0.3958  0.0822
 1118YOPC   NC312865  17.435   5.761   6.072 -0.0304  0.3181  0.0773
 1118YOPC   PO412866  17.771   5.445   6.025  0.1557  0.0740 -0.1147
 1118YOPC   GL112867  17.613   5.435   6.482 -0.1961 -0.0221  0.1485
 1118YOPC   GL212868  17.371   5.548   6.585  0.0678 -0.1780 -0.0350
 1118YOPC   C1A12869  17.818   5.674   6.867 -0.2903  0.4215  0.1123
 1118YOPC   D2A12870  17.593   5.917   7.208  0.4072  0.0528  0.2519
 1118YOPC   C3A12871  17.321   5.811   7.570  0.2895 -0.0001 -0.2244
 1118YOPC   C4A12872  17.076   5.605   7.895 -0.0924 -0.1500 -0.1764
 1118YOPC   C1B12873  17.368   5.545   7.057  0.2309 -0.1689 -0.3103
 1118YOPC   C2B12874  17.076   5.401   7.312 -0.1865  0.1212 -0.0524
 1118YOPC   D3B12875  17.261   5.275   7.576 -0.2369  0.0502  0.2821
 1118YOPC   C4B12876  17.460   5.236   7.955 -0.0920 -0.0448  0.0614
 1119YOPC   NC312877   1.675  12.396   5.728 -0.0964 -0.0818 -0.2535
 1119YOPC   PO412878   2.153  12.417   5.779 -0.1307  0.0714 -0.1645
 1119YOPC   GL112879   2.222  12.426   6.180  0.2123 -0.0798  0.5166
 1119YOPC   GL212880   2.078  12.257   6.271 -0.0008 -0.1788 -0.1786
 1119YOPC   C1A12881   2.208  12.758   6.411 -0.4127  0.1849 -0.0387
 1119YOPC   D2A12882   2.251  13.143   6.635  0.0644 -0.3818 -0.2995
 1119YOPC   C3A12883   2.369  13.222   6.974  0.0980  0.1143 -0.0368
 1119YOPC   C4A12884   2.469  13.226   7.385 -0.1051 -0.1340  0.1847
 1119YOPC   C1B12885   1.984  12.433   6.710 -0.0717 -0.0328  0.1634
 1119YOPC   C2B12886   2.098  12.739   6.942 -0.0965 -0.1539  0.1151
 1119YOPC   D3B12887   2.235  12.770   7.386 -0.0604  0.0098 -0.2572
 1119YOPC   C4B12888   2.128  12.833   7.771  0.1939  0.0312 -0.1133
 1120YOPC   NC312889   1.558   2.820   5.730 -0.1975  0.0755  0.1170
 1120YOPC   PO412890   1.717   2.427   5.405  0.1634 -0.0683  0.1991
 1120YOPC   GL112891   1.583   2.284   5.850  0.2388  0.0069 -0.3448
 1120YOPC   GL212892   1.879   2.023   5.993  0.2223  0.1190  0.3048
 1120YOPC   C1A12893   1.629   2.360   6.283 -0.0930 -0.1972  0.2240
 1120YOPC   D2A12894   1.556   2.291   6.720 -0.2051  0.2891 -0.1211
 1120YOPC   C3A12895   1.509   2.400   7.162 -0.0369  0.3924 -0.4047
 1120YOPC   C4A12896   1.697   2.360   7.494  0.2483 -0.1248 -0.0208
 1120YOPC   C1B12897   1.696   1.844   6.367  0.1468  0.0105  0.1354
 1120YOPC   C2B12898   1.489   1.579   6.525  0.0230 -0.0811  0.0052
 1120YOPC   D3B12899   1.003   1.500   6.563  0.1868 -0.2173 -0.0803
 1120YOPC   C4B12900   0.577   1.614   6.636 -0.1463  0.3594 -0.1413
 1121YOPC   NC312901   6.275   4.109   5.759 -0.3875 -0.2398  0.2899
 1121YOPC   PO412902   6.734   4.103   5.774  0.1185 -0.2203  0.2655
 1121YOPC   GL112903   6.564   3.917   6.146  0.2450 -0.0904 -0.1575
 1121YOPC   GL212904   6.423   3.523   6.158  0.0829 -0.1369 -0.3354
 1121YOPC   C1A12905   6.849   3.756   6.456  0.0341 -0.1262  0.0009
 1121YOPC   D2A12906   7.108   3.849   6.808 -0.1667  0.2055  0.0441
 1121YOPC   C3A12907   7.012   3.737   7.224 -0.0983 -0.2503  0.0253
 1121YOPC   C4A12908   6.930   3.808   7.689  0.2564 -0.0070 -0.0257
 1121YOPC   C1B12909   6.398   3.579   6.568 -0.1447 -0.0234 -0.1524
 1121YOPC   C2B12910   6.440   3.762   6.952 -0.0551 -0.2202 -0.2643
 1121YOPC   D3B12911   6.563   3.598   7.369 -0.1119  0.2301  0.0010
 1121YOPC   C4B12912   6.510   3.638   7.866  0.0686  0.1537  0.1650
 1122YOPC   NC312913   2.809  15.979   5.704  0.0865 -0.1298  0.0302
 1122YOPC   PO412914   3.015  16.398   5.877 -0.2644 -0.0470  0.0539
 1122YOPC   GL112915   3.009  16.562   6.355 -0.0532  0.2902 -0.0813
 1122YOPC   GL212916   2.718  16.559   6.332 -0.3267  0.1643 -0.0530
 1122YOPC   C1A12917   3.018  16.543   6.805  0.1247  0.1788  0.2140
 1122YOPC   D2A12918   2.860  16.466   7.232 -0.0978 -0.1027  0.0146
 1122YOPC   C3A12919   3.206  16.678   7.467  0.0531  0.0620 -0.1891
 1122YOPC   C4A12920   3.548  16.972   7.707 -0.0886  0.1703  0.0648
 1122YOPC   C1B12921   2.470  16.451   6.706 -0.1107 -0.4100  0.0136
 1122YOPC   C2B12922   2.369  16.462   7.094  0.0277  0.4404 -0.0116
 1122YOPC   D3B12923   2.271  16.377   7.548 -0.1077 -0.2758 -0.2375
 1122YOPC   C4B12924   2.047  16.322   7.894  0.0626  0.3043  0.0192
 1123YOPC   NC312925   2.727   4.975   6.225 -0.2422  0.3053 -0.0479
 1123YOPC   PO412926   3.169   5.054   6.332 -0.0264  0.0186  0.0810
 1123YOPC   GL112927   3.240   5.107   6.716  0.1666 -0.2877  0.1515
 1123YOPC   GL212928   3.333   5.466   6.845  0.1172  0.0269 -0.1865
 1123YOPC   C1A12929   3.249   5.012   7.246  0.2472  0.1328 -0.2208
 1123YOPC   D2A12930   3.349   4.882   7.579 -0.2168 -0.0076 -0.1124
 1123YOPC   C3A12931   3.206   5.071   7.954  0.2830 -0.3033  0.0858
 1123YOPC   C4A12932   3.169   5.053   8.438  0.0350  0.1697  0.0908
 1123YOPC   C1B12933   3.504   5.450   7.236  0.0782 -0.1955 -0.0432
 1123YOPC   C2B12934   3.788   5.158   7.442  0.0107  0.0456  0.1022
 1123YOPC   D3B12935   3.739   5.136   7.914  0.2474 -0.2153  0.2110
 1123YOPC   C4B12936   3.638   4.906   8.321  0.2686 -0.1104  0.2696
 1124YOPC   NC312937   3.967   9.556   6.283  0.1338 -0.0146 -0.0206
 1124YOPC   PO412938   4.198   9.305   6.523 -0.0472  0.0102 -0.4624
 1124YOPC   GL112939   4.364   9.417   6.869  0.1434 -0.1625  0.0512
 1124YOPC   GL212940   4.290   9.318   7.186  0.0625 -0.0959  0.1300
 1124YOPC   C1A12941   4.398   9.858   7.061  0.1044 -0.0430  0.1113
 1124YOPC   D2A12942   3.978  10.174   7.234 -0.1828  0.1201 -0.0520
 1124YOPC   C3A12943   3.790  10.082   7.540 -0.0484 -0.0024  0.0881
 1124YOPC   C4A12944   3.308  10.011   7.614  0.1480  0.2262 -0.0675
 1124YOPC   C1B12945   4.360   9.137   7.452  0.2352  0.0310  0.0184
 1124YOPC   C2B12946   4.444   9.165   7.882  0.0955 -0.1306 -0.0649
 1124YOPC   D3B12947   4.248   9.461   8.096  0.0159  0.2441 -0.1023
 1124YOPC   C4B12948   4.205   9.764   8.434  0.2141  0.0582 -0.1378
 1125YOPC   NC312949  13.753   8.823   6.605 -0.0749 -0.0222 -0.1625
 1125YOPC   PO412950  14.176   8.965   6.704  0.3184  0.0207 -0.1463
 1125YOPC   GL112951  14.338   8.712   7.172 -0.0888 -0.0061  0.0403
 1125YOPC   GL212952  14.168   8.473   7.290 -0.1938  0.1059  0.0164
 1125YOPC   C1A12953  14.596   8.908   7.497  0.0468  0.0506 -0.0668
 1125YOPC   D2A12954  14.459   8.923   7.897 -0.1444 -0.1700 -0.0747
 1125YOPC   C3A12955  14.693   8.788   8.166 -0.1250 -0.1531  0.0178
 1125YOPC   C4A12956  14.807   8.793   8.554  0.0256  0.0207  0.0281
 1125YOPC   C1B12957  14.274   8.560   7.669 -0.1273  0.2781  0.2382
 1125YOPC   C2B12958  14.200   8.542   8.113  0.3854  0.1572 -0.0004
 1125YOPC   D3B12959  14.383   8.383   8.405 -0.0098  0.1934 -0.1322
 1125YOPC   C4B12960  14.635   8.252   8.723 -0.1486  0.0154 -0.0177
 1126YOPC   NC312961  11.750   6.987   6.659 -0.1581 -0.1892 -0.2450
 1126YOPC   PO412962  11.590   7.423   6.571  0.0072  0.1097 -0.0820
 1126YOPC   GL112963  11.770   7.484   6.945 -0.1215 -0.0577 -0.0245
 1126YOPC   GL212964  11.635   7.730   7.097  0.0617 -0.4160 -0.2223
 1126YOPC   C1A12965  11.734   7.321   7.355 -0.0619 -0.0751 -0.1207
 1126YOPC   D2A12966  11.754   7.033   7.693  0.0585 -0.1916  0.1635
 1126YOPC   C3A12967  11.834   7.053   8.047 -0.1274 -0.1555 -0.0543
 1126YOPC   C4A12968  11.810   7.288   8.361  0.0660  0.1927  0.1363
 1126YOPC   C1B12969  11.524   7.694   7.558  0.1400 -0.0937  0.3423
 1126YOPC   C2B12970  11.522   7.504   7.959 -0.1626  0.0754  0.1692
 1126YOPC   D3B12971  11.129   7.433   8.093  0.0274  0.0804 -0.1131
 1126YOPC   C4B12972  11.056   7.407   8.567 -0.2272 -0.2550 -0.3215
 1127YOPC   NC312973  11.909   5.151   6.532  0.1782  0.3938 -0.0656
 1127YOPC   PO412974  11.628   5.046   6.226  0.1061  0.0632 -0.0541
 1127YOPC   GL112975  11.437   5.123   6.682  0.4317  0.1590  0.0624
 1127YOPC   GL212976  11.067   5.271   6.617 -0.0192 -0.2048 -0.1087
 1127YOPC   C1A12977  11.300   4.995   7.069  0.1560  0.0489  0.0885
 1127YOPC   D2A12978  10.996   4.997   7.478  0.2723  0.1299  0.5012
 1127YOPC   C3A12979  11.144   4.847   7.873  0.0798  0.0558 -0.0162
 1127YOPC   C4A12980  11.432   4.548   7.986 -0.0334 -0.2419 -0.3254
 1127YOPC   C1B12981  10.833   5.219   7.022  0.0410 -0.2548  0.0851
 1127YOPC   C2B12982  10.568   5.325   7.359 -0.6354  0.0866 -0.0505
 1127YOPC   D3B12983  10.719   5.237   7.816 -0.1745  0.2657 -0.1513
 1127YOPC   C4B12984  10.551   5.375   8.180  0.2239 -0.0969  0.3253
 1128YOPC   NC312985  10.084   0.719   6.623  0.0974 -0.2309 -0.2955
 1128YOPC   PO412986   9.736   0.574   6.405 -0.0150  0.1099  0.1719
 1128YOPC   GL112987   9.573   0.370   6.807 -0.0878  0.0091 -0.1674
 1128YOPC   GL212988   9.834   0.281   7.048 -0.1449  0.0174  0.1865
 1128YOPC   C1A12989   9.365   0.370   7.206  0.0984 -0.0816 -0.1694
 1128YOPC   D2A12990   9.311   0.297   7.662 -0.2270  0.1590  0.1335
 1128YOPC   C3A12991   9.448   0.110   8.059  0.0635 -0.1927  0.2620
 1128YOPC   C4A12992   9.527   0.125   8.451 -0.3064 -0.0379 -0.0891
 1128YOPC   C1B12993   9.775   0.222   7.470  0.0478  0.0551 -0.2999
 1128YOPC   C2B12994   9.917   0.058   7.991  0.2202 -0.0367 -0.1091
 1128YOPC   D3B12995  10.051   0.295   8.329 -0.1446  0.1244 -0.1199
 1128YOPC   C4B12996   9.870   0.398   8.777  0.0266  0.0789  0.0775
 1129YOPC   NC312997   1.490  13.322   5.846 -0.1540 -0.0726  0.1293
 1129YOPC   PO412998   1.935  13.370   5.706  0.0555 -0.2783  0.2676
 1129YOPC   GL112999   1.871  13.358   6.176 -0.1087 -0.2805 -0.2857
 1129YOPC   GL213000   1.926  13.619   6.373  0.0767  0.0221 -0.2003
 1129YOPC   C1A13001   1.769  13.183   6.577  0.0517 -0.0210 -0.0447
 1129YOPC   D2A13002   1.807  13.214   6.967 -0.1046 -0.0095  0.0080
 1129YOPC   C3A13003   1.981  13.211   7.365  0.0153 -0.1458  0.1757
 1129YOPC   C4A13004   2.178  13.357   7.754 -0.0428 -0.1312 -0.0802
 1129YOPC   C1B13005   2.099  13.601   6.850  0.1498 -0.4011  0.1790
 1129YOPC   C2B13006   2.203  13.656   7.266  0.1869 -0.1237 -0.0075
 1129YOPC   D3B13007   2.032  14.021   7.535  0.4441  0.0562 -0.3211
 1129YOPC   C4B13008   2.183  14.451   7.684  0.1111  0.0766 -0.3409
 1130YOPC   NC313009  11.989   6.219   6.381  0.0231 -0.0677 -0.1331
 1130YOPC   PO413010  11.624   6.024   6.585 -0.1686  0.0558 -0.0246
 1130YOPC   GL113011  11.737   5.957   6.971  0.3018 -0.2394 -0.0080
 1130YOPC   GL213012  12.016   5.832   6.849  0.0883  0.2599  0.2532
 1130YOPC   C1A13013  11.632   5.820   7.324  0.2859 -0.0401  0.2763
 1130YOPC   D2A13014  11.531   5.716   7.750  0.0685 -0.0457  0.3057
 1130YOPC   C3A13015  11.443   5.360   8.023  0.3171 -0.1245  0.1952
 1130YOPC   C4A13016  11.607   4.990   7.932 -0.0927 -0.0959 -0.2565
 1130YOPC   C1B13017  12.163   5.907   7.177 -0.0472  0.1690  0.3381
 1130YOPC   C2B13018  12.259   6.053   7.591 -0.0664 -0.1237 -0.0567
 1130YOPC   D3B13019  12.498   6.355   7.861 -0.0053  0.1457  0.1468
 1130YOPC   C4B13020  12.692   6.344   8.280 -0.0988 -0.1712 -0.1213
 1131YOPC   NC313021   2.004  10.464   6.108  0.1908  0.1881 -0.2674
 1131YOPC   PO413022   2.413  10.336   6.145 -0.1975 -0.0366  0.1680
 1131YOPC   GL113023   2.261  10.521   6.523  0.2110  0.1004  0.0721
 1131YOPC   GL213024   1.931  10.695   6.532 -0.0677  0.1828 -0.0445
 1131YOPC   C1A13025   2.540  10.648   6.941  0.0409 -0.1210  0.1816
 1131YOPC   D2A13026   2.644  10.842   7.362 -0.1006  0.1247  0.1786
 1131YOPC   C3A13027   2.763  11.214   7.524  0.1348 -0.0557 -0.0323
 1131YOPC   C4A13028   3.005  11.229   7.912  0.0426  0.1772 -0.0654
 1131YOPC   C1B13029   1.969  10.844   6.880 -0.0977 -0.1195  0.0018
 1131YOPC   C2B13030   1.780  10.857   7.209  0.0247  0.0692 -0.1986
 1131YOPC   D3B13031   1.619  11.158   7.389 -0.2023  0.0608 -0.2231
 1131YOPC   C4B13032   1.304  11.320   7.449 -0.0140 -0.0081  0.0904
 1132YOPC   NC313033   0.775   1.526   6.072 -0.0402  0.0663 -0.3444
 1132YOPC   PO413034   1.103   1.326   5.948 -0.1670 -0.2813 -0.1378
 1132YOPC   GL113035   1.350   1.174   6.298 -0.2354 -0.2106 -0.2630
 1132YOPC   GL213036   1.605   0.908   6.262 -0.1523 -0.0554  0.1660
 1132YOPC   C1A13037   1.355   1.185   6.782  0.0389 -0.1325 -0.1978
 1132YOPC   D2A13038   1.511   0.933   7.178 -0.1439 -0.1131  0.0972
 1132YOPC   C3A13039   1.527   1.077   7.543 -0.0150 -0.0372  0.0910
 1132YOPC   C4A13040   1.272   1.173   7.914 -0.0466  0.3010  0.0351
 1132YOPC   C1B13041   1.749   0.786   6.765  0.1689 -0.4192 -0.1157
 1132YOPC   C2B13042   2.028   0.497   6.945  0.1251 -0.3245  0.2294
 1132YOPC   D3B13043   2.145   0.118   6.848 -0.1943 -0.1256  0.0513
 1132YOPC   C4B13044   2.469  -0.225   6.738 -0.4905  0.0350  0.2664
 1133YOPC   NC313045  13.456   8.150   6.776  0.0668 -0.1450  0.0389
 1133YOPC   PO413046  13.407   8.566   6.815 -0.2618  0.1716  0.1188
 1133YOPC   GL113047  13.679   8.606   7.198 -0.4085  0.1189  0.0772
 1133YOPC   GL213048  13.873   8.838   7.111  0.2781  0.0749  0.1593
 1133YOPC   C1A13049  13.786   8.594   7.665  0.0616  0.0673  0.0360
 1133YOPC   D2A13050  13.548   8.627   7.993  0.1133 -0.1593  0.0743
 1133YOPC   C3A13051  13.708   8.599   8.233 -0.0752 -0.3109  0.1023
 1133YOPC   C4A13052  13.711   8.466   8.510  0.0227 -0.0637 -0.2559
 1133YOPC   C1B13053  14.062   8.979   7.510 -0.0302  0.0984 -0.2278
 1133YOPC   C2B13054  13.961   8.917   7.922  0.0335  0.0068  0.0359
 1133YOPC   D3B13055  14.148   9.055   8.337 -0.1205  0.0908 -0.0161
 1133YOPC   C4B13056  14.076   8.794   8.649 -0.1419 -0.1457  0.1335
 1134YOPC   NC313057   9.907  14.438   7.078 -0.2342 -0.0258 -0.0708
 1134YOPC   PO413058  10.184  14.802   7.108  0.0954  0.2023  0.1555
 1134YOPC   GL113059  10.309  15.093   7.378 -0.0334  0.2520  0.0804
 1134YOPC   GL213060  10.162  15.330   7.583  0.1656  0.0004 -0.1026
 1134YOPC   C1A13061  10.491  15.089   7.880  0.3459 -0.2062  0.1539
 1134YOPC   D2A13062  10.772  15.110   8.258  0.3970  0.2186 -0.2872
 1134YOPC   C3A13063  10.871  15.228   8.680 -0.1030 -0.0382 -0.0219
 1134YOPC   C4A13064  11.281  15.473   8.901 -0.1303  0.0288  0.3728
 1134YOPC   C1B13065  10.068  15.427   8.004 -0.1727 -0.1085 -0.3251
 1134YOPC   C2B13066   9.973  15.725   8.307 -0.0553  0.2097 -0.0876
 1134YOPC   D3B13067  10.289  15.765   8.552  0.1759 -0.3172 -0.0923
 1134YOPC   C4B13068  10.589  15.622   8.673  0.1606 -0.0641  0.3181
 1135YOPC   NC313069   5.282  16.687   5.732 -0.2606  0.3024  0.0943
 1135YOPC   PO413070   4.968  17.000   5.890 -0.0656  0.1426 -0.3452
 1135YOPC   GL113071   4.721  17.091   6.136  0.1671  0.3252 -0.1484
 1135YOPC   GL213072   4.438  17.108   6.042  0.2375 -0.1887  0.0674
 1135YOPC   C1A13073   4.678  17.151   6.582  0.2261  0.0729  0.0554
 1135YOPC   D2A13074   4.918  16.995   6.814  0.5918 -0.2311  0.1000
 1135YOPC   C3A13075   5.051  16.910   7.205  0.0762 -0.2818 -0.1243
 1135YOPC   C4A13076   4.922  16.675   7.469  0.1175 -0.1324 -0.3047
 1135YOPC   C1B13077   4.162  17.106   6.367 -0.1635  0.3328  0.0557
 1135YOPC   C2B13078   3.956  16.959   6.621 -0.0995 -0.0570 -0.2013
 1135YOPC   D3B13079   3.970  17.069   7.056  0.2219  0.2494 -0.1031
 1135YOPC   C4B13080   3.972  17.165   7.561 -0.0428  0.0657  0.2120
 1136YOPC   NC313081   7.715  17.355   6.209 -0.0077  0.1788 -0.0704
 1136YOPC   PO413082   7.452  16.886   6.322 -0.2750 -0.0004  0.1186
 1136YOPC   GL113083   7.430  17.135   6.659 -0.1761 -0.0012 -0.1336
 1136YOPC   GL213084   7.137  17.251   6.816  0.1239  0.2685 -0.2048
 1136YOPC   C1A13085   7.651  17.099   7.074 -0.4472 -0.0012 -0.1025
 1136YOPC   D2A13086   7.610  17.192   7.564  0.1999 -0.0142 -0.2763
 1136YOPC   C3A13087   7.757  17.531   7.796  0.3249  0.1340  0.0001
 1136YOPC   C4A13088   7.489  17.812   8.056  0.0559  0.1267 -0.1129
 1136YOPC   C1B13089   7.020  17.156   7.237 -0.1930 -0.1921  0.0999
 1136YOPC   C2B13090   6.979  17.099   7.725  0.3110 -0.0909  0.4250
 1136YOPC   D3B13091   7.307  17.357   7.940 -0.0443  0.0903  0.0820
 1136YOPC   C4B13092   7.745  17.135   8.085  0.0928  0.1914  0.0655
 1137YOPC   NC313093   0.863  17.779   5.658  0.2067  0.1551  0.1657
 1137YOPC   PO413094   1.052  18.157   5.536  0.1833  0.0293  0.1633
 1137YOPC   GL113095   1.096  18.380   5.972  0.3193 -0.2490 -0.0095
 1137YOPC   GL213096   1.398  18.474   6.048  0.1149  0.0875  0.0934
 1137YOPC   C1A13097   1.018  18.210   6.416 -0.2487 -0.1660  0.2116
 1137YOPC   D2A13098   1.042  18.186   6.850 -0.1948 -0.0189  0.2395
 1137YOPC   C3A13099   0.590  18.103   6.939 -0.2240  0.0534 -0.1707
 1137YOPC   C4A13100   0.218  18.296   6.812  0.0174  0.3500 -0.0227
 1137YOPC   C1B13101   1.292  18.576   6.421 -0.1866 -0.2052 -0.0145
 1137YOPC   C2B13102   1.234  18.665   6.818  0.1713  0.2095  0.2418
 1137YOPC   D3B13103   1.160  18.482   7.242 -0.0498 -0.0992 -0.1189
 1137YOPC   C4B13104   1.191  18.032   7.399 -0.0252  0.1857 -0.2432
 1138YOPC   NC313105   4.097   8.897   6.794 -0.1395  0.0561  0.0136
 1138YOPC   PO413106   4.240   8.489   6.674 -0.0821 -0.0909 -0.4443
 1138YOPC   GL113107   4.063   8.369   7.036  0.0903 -0.1890  0.1206
 1138YOPC   GL213108   3.892   8.062   6.964  0.0795  0.3025  0.2477
 1138YOPC   C1A13109   4.044   8.264   7.479  0.0300  0.1689 -0.0385
 1138YOPC   D2A13110   4.224   8.205   7.861 -0.0372 -0.2601  0.3336
 1138YOPC   C3A13111   3.987   8.120   8.152  0.0377 -0.1508 -0.1243
 1138YOPC   C4A13112   4.204   7.925   8.546  0.0318  0.0408  0.0855
 1138YOPC   C1B13113   3.586   8.239   7.161  0.2871  0.2005 -0.3288
 1138YOPC   C2B13114   3.303   8.205   7.425 -0.1170 -0.2274  0.1189
 1138YOPC   D3B13115   3.129   8.383   7.812  0.0191 -0.0729  0.0782
 1138YOPC   C4B13116   2.771   8.447   7.955 -0.1672  0.2993 -0.1097
 1139YOPC   NC313117  17.598   2.457   5.973 -0.1939  0.2102 -0.1809
 1139YOPC   PO413118  17.765   2.877   5.915  0.2459  0.0682 -0.2927
 1139YOPC   GL113119  17.993   2.691   6.272  0.0588 -0.0028 -0.1151
 1139YOPC   GL213120  18.256   2.875   6.413 -0.2060  0.0067 -0.1435
 1139YOPC   C1A13121  17.922   2.408   6.628 -0.2433 -0.0611 -0.2395
 1139YOPC   D2A13122  18.182   2.266   7.000  0.0322 -0.0260 -0.2028
 1139YOPC   C3A13123  17.963   2.034   7.324 -0.2120  0.1517 -0.0557
 1139YOPC   C4A13124  17.660   1.799   7.657  0.2262 -0.2077 -0.2314
 1139YOPC   C1B13125  18.179   2.764   6.883 -0.2692 -0.3585  0.3097
 1139YOPC   C2B13126  18.386   2.694   7.236  0.1048 -0.2810 -0.3427
 1139YOPC   D3B13127  18.391   2.449   7.552  0.0530 -0.2235 -0.1226
 1139YOPC   C4B13128  18.247   2.049   7.757  0.0245  0.2366  0.4343
 1140YOPC   NC313129   8.748  15.317   6.098 -0.2831 -0.0074  0.0823
 1140YOPC   PO413130   8.782  15.233   6.524  0.3000 -0.1621 -0.2955
 1140YOPC   GL113131   8.792  15.231   6.988 -0.2566  0.1226  0.1206
 1140YOPC   GL213132   8.534  15.284   7.158  0.1315  0.1324  0.1597
 1140YOPC   C1A13133   8.896  15.467   7.460  0.1993 -0.2134 -0.0080
 1140YOPC   D2A13134   8.894  15.516   7.922 -0.1310 -0.1505  0.1445
 1140YOPC   C3A13135   8.716  15.297   8.196 -0.0532 -0.0469  0.1415
 1140YOPC   C4A13136   8.709  14.916   8.262 -0.1709  0.3939 -0.1288
 1140YOPC   C1B13137   8.528  15.126   7.547  0.2697 -0.3325 -0.1301
 1140YOPC   C2B13138   8.766  15.005   7.792 -0.0929 -0.3753  0.0387
 1140YOPC   D3B13139   8.730  14.541   7.925 -0.1432  0.1626 -0.2680
 1140YOPC   C4B13140   8.801  14.041   7.999 -0.2773  0.2464  0.1893
 1141ERGO   ROH13141  13.953   4.192   9.907  0.0435 -0.0633  0.0374
 1141ERGO    R113142  13.986   4.215   9.627  0.0083  0.0441  0.0418
 1141ERGO    R213143  13.914   4.014   9.452  0.0658  0.0775 -0.0187
 1141ERGO    R313144  13.770   4.212   9.334 -0.0184  0.0644  0.0607
 1141ERGO    R413145  13.877   4.054   9.110  0.1375  0.2577 -0.0061
 1141ERGO    R513146  13.897   4.270   9.139  0.0036  0.2551  0.1287
 1141ERGO    C113147  13.720   4.264   8.801  0.1001  0.3502  0.0757
 1141ERGO    C213148  13.591   4.413   8.520  0.1096 -0.0617  0.1025
 1142ERGO   ROH13149   7.506  15.231   6.888 -0.3276  0.0866 -0.0292
 1142ERGO    R113150   7.443  15.158   7.155 -0.3702  0.0628 -0.0454
 1142ERGO    R213151   7.562  15.278   7.373 -0.1936 -0.1540 -0.0190
 1142ERGO    R313152   7.305  15.324   7.448 -0.1310  0.1209  0.0365
 1142ERGO    R413153   7.461  15.368   7.691 -0.0425 -0.1992  0.0422
 1142ERGO    R513154   7.290  15.235   7.670 -0.2098  0.0191 -0.0087
 1142ERGO    C113155   7.161  15.464   7.947  0.1041  0.0326  0.1299
 1142ERGO    C213156   7.132  15.726   8.285 -0.0596 -0.2304  0.1008
 1143ERGO   ROH13157   1.134   2.433   6.097  0.2531  0.0004 -0.0498
 1143ERGO    R113158   1.157   2.390   6.376  0.2797  0.1029 -0.0360
 1143ERGO    R213159   1.210   2.595   6.554 -0.0740  0.2358 -0.0766
 1143ERGO    R313160   0.985   2.504   6.675  0.0476 -0.0981 -0.0892
 1143ERGO    R413161   1.156   2.595   6.895 -0.1732  0.3583 -0.0920
 1143ERGO    R513162   1.063   2.399   6.876  0.1850  0.1692  0.0034
 1143ERGO    C113163   0.912   2.511   7.208 -0.1168  0.1162 -0.1128
 1143ERGO    C213164   0.944   2.516   7.464  0.1054  0.1459 -0.0179
 1144ERGO   ROH13165   1.303  12.401   9.590  0.0626  0.0668 -0.1151
 1144ERGO    R113166   1.208  12.527   9.354  0.0682 -0.0291 -0.1680
 1144ERGO    R213167   1.368  12.567   9.133  0.0963 -0.0403 -0.1451
 1144ERGO    R313168   1.168  12.436   9.004  0.1634 -0.1376 -0.1525
 1144ERGO    R413169   1.250  12.650   8.819  0.2215 -0.2291 -0.2446
 1144ERGO    R513170   1.048  12.610   8.891  0.1920 -0.2097 -0.3035
 1144ERGO    C113171   0.994  12.575   8.515  0.3574 -0.4304 -0.3096
 1144ERGO    C213172   1.023  12.729   8.189  0.1308 -0.0077  0.0104
 1145ERGO   ROH13173  13.099  14.198  10.403  0.1539  0.0452  0.0528
 1145ERGO    R113174  13.113  14.327  10.152  0.0678  0.0168  0.0326
 1145ERGO    R213175  13.348  14.345  10.007  0.0337  0.0602 -0.0190
 1145ERGO    R313176  13.197  14.233   9.811  0.0221 -0.0052  0.0273
 1145ERGO    R413177  13.398  14.393   9.669 -0.0378  0.0153 -0.0359
 1145ERGO    R513178  13.182  14.404   9.643 -0.0450 -0.0360  0.0018
 1145ERGO    C113179  13.286  14.316   9.287 -0.0903 -0.0723 -0.0022
 1145ERGO    C213180  13.452  14.122   9.032 -0.2149 -0.2323 -0.3870
 1146ERGO   ROH13181  16.367   8.279   7.065  0.1743 -0.2314 -0.0353
 1146ERGO    R113182  16.523   8.400   7.267  0.1568 -0.1444 -0.0736
 1146ERGO    R213183  16.471   8.365   7.536  0.1016  0.0127 -0.0628
 1146ERGO    R313184  16.731   8.288   7.544  0.0881 -0.0261  0.0276
 1146ERGO    R413185  16.663   8.349   7.823  0.0066  0.0063  0.0012
 1146ERGO    R513186  16.830   8.431   7.709  0.0562 -0.0277  0.0486
 1146ERGO    C113187  17.020   8.269   7.997 -0.0614 -0.0339  0.1234
 1146ERGO    C213188  17.097   8.287   8.276 -0.2203  0.1939  0.1584
 1147ERGO   ROH13189   8.643   4.963   9.462  0.0459  0.1315 -0.0398
 1147ERGO    R113190   8.637   5.038   9.189  0.2506  0.0834 -0.0586
 1147ERGO    R213191   8.863   5.037   9.030  0.2866 -0.4068 -0.0148
 1147ERGO    R313192   8.710   4.880   8.870 -0.0026 -0.1400 -0.0098
 1147ERGO    R413193   8.854   5.056   8.685  0.1043 -0.2076 -0.0017
 1147ERGO    R513194   8.639   5.026   8.694  0.0660  0.0471  0.1107
 1147ERGO    C113195   8.705   4.919   8.334 -0.2734  0.1589  0.0105
 1147ERGO    C213196   8.859   5.011   8.043 -0.2584 -0.1202 -0.0293
 1148ERGO   ROH13197   3.480  10.799   9.977  0.1689  0.3005  0.0365
 1148ERGO    R113198   3.682  10.687   9.813  0.0037  0.0364  0.0069
 1148ERGO    R213199   3.662  10.680   9.538 -0.0328  0.0894  0.0084
 1148ERGO    R313200   3.904  10.805   9.550  0.1450 -0.2416 -0.0020
 1148ERGO    R413201   3.869  10.735   9.266 -0.1738  0.1904 -0.0798
 1148ERGO    R513202   4.040  10.685   9.393 -0.1335 -0.2112 -0.2770
 1148ERGO    C113203   4.216  10.885   9.119 -0.0888 -0.0614 -0.1409
 1148ERGO    C213204   4.318  10.878   8.813  0.0001  0.1905 -0.4496
 1149ERGO   ROH13205  16.579  11.900   7.001  0.2235 -0.1724 -0.0604
 1149ERGO    R113206  16.706  11.696   7.152  0.2048 -0.2337 -0.1265
 1149ERGO    R213207  16.931  11.563   7.062  0.3140 -0.0827 -0.0802
 1149ERGO    R313208  17.033  11.643   7.301  0.1303 -0.2156  0.0450
 1149ERGO    R413209  17.217  11.435   7.208  0.3068 -0.0336 -0.0228
 1149ERGO    R513210  17.116  11.442   7.401  0.1909 -0.2499 -0.0724
 1149ERGO    C113211  17.480  11.435   7.517  0.1302 -0.1298  0.1281
 1149ERGO    C213212  17.904  11.577   7.555  0.1248 -0.0565 -0.1979
 1150ERGO   ROH13213   8.005   6.902   6.633  0.3303 -0.0565 -0.0559
 1150ERGO    R113214   7.950   7.010   6.889  0.2443 -0.0244 -0.0879
 1150ERGO    R213215   7.933   6.853   7.115  0.3480  0.0248 -0.0461
 1150ERGO    R313216   8.120   7.027   7.210  0.2223  0.1855 -0.0860
 1150ERGO    R413217   7.991   6.916   7.450  0.3027  0.1501 -0.0608
 1150ERGO    R513218   8.015   7.128   7.401  0.1484  0.1564 -0.1113
 1150ERGO    C113219   8.200   7.116   7.735  0.1583  0.3739 -0.1067
 1150ERGO    C213220   8.177   6.882   8.031 -0.0176  0.3652 -0.2810
 1151ERGO   ROH13221   5.862   2.896   6.323 -0.2204  0.0495 -0.2049
 1151ERGO    R113222   5.775   3.060   6.537 -0.1599 -0.0257 -0.1207
 1151ERGO    R213223   5.790   2.981   6.801  0.0490 -0.0630 -0.1383
 1151ERGO    R313224   5.925   3.215   6.830 -0.0399 -0.0050 -0.1942
 1151ERGO    R413225   5.912   3.103   7.100  0.4042 -0.1639 -0.2371
 1151ERGO    R513226   5.849   3.302   7.039  0.2061 -0.1656 -0.0353
 1151ERGO    C113227   6.110   3.394   7.302  0.5277 -0.1683 -0.3471
 1151ERGO    C213228   6.192   3.277   7.662  0.0010  0.1220  0.0173
 1152ERGO   ROH13229   5.227   1.574   6.213  0.1282 -0.0325 -0.1905
 1152ERGO    R113230   5.424   1.488   6.396  0.3299  0.1997 -0.2947
 1152ERGO    R213231   5.600   1.662   6.518 -0.1761  0.4957  0.0328
 1152ERGO    R313232   5.505   1.547   6.745  0.0768 -0.1595 -0.1678
 1152ERGO    R413233   5.741   1.699   6.832 -0.4556  0.5604  0.1547
 1152ERGO    R513234   5.702   1.487   6.869  0.2422  0.3406 -0.1584
 1152ERGO    C113235   5.733   1.612   7.228 -0.3811 -0.0171  0.0373
 1152ERGO    C213236   5.694   1.699   7.518  0.1244  0.3030 -0.2941
 1153ERGO   ROH13237   3.626   1.519   6.108 -0.2132 -0.1475 -0.1853
 1153ERGO    R113238   3.504   1.411   6.339 -0.1015 -0.3012 -0.1969
 1153ERGO    R213239   3.644   1.264   6.526  0.0922 -0.0369 -0.1282
 1153ERGO    R313240   3.541   1.447   6.699 -0.2558 -0.1635 -0.1934
 1153ERGO    R413241   3.641   1.231   6.870  0.1011  0.0528 -0.1193
 1153ERGO    R513242   3.440   1.315   6.872 -0.0528 -0.2961 -0.1726
 1153ERGO    C113243   3.543   1.383   7.233 -0.2204 -0.0138 -0.1754
 1153ERGO    C213244   3.548   1.375   7.619  0.1641  0.0344 -0.1831
 1154ERGO   ROH13245   2.814  14.089   9.154  0.1522  0.2107  0.0967
 1154ERGO    R113246   2.885  13.996   8.896 -0.0264  0.0746  0.0946
 1154ERGO    R213247   2.735  14.051   8.672 -0.0342  0.1968  0.1248
 1154ERGO    R313248   2.971  14.144   8.575  0.0473 -0.0860  0.0404
 1154ERGO    R413249   2.798  14.118   8.339 -0.2422  0.6033  0.1604
 1154ERGO    R513250   2.998  14.032   8.365 -0.3677  0.1898 -0.1698
 1154ERGO    C113251   3.057  14.245   8.054 -0.2868  0.5745  0.1017
 1154ERGO    C213252   3.225  14.422   7.753  0.3709 -0.2650  0.4530
 1155ERGO   ROH13253  13.952   4.553   6.757  0.0392  0.1339 -0.0190
 1155ERGO    R113254  13.993   4.699   6.996  0.0068  0.0773  0.0209
 1155ERGO    R213255  13.791   4.841   7.120 -0.0161  0.0198  0.0430
 1155ERGO    R313256  13.864   4.692   7.336 -0.0127 -0.0242  0.0126
 1155ERGO    R413257  13.814   4.960   7.444  0.1196 -0.0072  0.0443
 1155ERGO    R513258  13.995   4.841   7.470  0.0839 -0.0807 -0.0143
 1155ERGO    C113259  13.896   4.890   7.835  0.2018 -0.0643  0.0166
 1155ERGO    C213260  13.880   4.936   8.206 -0.1456 -0.0542  0.1084
 1156ERGO   ROH13261  14.403   1.853   6.597 -0.0288 -0.3277 -0.1259
 1156ERGO    R113262  14.584   1.906   6.808 -0.0431 -0.1078 -0.1665
 1156ERGO    R213263  14.530   2.088   7.008 -0.1753 -0.0970 -0.2104
 1156ERGO    R313264  14.584   1.877   7.171  0.0352 -0.0064 -0.1582
 1156ERGO    R413265  14.635   2.113   7.337 -0.2908  0.0856 -0.1858
 1156ERGO    R513266  14.772   1.947   7.300 -0.0819  0.2417 -0.1193
 1156ERGO    C113267  14.746   1.929   7.681 -0.1603  0.2769 -0.1225
 1156ERGO    C213268  14.791   1.960   8.072 -0.0465 -0.1237  0.2995
 1157ERGO   ROH13269   9.299   0.757   6.750 -0.0491  0.2720  0.0033
 1157ERGO    R113270   9.282   0.791   7.031  0.0158  0.2258  0.0140
 1157ERGO    R213271   9.084   0.943   7.150 -0.0720  0.0545  0.0989
 1157ERGO    R313272   9.040   0.715   7.291  0.1606 -0.0013  0.0837
 1157ERGO    R413273   8.941   0.928   7.465 -0.1323 -0.1242  0.0634
 1157ERGO    R513274   9.085   0.775   7.518  0.0340  0.0446  0.0943
 1157ERGO    C113275   8.816   0.706   7.780  0.0510 -0.2806  0.0284
 1157ERGO    C213276   8.552   0.551   7.977 -0.1575  0.0133 -0.2377
 1158ERGO   ROH13277   7.709  17.568   6.815  0.0700  0.1223 -0.0309
 1158ERGO    R113278   7.469  17.616   6.956  0.0184  0.0929 -0.1074
 1158ERGO    R213279   7.425  17.521   7.212 -0.0880  0.0106 -0.1530
 1158ERGO    R313280   7.372  17.782   7.265 -0.0869 -0.0026 -0.0891
 1158ERGO    R413281   7.287  17.639   7.506  0.1553 -0.0285 -0.0208
 1158ERGO    R513282   7.167  17.777   7.388  0.0252 -0.0436  0.0962
 1158ERGO    C113283   7.157  17.953   7.727  0.2981 -0.0637  0.1162
 1158ERGO    C213284   7.072  18.248   7.967 -0.2540 -0.0107  0.1233
 1159ERGO   ROH13285   0.940  12.209   9.873  0.0174 -0.0069 -0.0675
 1159ERGO    R113286   0.946  12.155   9.595 -0.0380 -0.0052 -0.0696
 1159ERGO    R213287   0.724  12.065   9.456 -0.0839  0.0514 -0.0391
 1159ERGO    R313288   0.777  12.280   9.298 -0.0521  0.0418 -0.0406
 1159ERGO    R413289   0.625  12.098   9.127 -0.0899  0.0779 -0.0344
 1159ERGO    R513290   0.819  12.186   9.082 -0.0794  0.0408 -0.0422
 1159ERGO    C113291   0.617  12.319   8.787 -0.0635  0.0842 -0.0332
 1159ERGO    C213292   0.559  12.424   8.520 -0.0361  0.2605  0.1612
 1160ERGO   ROH13293   9.472   0.771   9.715 -0.0323  0.1591 -0.0009
 1160ERGO    R113294   9.411   0.664   9.460  0.0382  0.0904  0.0113
 1160ERGO    R213295   9.262   0.801   9.273  0.0202  0.0045 -0.0340
 1160ERGO    R313296   9.477   0.753   9.113  0.0563  0.0439  0.0020
 1160ERGO    R413297   9.243   0.694   8.945  0.0910 -0.1504  0.0110
 1160ERGO    R513298   9.412   0.561   8.984  0.1592 -0.0489  0.0819
 1160ERGO    C113299   9.433   0.587   8.604  0.1662 -0.2035  0.0710
 1160ERGO    C213300   9.629   0.649   8.325 -0.1884 -0.0517 -0.0843
 1161ERGO   ROH13301  11.574  10.776   7.235  0.0417 -0.1464 -0.0714
 1161ERGO    R113302  11.491  10.654   7.477 -0.0882  0.0324 -0.0241
 1161ERGO    R213303  11.668  10.538   7.655 -0.2130 -0.1357 -0.0068
 1161ERGO    R313304  11.548  10.705   7.832  0.0121  0.0727 -0.0458
 1161ERGO    R413305  11.687  10.508   7.998 -0.2534 -0.0809  0.0004
 1161ERGO    R513306  11.477  10.562   8.010 -0.1841  0.2096 -0.0111
 1161ERGO    C113307  11.586  10.647   8.365 -0.0654  0.1469 -0.0321
 1161ERGO    C213308  11.494  10.694   8.734 -0.2288 -0.0690 -0.1084
 1162ERGO   ROH13309   3.123  15.108   6.089  0.1223  0.0852 -0.0191
 1162ERGO    R113310   3.237  15.051   6.342  0.0153  0.0840  0.0303
 1162ERGO    R213311   3.239  15.234   6.549  0.0187  0.1228  0.0028
 1162ERGO    R313312   3.120  15.032   6.686 -0.1111  0.1924 -0.0075
 1162ERGO    R413313   3.217  15.214   6.893  0.0682  0.0723  0.0025
 1162ERGO    R513314   3.258  15.001   6.879 -0.1021  0.0477 -0.0418
 1162ERGO    C113315   3.092  15.012   7.222 -0.0249  0.1085 -0.0073
 1162ERGO    C213316   3.113  14.898   7.530  0.0701 -0.0287  0.0160
 1163ERGO   ROH13317  17.549  15.071   9.743  0.1381 -0.1570  0.1142
 1163ERGO    R113318  17.571  14.964   9.482 -0.0692 -0.0628  0.0555
 1163ERGO    R213319  17.433  15.067   9.266  0.0430  0.2533  0.1285
 1163ERGO    R313320  17.681  15.081   9.156  0.0498 -0.0618  0.0964
 1163ERGO    R413321  17.498  15.071   8.927 -0.0294  0.6118  0.1148
 1163ERGO    R513322  17.668  14.940   8.963 -0.2654  0.2303 -0.1066
 1163ERGO    C113323  17.769  15.086   8.626 -0.0651  0.5248  0.0766
 1163ERGO    C213324  17.781  15.119   8.335  0.2470  0.0966 -0.2455
 1164ERGO   ROH13325  16.280  10.132  10.208  0.4382  0.1849  0.0167
 1164ERGO    R113326  16.388  10.010   9.977  0.2002 -0.1371  0.0678
 1164ERGO    R213327  16.270   9.792   9.855 -0.3693  0.1665  0.0358
 1164ERGO    R313328  16.280   9.951   9.634  0.1620  0.1433  0.0292
 1164ERGO    R413329  16.289   9.677   9.529 -0.4135  0.1053  0.0544
 1164ERGO    R513330  16.430   9.838   9.486  0.0051 -0.2239  0.1398
 1164ERGO    C113331  16.309   9.760   9.133  0.0592  0.0478  0.0589
 1164ERGO    C213332  16.343   9.689   8.812 -0.1866  0.1435 -0.1560
 1165ERGO   ROH13333   8.215  10.432   7.163 -0.1770  0.0701 -0.0486
 1165ERGO    R113334   8.285  10.329   7.417 -0.1144  0.0437 -0.0770
 1165ERGO    R213335   8.433  10.474   7.600 -0.0586  0.0171 -0.1072
 1165ERGO    R313336   8.223  10.420   7.764 -0.0148  0.0142 -0.0501
 1165ERGO    R413337   8.432  10.524   7.942  0.0463  0.0011 -0.1034
 1165ERGO    R513338   8.324  10.335   7.964  0.0449 -0.0005 -0.0826
 1165ERGO    C113339   8.234  10.502   8.295  0.1485 -0.0108 -0.0476
 1165ERGO    C213340   8.238  10.634   8.646  0.0575  0.0150  0.2446
 1166ERGO   ROH13341   7.270  14.935  10.268 -0.1700  0.0049 -0.0228
 1166ERGO    R113342   7.250  14.898   9.988 -0.2165 -0.0036 -0.0184
 1166ERGO    R213343   7.222  15.109   9.811 -0.0603  0.0049 -0.0339
 1166ERGO    R313344   7.441  14.998   9.694 -0.1542 -0.1788 -0.0389
 1166ERGO    R413345   7.320  15.164   9.485  0.1764  0.2141  0.0687
 1166ERGO    R513346   7.371  14.953   9.470 -0.1112  0.1527 -0.1249
 1166ERGO    C113347   7.582  15.092   9.184  0.2261  0.1634  0.1236
 1166ERGO    C213348   7.606  15.055   8.908 -0.1534 -0.0213  0.0568
 1167ERGO   ROH13349  12.741  13.861   7.278 -0.1168 -0.2495 -0.0831
 1167ERGO    R113350  12.577  13.834   7.507 -0.2348 -0.0366 -0.1419
 1167ERGO    R213351  12.681  13.785   7.759 -0.3893 -0.2292 -0.1254
 1167ERGO    R313352  12.537  14.006   7.825 -0.0849 -0.0209 -0.1268
 1167ERGO    R413353  12.619  13.891   8.082 -0.3739 -0.2540 -0.1123
 1167ERGO    R513354  12.416  13.941   8.021 -0.2834  0.0841 -0.2007
 1167ERGO    C113355  12.448  14.160   8.333 -0.0791 -0.0730 -0.1061
 1167ERGO    C213356  12.572  14.427   8.600  0.0993  0.1140 -0.0884
 1168ERGO   ROH13357   8.880   7.483   6.943 -0.0734  0.0256 -0.1028
 1168ERGO    R113358   8.938   7.648   7.165 -0.1763  0.0953 -0.1265
 1168ERGO    R213359   8.775   7.659   7.389 -0.1464 -0.0298 -0.0947
 1168ERGO    R313360   9.005   7.600   7.520 -0.0676  0.1811 -0.1358
 1168ERGO    R413361   8.803   7.622   7.731 -0.0746 -0.1260 -0.1112
 1168ERGO    R513362   8.993   7.728   7.722 -0.1950  0.0922 -0.0880
 1168ERGO    C113363   9.036   7.544   8.054  0.0412  0.0161 -0.1595
 1168ERGO    C213364   9.221   7.607   8.322 -0.0227  0.1502 -0.0414
 1169ERGO   ROH13365   3.849   8.780   7.206 -0.0477  0.1457 -0.0014
 1169ERGO    R113366   3.872   8.988   7.395  0.2143  0.0745  0.0478
 1169ERGO    R213367   3.686   9.029   7.596  0.1661  0.3650 -0.0527
 1169ERGO    R313368   3.905   9.015   7.757  0.0568 -0.0505  0.0727
 1169ERGO    R413369   3.684   9.080   7.938  0.0430  0.1898 -0.0257
 1169ERGO    R513370   3.872   9.188   7.918  0.2249 -0.0801  0.1422
 1169ERGO    C113371   3.888   9.096   8.288 -0.1312 -0.3021  0.1078
 1169ERGO    C213372   4.198   9.070   8.467  0.0746 -0.1040 -0.0829
 1170ERGO   ROH13373  12.499  15.872  10.394 -0.0778 -0.1876  0.0766
 1170ERGO    R113374  12.461  15.689  10.181  0.1965 -0.0874 -0.0610
 1170ERGO    R213375  12.219  15.659  10.052  0.2153 -0.4165 -0.0177
 1170ERGO    R313376  12.367  15.709   9.830  0.0739  0.0282 -0.0241
 1170ERGO    R413377  12.117  15.595   9.728  0.2483 -0.3854 -0.0351
 1170ERGO    R513378  12.319  15.526   9.683  0.3836  0.0266 -0.1389
 1170ERGO    C113379  12.197  15.605   9.330  0.1345  0.0501 -0.0511
 1170ERGO    C213380  12.265  15.776   9.005  0.0361  0.0377  0.2656
 1171ERGO   ROH13381  15.115   4.986   6.799  0.1628 -0.0921 -0.1145
 1171ERGO    R113382  15.095   5.097   7.058  0.2630  0.0741 -0.1776
 1171ERGO    R213383  15.005   4.952   7.276 -0.0337  0.3263 -0.1318
 1171ERGO    R313384  15.241   5.032   7.386  0.0658  0.0082 -0.1000
 1171ERGO    R413385  15.080   4.943   7.613 -0.1422  0.3281 -0.1064
 1171ERGO    R513386  15.178   5.136   7.592  0.1616  0.1794 -0.1513
 1171ERGO    C113387  15.345   5.014   7.912 -0.1119  0.0304 -0.0616
 1171ERGO    C213388  15.695   5.186   8.027  0.2108 -0.3981 -0.1929
 1172ERGO   ROH13389   3.409   2.497   6.359  0.1576  0.0675  0.0507
 1172ERGO    R113390   3.290   2.388   6.591  0.1396  0.0433  0.0297
 1172ERGO    R213391   3.435   2.321   6.816  0.1090  0.1027  0.0644
 1172ERGO    R313392   3.256   2.483   6.941  0.0296  0.0516  0.0183
 1172ERGO    R413393   3.323   2.279   7.140  0.1169  0.1202  0.0695
 1172ERGO    R513394   3.123   2.334   7.073  0.0911  0.0161  0.0458
 1172ERGO    C113395   3.089   2.407   7.446  0.0470  0.0825  0.0293
 1172ERGO    C213396   3.118   2.462   7.844  0.2712  0.1485  0.0201
 1173ERGO   ROH13397  12.546   1.219   6.784  0.0457  0.3507  0.0459
 1173ERGO    R113398  12.683   1.202   7.031 -0.0170  0.1422  0.0677
 1173ERGO    R213399  12.650   1.386   7.233  0.0703  0.0745  0.1440
 1173ERGO    R313400  12.594   1.165   7.381 -0.1153  0.0447  0.0332
 1173ERGO    R413401  12.579   1.388   7.571  0.0575 -0.0344  0.1425
 1173ERGO    R513402  12.699   1.207   7.593 -0.0890 -0.1437  0.0597
 1173ERGO    C113403  12.485   1.182   7.908 -0.1242 -0.1257  0.0376
 1173ERGO    C213404  12.325   1.296   8.248  0.0692 -0.0065  0.1271
 1174ERGO   ROH13405  13.862   3.613   6.769  0.3482 -0.1842 -0.1696
 1174ERGO    R113406  13.997   3.621   7.018  0.0328  0.1723  0.0013
 1174ERGO    R213407  13.869   3.682   7.255 -0.4213 -0.1245 -0.1511
 1174ERGO    R313408  13.976   3.445   7.335  0.0759  0.1335 -0.0180
 1174ERGO    R413409  13.839   3.549   7.573 -0.2912 -0.0923 -0.1259
 1174ERGO    R513410  14.047   3.485   7.560 -0.1318  0.3702  0.0081
 1174ERGO    C113411  13.923   3.250   7.833  0.2511  0.1687  0.0138
 1174ERGO    C213412  13.749   3.156   8.086 -0.3294 -0.1462  0.4113
 1175ERGO   ROH13413   3.216   5.897   7.068  0.0730 -0.0173  0.3368
 1175ERGO    R113414   3.336   5.920   7.323  0.1356 -0.1182  0.3173
 1175ERGO    R213415   3.187   5.945   7.555  0.1944  0.0295  0.3402
 1175ERGO    R313416   3.334   5.730   7.634  0.0076 -0.1056  0.3251
 1175ERGO    R413417   3.245   5.854   7.884  0.2910  0.0852  0.3386
 1175ERGO    R513418   3.450   5.805   7.829  0.2087 -0.1597  0.2300
 1175ERGO    C113419   3.416   5.599   8.148  0.1718 -0.0091  0.3235
 1175ERGO    C213420   3.488   5.470   8.481  0.0684  0.1121  0.0311
 1176ERGO   ROH13421  14.172   0.305   6.978 -0.1584  0.1044  0.0972
 1176ERGO    R113422  14.368   0.396   7.161 -0.0164 -0.1169  0.0571
 1176ERGO    R213423  14.323   0.608   7.334  0.2803 -0.0288  0.0171
 1176ERGO    R313424  14.397   0.427   7.523  0.0708 -0.0849  0.0506
 1176ERGO    R413425  14.399   0.684   7.662  0.0644 -0.0805  0.0813
 1176ERGO    R513426  14.562   0.541   7.653  0.0252 -0.1512  0.1838
 1176ERGO    C113427  14.512   0.559   8.031 -0.2580 -0.1633  0.1503
 1176ERGO    C213428  14.483   0.641   8.241 -0.2403  0.1267 -0.2444
 1177ERGO   ROH13429  10.633  12.802  10.678 -0.0867 -0.1962 -0.0853
 1177ERGO    R113430  10.692  12.944  10.440 -0.1740 -0.1958 -0.1076
 1177ERGO    R213431  10.950  13.006  10.364 -0.2102 -0.0162 -0.0998
 1177ERGO    R313432  10.878  12.881  10.134 -0.1020 -0.1168 -0.0797
 1177ERGO    R413433  11.106  13.047  10.058 -0.2913  0.1183 -0.1234
 1177ERGO    R513434  10.910  13.045   9.963 -0.2986 -0.1008 -0.1000
 1177ERGO    C113435  11.128  12.953   9.664 -0.2369  0.1022 -0.1182
 1177ERGO    C213436  11.168  12.986   9.298 -0.2519  0.3124  0.0781
 1178ERGO   ROH13437  11.469   8.288   7.170 -0.0507  0.0646 -0.1390
 1178ERGO    R113438  11.635   8.223   7.390 -0.0682 -0.0579 -0.1620
 1178ERGO    R213439  11.717   8.410   7.575 -0.0437 -0.1525 -0.0791
 1178ERGO    R313440  11.611   8.235   7.753 -0.0762 -0.2122 -0.1564
 1178ERGO    R413441  11.750   8.434   7.919 -0.0175 -0.3201 -0.0690
 1178ERGO    R513442  11.776   8.217   7.926 -0.0684 -0.3322 -0.1731
 1178ERGO    C113443  11.668   8.282   8.285 -0.0327 -0.4737 -0.1357
 1178ERGO    C213444  11.600   8.163   8.502 -0.1584  0.1698  0.1420
 1179ERGO   ROH13445  17.346   4.099   6.505 -0.3176 -0.3128 -0.1906
 1179ERGO    R113446  17.175   4.140   6.726 -0.1051 -0.1140 -0.0576
 1179ERGO    R213447  17.020   3.938   6.834 -0.3522  0.0880 -0.0208
 1179ERGO    R313448  17.144   4.010   7.065 -0.0744 -0.1800 -0.0803
 1179ERGO    R413449  16.892   3.889   7.151 -0.0970 -0.0268  0.0670
 1179ERGO    R513450  16.967   4.085   7.207  0.1206 -0.1289  0.1405
 1179ERGO    C113451  16.934   3.927   7.552  0.3123 -0.3453  0.0622
 1179ERGO    C213452  16.939   3.747   7.802  0.0998  0.3315  0.1959
 1180ERGO   ROH13453   5.595   6.582   6.784  0.2001  0.2126  0.0777
 1180ERGO    R113454   5.645   6.392   6.988 -0.0226  0.1812  0.1063
 1180ERGO    R213455   5.897   6.352   7.095 -0.0283 -0.2245 -0.0141
 1180ERGO    R313456   5.769   6.399   7.331  0.1701  0.0713  0.0407
 1180ERGO    R413457   6.024   6.278   7.408  0.0125 -0.3449 -0.0592
 1180ERGO    R513458   5.826   6.211   7.468 -0.0778  0.0117  0.0672
 1180ERGO    C113459   5.978   6.278   7.811  0.2226 -0.1374 -0.0340
 1180ERGO    C213460   6.104   6.256   8.143 -0.1036 -0.0650 -0.1961
 1181ERGO   ROH13461  13.879  16.866  10.229  0.1547  0.3541  0.1368
 1181ERGO    R113462  14.030  16.726  10.035 -0.0083  0.0785  0.2035
 1181ERGO    R213463  13.925  16.519   9.885 -0.3310  0.2899  0.1318
 1181ERGO    R313464  14.013  16.670   9.676  0.0699  0.1469  0.1884
 1181ERGO    R413465  14.003  16.396   9.571 -0.4550  0.1729  0.1456
 1181ERGO    R513466  14.174  16.531   9.566 -0.1662 -0.1756  0.2351
 1181ERGO    C113467  14.130  16.466   9.193 -0.1510 -0.0294  0.2068
 1181ERGO    C213468  14.111  16.578   8.891  0.3784  0.3025  0.1109
 1182ERGO   ROH13469   0.342  13.107   9.805 -0.1661  0.1741  0.1017
 1182ERGO    R113470   0.333  13.041   9.530  0.0081  0.1245  0.1068
 1182ERGO    R213471   0.120  12.907   9.416  0.0885  0.0880 -0.0008
 1182ERGO    R313472   0.119  13.120   9.246  0.1756  0.0574 -0.0403
 1182ERGO    R413473  -0.013  12.904   9.097 -0.0727  0.1308  0.0653
 1182ERGO    R513474   0.157  13.023   9.030 -0.0079 -0.0173 -0.0417
 1182ERGO    C113475  -0.092  13.102   8.752 -0.0848  0.1271  0.0667
 1182ERGO    C213476  -0.316  12.960   8.539 -0.3210 -0.2484  0.1801
 1183ERGO   ROH13477   2.168   3.578   6.547  0.1039  0.0058 -0.0392
 1183ERGO    R113478   2.344   3.532   6.763 -0.1052  0.1830  0.1734
 1183ERGO    R213479   2.274   3.583   7.026 -0.6059 -0.2274  0.1362
 1183ERGO    R313480   2.348   3.324   7.062 -0.0896 -0.1088 -0.0288
 1183ERGO    R413481   2.375   3.445   7.326 -0.2566 -0.2193  0.0272
 1183ERGO    R513482   2.528   3.334   7.219 -0.0683  0.1423 -0.0735
 1183ERGO    C113483   2.503   3.122   7.535  0.4316 -0.1031 -0.1910
 1183ERGO    C213484   2.504   3.023   7.870  0.1499  0.0623  0.3443
 1184ERGO   ROH13485   0.609   7.138   6.669  0.0820 -0.1889 -0.0195
 1184ERGO    R113486   0.670   7.004   6.911  0.0601 -0.1357  0.0149
 1184ERGO    R213487   0.902   7.054   7.054  0.0774 -0.1508 -0.0106
 1184ERGO    R313488   0.727   7.099   7.258  0.0972 -0.0524 -0.0136
 1184ERGO    R413489   0.976   7.021   7.390  0.0723 -0.1122 -0.0048
 1184ERGO    R513490   0.781   6.931   7.420  0.0426 -0.0396  0.0176
 1184ERGO    C113491   0.856   7.044   7.777  0.0879  0.0028 -0.0041
 1184ERGO    C213492   1.075   7.075   8.076  0.0371  0.1548  0.2284
 1185ERGO   ROH13493   7.362   8.263  10.070  0.3250  0.2116  0.0160
 1185ERGO    R113494   7.181   8.215   9.858  0.2224  0.0870  0.1310
 1185ERGO    R213495   7.204   8.338   9.612  0.0375  0.0281  0.0868
 1185ERGO    R313496   7.200   8.082   9.520  0.0773  0.0020  0.1542
 1185ERGO    R413497   7.094   8.242   9.299  0.0442 -0.0660  0.1122
 1185ERGO    R513498   6.999   8.069   9.390  0.0727 -0.0608  0.1618
 1185ERGO    C113499   7.026   7.947   9.030  0.0853 -0.1452  0.1903
 1185ERGO    C213500   6.833   7.770   8.798 -0.4150  0.1888  0.1140
 1186ERGO   ROH13501  14.859  15.435   7.039 -0.0068 -0.0676 -0.0225
 1186ERGO    R113502  14.947  15.587   7.261  0.0906 -0.1708  0.0095
 1186ERGO    R213503  14.780  15.657   7.470  0.0815  0.0658 -0.0754
 1186ERGO    R313504  14.972  15.538   7.621 -0.1456 -0.1841  0.0251
 1186ERGO    R413505  14.805  15.684   7.813 -0.0730  0.0076 -0.0581
 1186ERGO    R513506  15.021  15.699   7.791 -0.0392 -0.2574  0.0631
 1186ERGO    C113507  15.000  15.588   8.156 -0.3762 -0.2609  0.0463
 1186ERGO    C213508  15.138  15.522   8.529 -0.2345 -0.1188  0.0493
 1187ERGO   ROH13509   6.982  10.696   7.049  0.0948 -0.0999  0.0396
 1187ERGO    R113510   6.881  10.877   7.242  0.0123 -0.1367  0.0315
 1187ERGO    R213511   6.748  10.793   7.469  0.1154 -0.1915  0.0728
 1187ERGO    R313512   6.935  10.943   7.596  0.0410 -0.0439  0.0102
 1187ERGO    R413513   6.771  10.831   7.811  0.0742 -0.0088  0.0560
 1187ERGO    R513514   6.818  11.041   7.780 -0.0163 -0.0025 -0.0473
 1187ERGO    C113515   6.961  10.994   8.130 -0.0195  0.2361 -0.0125
 1187ERGO    C213516   7.071  10.794   8.347  0.0635  0.2616 -0.0200
 1188ERGO   ROH13517   8.014  14.177   7.392 -0.2170  0.2506 -0.0615
 1188ERGO    R113518   7.945  14.365   7.592 -0.4354  0.1514 -0.0403
 1188ERGO    R213519   7.717  14.341   7.747 -0.2088 -0.3572  0.2412
 1188ERGO    R313520   7.894  14.361   7.953  0.0035  0.1285  0.0262
 1188ERGO    R413521   7.652  14.491   8.052 -0.1409 -0.2741  0.2146
 1188ERGO    R513522   7.852  14.576   8.047 -0.3026  0.1173 -0.0773
 1188ERGO    C113523   7.780  14.597   8.421  0.0981  0.2304 -0.0026
 1188ERGO    C213524   7.674  14.556   8.740  0.0641 -0.2131  0.2409
 1189ERGO   ROH13525  12.621   6.239  10.124 -0.2207  0.0004  0.0434
 1189ERGO    R113526  12.622   6.128   9.864 -0.2299  0.0497  0.0227
 1189ERGO    R213527  12.513   6.258   9.646 -0.0982  0.1592  0.0244
 1189ERGO    R313528  12.759   6.217   9.539 -0.0991  0.0260  0.0695
 1189ERGO    R413529  12.574   6.198   9.311 -0.0756  0.1300  0.0333
 1189ERGO    R513530  12.723   6.050   9.371 -0.1640  0.0448  0.0604
 1189ERGO    C113531  12.841   6.125   9.016 -0.0633 -0.0120  0.0809
 1189ERGO    C213532  12.911   6.254   8.705 -0.0287  0.0462 -0.0267
 1190ERGO   ROH13533  15.891   3.526   6.726  0.1994  0.2040 -0.0513
 1190ERGO    R113534  15.985   3.637   6.969  0.0043  0.1091  0.0698
 1190ERGO    R213535  15.822   3.780   7.140 -0.1689 -0.0855  0.0678
 1190ERGO    R313536  15.910   3.600   7.323 -0.1712 -0.1470  0.0095
 1190ERGO    R413537  15.778   3.808   7.482  0.0990 -0.0345  0.1009
 1190ERGO    R513538  15.981   3.734   7.509  0.0672 -0.1890 -0.0449
 1190ERGO    C113539  15.835   3.654   7.853  0.2529 -0.0625  0.0653
 1190ERGO    C213540  15.747   3.610   8.207  0.0360  0.1320 -0.1017
 1191ERGO   ROH13541  10.135   2.419   9.725  0.0155  0.0332  0.0841
 1191ERGO    R113542  10.175   2.570   9.489 -0.1075  0.0146  0.0514
 1191ERGO    R213543  10.403   2.548   9.334 -0.0815  0.1809  0.0691
 1191ERGO    R313544  10.225   2.500   9.135 -0.0291 -0.0217  0.0686
 1191ERGO    R413545  10.455   2.621   9.001 -0.1740  0.2831  0.0762
 1191ERGO    R513546  10.248   2.687   8.988 -0.2626  0.0283  0.0881
 1191ERGO    C113547  10.318   2.618   8.619 -0.1786  0.1524  0.0799
 1191ERGO    C213548  10.461   2.420   8.296  0.1097  0.2190 -0.1895
 1192ERGO   ROH13549   8.072   4.283   6.167  0.0204  0.0059  0.0359
 1192ERGO    R113550   8.189   4.276   6.424  0.1788  0.1043 -0.0313
 1192ERGO    R213551   8.289   4.502   6.548 -0.1205  0.2327 -0.0084
 1192ERGO    R313552   8.121   4.427   6.749  0.1081 -0.1188  0.0582
 1192ERGO    R413553   8.331   4.582   6.882 -0.1274  0.2611 -0.0146
 1192ERGO    R513554   8.267   4.380   6.933  0.2788  0.1273 -0.0138
 1192ERGO    C113555   8.199   4.558   7.264  0.0832 -0.0523  0.0444
 1192ERGO    C213556   8.274   4.586   7.638 -0.3636 -0.1060  0.2551
 1193ERGO   ROH13557  10.510  17.676  10.124  0.0543  0.0357 -0.0852
 1193ERGO    R113558  10.396  17.466   9.972  0.0752  0.0199 -0.0784
 1193ERGO    R213559  10.381  17.473   9.697  0.0894  0.0025 -0.0782
 1193ERGO    R313560  10.508  17.233   9.716  0.1023  0.0105 -0.0584
 1193ERGO    R413561  10.416  17.248   9.437  0.0852 -0.0248 -0.0557
 1193ERGO    R513562  10.377  17.087   9.579  0.1009 -0.0115 -0.0350
 1193ERGO    C113563  10.556  16.892   9.303  0.0949 -0.0333 -0.0240
 1193ERGO    C213564  10.628  16.511   9.106  0.2698 -0.1428 -0.0171
 1194ERGO   ROH13565  14.867  10.308   7.160  0.0036 -0.0422 -0.0313
 1194ERGO    R113566  14.975  10.331   7.421 -0.1002  0.2317 -0.0087
 1194ERGO    R213567  14.868  10.500   7.612 -0.5320  0.0203 -0.0461
 1194ERGO    R313568  14.859  10.273   7.761 -0.0509  0.0024 -0.0310
 1194ERGO    R413569  14.832  10.490   7.956 -0.7916 -0.0367 -0.0727
 1194ERGO    R513570  14.978  10.328   7.961 -0.3574  0.3436  0.0634
 1194ERGO    C113571  14.804  10.271   8.295 -0.4913 -0.0868 -0.0741
 1194ERGO    C213572  14.821  10.244   8.581  0.1754  0.1863 -0.2820
 1195ERGO   ROH13573   5.022   3.567   6.690 -0.1111  0.1032 -0.0864
 1195ERGO    R113574   4.859   3.464   6.897 -0.1867  0.1167 -0.1397
 1195ERGO    R213575   4.961   3.319   7.109 -0.2813  0.0146 -0.1655
 1195ERGO    R313576   4.831   3.506   7.258 -0.2235  0.0290 -0.1315
 1195ERGO    R413577   4.875   3.282   7.442 -0.1006  0.0662 -0.1113
 1195ERGO    R513578   4.684   3.379   7.398 -0.1363  0.0377 -0.0294
 1195ERGO    C113579   4.702   3.436   7.775  0.0587  0.1097 -0.0479
 1195ERGO    C213580   4.646   3.626   8.102 -0.0153  0.0774  0.0252
 1196ERGO   ROH13581  11.806  14.739   7.313  0.0269 -0.2247 -0.0395
 1196ERGO    R113582  11.783  14.873   7.562  0.1337 -0.0489 -0.1211
 1196ERGO    R213583  11.656  14.761   7.781 -0.1609  0.2759 -0.1089
 1196ERGO    R313584  11.892  14.814   7.904 -0.1186 -0.0524 -0.0420
 1196ERGO    R413585  11.693  14.825   8.118 -0.1746  0.3502 -0.1225
 1196ERGO    R513586  11.837  14.980   8.068  0.0896  0.0979 -0.1281
 1196ERGO    C113587  11.936  14.913   8.430 -0.1429  0.0852 -0.0676
 1196ERGO    C213588  11.955  15.042   8.629  0.2837 -0.1993 -0.1555
 1197ERGO   ROH13589  17.167   4.390   9.673 -0.0213  0.0301  0.0244
 1197ERGO    R113590  17.162   4.561   9.448  0.0525  0.0731  0.0560
 1197ERGO    R213591  17.270   4.489   9.204  0.0190  0.0698  0.0461
 1197ERGO    R313592  17.022   4.551   9.112  0.0464  0.1975  0.0537
 1197ERGO    R413593  17.197   4.571   8.876 -0.0216 -0.3742 -0.0635
 1197ERGO    R513594  17.061   4.725   8.951  0.1774 -0.0963 -0.2463
 1197ERGO    C113595  16.922   4.677   8.599 -0.0196 -0.5129 -0.1202
 1197ERGO    C213596  17.049   4.676   8.314  0.0520 -0.2373  0.3064
 1198ERGO   ROH13597  15.402   3.124   6.838  0.0704  0.0137  0.1227
 1198ERGO    R113598  15.303   3.020   7.082 -0.0149 -0.1703  0.0109
 1198ERGO    R213599  15.332   2.754   7.153  0.3463 -0.1337  0.0103
 1198ERGO    R313600  15.444   2.860   7.377 -0.0552  0.0303  0.1420
 1198ERGO    R413601  15.405   2.576   7.440  0.2945 -0.0397  0.0826
 1198ERGO    R513602  15.335   2.746   7.557 -0.0910 -0.1414  0.0172
 1198ERGO    C113603  15.553   2.572   7.818 -0.1124  0.1689  0.2483
 1198ERGO    C213604  15.706   2.583   8.136 -0.0126  0.0959  0.0025
 1199ERGO   ROH13605   7.906  11.722   7.479  0.0785  0.0930 -0.0153
 1199ERGO    R113606   7.963  11.844   7.728 -0.0875  0.0521  0.0444
 1199ERGO    R213607   7.768  11.900   7.915 -0.1813 -0.2047  0.0285
 1199ERGO    R313608   7.929  11.756   8.080 -0.0775 -0.1178  0.0035
 1199ERGO    R413609   7.815  11.964   8.251 -0.0447 -0.0930 -0.0110
 1199ERGO    R513610   8.027  11.920   8.225 -0.0480 -0.0541 -0.0893
 1199ERGO    C113611   7.995  11.867   8.602  0.1323  0.0535 -0.0574
 1199ERGO    C213612   7.821  12.055   8.828 -0.2365 -0.1809  0.2109
 1200ERGO   ROH13613  17.939   5.189   6.749 -0.0123  0.1261 -0.0743
 1200ERGO    R113614  17.799   5.231   6.992  0.0014  0.1253 -0.0674
 1200ERGO    R213615  17.914   5.188   7.240 -0.0141  0.0415 -0.0793
 1200ERGO    R313616  17.837   5.444   7.285  0.0674  0.0580 -0.0256
 1200ERGO    R413617  17.835   5.318   7.549  0.0840  0.0152 -0.0416
 1200ERGO    R513618  17.671   5.427   7.456  0.0943  0.0773  0.0056
 1200ERGO    C113619  17.717   5.635   7.772  0.2177  0.0155  0.0308
 1200ERGO    C213620  17.540   5.785   8.078 -0.0037 -0.0240  0.1699
 1201ERGO   ROH13621   1.390  13.110   6.258 -0.1676 -0.0696  0.0962
 1201ERGO    R113622   1.237  13.171   6.488 -0.0261  0.0752  0.1538
 1201ERGO    R213623   1.243  13.015   6.716 -0.1057  0.0553  0.1377
 1201ERGO    R313624   1.303  13.251   6.837  0.1774 -0.0119  0.1378
 1201ERGO    R413625   1.320  13.051   7.051 -0.2555 -0.0208  0.1820
 1201ERGO    R513626   1.202  13.235   7.053  0.0132  0.1660  0.0810
 1201ERGO    C113627   1.421  13.294   7.360 -0.0770 -0.1282  0.2079
 1201ERGO    C213628   1.497  13.356   7.676  0.0893  0.1033 -0.1062
 1202ERGO   ROH13629  17.259  16.731   6.325 -0.1418  0.0484  0.0784
 1202ERGO    R113630  17.397  16.899   6.506 -0.1396  0.0896  0.0387
 1202ERGO    R213631  17.292  16.973   6.750 -0.0553 -0.0115  0.1073
 1202ERGO    R313632  17.527  16.874   6.845  0.0472  0.0956 -0.0320
 1202ERGO    R413633  17.418  17.032   7.067 -0.0025 -0.1398  0.1110
 1202ERGO    R513634  17.616  17.052   6.978 -0.0436  0.0683  0.0641
 1202ERGO    C113635  17.712  16.974   7.339  0.1245 -0.1140 -0.0177
 1202ERGO    C213636  17.830  16.845   7.548  0.2231  0.2495  0.0624
 1203ERGO   ROH13637   5.774   2.100   6.627  0.2190 -0.0657 -0.1663
 1203ERGO    R113638   5.974   2.096   6.827  0.2524 -0.1056 -0.1994
 1203ERGO    R213639   5.958   2.249   7.057  0.4358  0.0840 -0.3024
 1203ERGO    R313640   5.994   2.009   7.179  0.2282  0.1351 -0.1384
 1203ERGO    R413641   6.024   2.205   7.394  0.3509  0.2391 -0.2654
 1203ERGO    R513642   6.165   2.048   7.341  0.2313  0.0970 -0.1401
 1203ERGO    C113643   6.096   1.955   7.704  0.1066  0.3774 -0.0899
 1203ERGO    C213644   5.999   1.796   7.884 -0.0355  0.0268  0.0530
 1204ERGO   ROH13645   9.189   2.075   6.541  0.2282 -0.2632 -0.0032
 1204ERGO    R113646   9.144   1.933   6.781  0.1604 -0.1763  0.0357
 1204ERGO    R213647   9.239   2.020   7.026  0.1276 -0.1102  0.0246
 1204ERGO    R313648   8.978   1.997   7.099  0.1102 -0.0449 -0.0161
 1204ERGO    R413649   9.126   2.010   7.352  0.0671  0.0003  0.0075
 1204ERGO    R513650   8.983   1.857   7.293  0.0513  0.0079  0.0244
 1204ERGO    C113651   8.815   1.984   7.611  0.0156  0.1259 -0.0408
 1204ERGO    C213652   8.532   1.959   7.865  0.0262  0.0005 -0.0051
 1205ERGO   ROH13653   9.370  17.524  10.113 -0.2095  0.1809 -0.0512
 1205ERGO    R113654   9.413  17.328   9.914  0.1349  0.1659  0.0301
 1205ERGO    R213655   9.234  17.283   9.709  0.1524 -0.3032  0.1036
 1205ERGO    R313656   9.453  17.321   9.552  0.0327  0.0800  0.0204
 1205ERGO    R413657   9.248  17.217   9.370  0.1763 -0.3909  0.1216
 1205ERGO    R513658   9.449  17.137   9.399  0.3495  0.0160  0.0857
 1205ERGO    C113659   9.462  17.215   9.026  0.0780 -0.0819  0.0541
 1205ERGO    C213660   9.698  17.146   8.804  0.0926 -0.0955 -0.0971
 1206ERGO   ROH13661  13.988  13.083   7.277  0.2562 -0.2041 -0.0335
 1206ERGO    R113662  14.183  13.033   7.476  0.1823  0.0835  0.1188
 1206ERGO    R213663  14.187  13.167   7.718 -0.2036  0.0937  0.1381
 1206ERGO    R313664  14.187  12.916   7.820  0.0819  0.0832  0.1160
 1206ERGO    R413665  14.349  13.072   8.008 -0.1088  0.2289  0.1290
 1206ERGO    R513666  14.407  12.887   7.909  0.1018  0.3137  0.1204
 1206ERGO    C113667  14.443  12.780   8.273  0.2144  0.2977  0.1030
 1206ERGO    C213668  14.424  12.753   8.689 -0.2140 -0.0721 -0.1135
 1207ERGO   ROH13669  13.921   9.639   7.261  0.2488  0.0842  0.0145
 1207ERGO    R113670  13.895   9.506   7.510  0.0643  0.0875 -0.0017
 1207ERGO    R213671  14.114   9.427   7.659 -0.0455 -0.0865  0.0676
 1207ERGO    R313672  13.991   9.570   7.855 -0.0040 -0.0063  0.0354
 1207ERGO    R413673  14.211   9.431   7.991 -0.2429 -0.3077  0.1311
 1207ERGO    R513674  14.000   9.427   8.047 -0.2874 -0.0833 -0.0021
 1207ERGO    C113675  14.153   9.568   8.368 -0.3189 -0.3612  0.1378
 1207ERGO    C213676  14.181   9.463   8.652 -0.2789 -0.2232  0.3441
 1208ERGO   ROH13677   6.687   4.240   6.541 -0.0326 -0.3498  0.0252
 1208ERGO    R113678   6.683   4.132   6.802 -0.1394 -0.3043  0.0444
 1208ERGO    R213679   6.818   4.248   7.013  0.1013 -0.4781 -0.0021
 1208ERGO    R313680   6.573   4.241   7.132  0.1103 -0.0722  0.0524
 1208ERGO    R413681   6.763   4.197   7.351  0.0822 -0.3480  0.0139
 1208ERGO    R513682   6.593   4.071   7.299 -0.1311 -0.0827  0.0679
 1208ERGO    C113683   6.502   4.160   7.658  0.0795  0.1089  0.0743
 1208ERGO    C213684   6.309   4.227   7.921 -0.3283 -0.1833 -0.0199
 1209ERGO   ROH13685   6.472   3.466   9.221  0.0646 -0.2101  0.0865
 1209ERGO    R113686   6.510   3.399   8.948  0.0314 -0.1343  0.0617
 1209ERGO    R213687   6.468   3.580   8.744 -0.0625 -0.0935  0.1073
 1209ERGO    R313688   6.722   3.511   8.675 -0.0544 -0.0030  0.0505
 1209ERGO    R413689   6.602   3.607   8.426 -0.2005 -0.2498  0.0352
 1209ERGO    R513690   6.702   3.416   8.457 -0.0868 -0.1688  0.1298
 1209ERGO    C113691   6.918   3.559   8.177 -0.2733 -0.2558 -0.0601
 1209ERGO    C213692   7.196   3.455   7.905  0.0105 -0.1060  0.2697
 1210ERGO   ROH13693  14.436   5.935   6.540  0.1014 -0.1702  0.1200
 1210ERGO    R113694  14.304   6.051   6.762 -0.0364 -0.0575 -0.0190
 1210ERGO    R213695  14.038   6.003   6.818  0.0263 -0.3296  0.0474
 1210ERGO    R313696  14.136   5.931   7.062  0.1309  0.0999  0.1417
 1210ERGO    R413697  13.862   6.023   7.115 -0.0619 -0.3491 -0.0031
 1210ERGO    R513698  14.044   6.093   7.212 -0.1980  0.0952 -0.0408
 1210ERGO    C113699  13.850   5.966   7.516 -0.0150  0.0427  0.0560
 1210ERGO    C213700  13.680   5.782   7.797  0.0558 -0.0511 -0.1972
 1211ERGO   ROH13701   1.455   9.251   6.580  0.0604 -0.0253  0.0660
 1211ERGO    R113702   1.438   9.116   6.828  0.0868 -0.0213  0.0693
 1211ERGO    R213703   1.630   8.937   6.913  0.1233  0.0260  0.0761
 1211ERGO    R313704   1.636   9.097   7.133  0.0854  0.0307  0.0747
 1211ERGO    R413705   1.617   8.824   7.239 -0.0848  0.0349  0.0730
 1211ERGO    R513706   1.485   8.992   7.287 -0.0384  0.0961  0.0042
 1211ERGO    C113707   1.615   8.908   7.636 -0.2417  0.0446  0.0699
 1211ERGO    C213708   1.701   8.957   7.882  0.2800  0.2711  0.0549
 1212ERGO   ROH13709   2.926  12.108   6.414  0.1087  0.1094 -0.1691
 1212ERGO    R113710   2.934  12.094   6.697  0.0766  0.0510 -0.1707
 1212ERGO    R213711   3.031  12.301   6.853  0.1014  0.0013 -0.1187
 1212ERGO    R313712   2.789  12.279   6.975  0.0839  0.0242 -0.1494
 1212ERGO    R413713   2.978  12.322   7.194  0.0492  0.0750 -0.1311
 1212ERGO    R513714   2.834  12.159   7.177  0.0549  0.0697 -0.1165
 1212ERGO    C113715   2.720  12.314   7.507  0.0025  0.1394 -0.1672
 1212ERGO    C213716   2.397  12.384   7.768 -0.0532 -0.1374  0.0724
 1213ERGO   ROH13717   8.888   3.039   6.275  0.2342  0.0670  0.1467
 1213ERGO    R113718   8.839   3.197   6.506  0.2616  0.0479  0.1654
 1213ERGO    R213719   8.619   3.158   6.668  0.1231  0.2254  0.0237
 1213ERGO    R313720   8.807   3.138   6.863 -0.0098 -0.0302  0.1306
 1213ERGO    R413721   8.561   3.213   7.004  0.0121  0.3266 -0.0111
 1213ERGO    R513722   8.753   3.315   7.016  0.1539  0.0573  0.0891
 1213ERGO    C113723   8.704   3.226   7.384 -0.1774  0.1455  0.0690
 1213ERGO    C213724   8.748   3.340   7.736 -0.2958  0.2777 -0.0448
 1214ERGO   ROH13725  10.973  15.905   7.308  0.1531  0.0831 -0.1865
 1214ERGO    R113726  11.006  15.916   7.588  0.0171  0.1047 -0.1686
 1214ERGO    R213727  10.964  16.146   7.735  0.0303  0.1453 -0.2133
 1214ERGO    R313728  10.797  15.986   7.878 -0.1045  0.2218 -0.2867
 1214ERGO    R413729  10.919  16.162   8.077  0.0851 -0.0258 -0.1983
 1214ERGO    R513730  10.914  15.944   8.082 -0.1250 -0.0181 -0.3282
 1214ERGO    C113731  10.736  16.021   8.410 -0.0094 -0.0540 -0.2584
 1214ERGO    C213732  10.872  16.003   8.812 -0.0756  0.0693 -0.1543
 1215ERGO   ROH13733  18.001   8.780   6.771 -0.1165 -0.1567  0.1088
 1215ERGO    R113734  18.140   8.889   6.992 -0.1092  0.0642 -0.0029
 1215ERGO    R213735  18.043   9.101   7.139 -0.3370 -0.0965  0.0777
 1215ERGO    R313736  18.080   8.931   7.348  0.1122 -0.0465  0.0507
 1215ERGO    R413737  18.013   9.189   7.472 -0.5441 -0.2132  0.0927
 1215ERGO    R513738  18.188   9.066   7.515 -0.2110  0.2162  0.0622
 1215ERGO    C113739  18.030   9.082   7.862 -0.2428 -0.2343  0.0761
 1215ERGO    C213740  18.058   9.184   8.261 -0.2286 -0.0048 -0.0068
 1216ERGO   ROH13741   4.237   7.359   7.336  0.0404  0.1573 -0.0055
 1216ERGO    R113742   4.399   7.324   7.566  0.0937 -0.0508 -0.0712
 1216ERGO    R213743   4.672   7.286   7.552  0.1348  0.2274 -0.1616
 1216ERGO    R313744   4.678   7.498   7.721 -0.0550 -0.0231  0.1701
 1216ERGO    R413745   4.929   7.356   7.771  0.0741  0.1260 -0.0581
 1216ERGO    R513746   4.781   7.413   7.920  0.0256 -0.2372  0.0380
 1216ERGO    C113747   5.085   7.597   8.058 -0.1395 -0.1682  0.3136
 1216ERGO    C213748   5.187   7.674   8.368  0.0375  0.2472  0.1992
 1217ERGO   ROH13749  14.144  12.030  10.945  0.0875  0.0880  0.0502
 1217ERGO    R113750  14.024  11.912  10.717  0.1318 -0.1906  0.1661
 1217ERGO    R213751  13.995  12.048  10.478 -0.3329 -0.2781  0.1628
 1217ERGO    R313752  14.126  11.832  10.377  0.0238 -0.0417  0.0976
 1217ERGO    R413753  14.039  11.983  10.141 -0.3612 -0.1866  0.1411
 1217ERGO    R513754  14.000  11.772  10.182  0.0425 -0.2662  0.1518
 1217ERGO    C113755  14.187  11.743   9.850 -0.0428  0.0886  0.0673
 1217ERGO    C213756  14.498  11.823   9.577 -0.2395  0.0834 -0.0159
 1218ERGO   ROH13757   8.401  14.046   7.248 -0.2688  0.2871 -0.1115
 1218ERGO    R113758   8.444  14.009   7.525 -0.0806  0.1134 -0.1623
 1218ERGO    R213759   8.449  14.219   7.704  0.0266 -0.0032 -0.0361
 1218ERGO    R313760   8.258  14.074   7.832  0.1222 -0.0925  0.0092
 1218ERGO    R413761   8.328  14.288   8.020 -0.0503  0.0539 -0.0763
 1218ERGO    R513762   8.328  14.073   8.061  0.1077  0.0644  0.0196
 1218ERGO    C113763   8.078  14.191   8.324 -0.0054  0.0033 -0.0571
 1218ERGO    C213764   7.994  14.139   8.647  0.1124  0.0274  0.1498
 1219ERGO   ROH13765   7.523  16.296  10.311  0.2455  0.2601  0.0789
 1219ERGO    R113766   7.412  16.383  10.066  0.2242  0.1190  0.0391
 1219ERGO    R213767   7.534  16.573   9.906  0.2696 -0.0658 -0.1370
 1219ERGO    R313768   7.509  16.380   9.715  0.1306 -0.1998  0.0103
 1219ERGO    R413769   7.427  16.628   9.582  0.1842 -0.2496 -0.1426
 1219ERGO    R513770   7.313  16.442   9.593  0.1089 -0.2042  0.0317
 1219ERGO    C113771   7.341  16.479   9.215  0.0039 -0.4823 -0.0077
 1219ERGO    C213772   7.356  16.549   8.848 -0.1446 -0.3643  0.0291
 1220ERGO   ROH13773   3.915  14.742   9.258  0.2595 -0.0353  0.0610
 1220ERGO    R113774   3.819  14.642   9.011  0.0299 -0.1086  0.1773
 1220ERGO    R213775   3.976  14.632   8.784 -0.2055 -0.0974  0.0135
 1220ERGO    R313776   3.904  14.370   8.785 -0.1220 -0.1210  0.1328
 1220ERGO    R413777   4.009  14.417   8.515 -0.3769 -0.1368  0.0225
 1220ERGO    R513778   3.815  14.332   8.566 -0.3088 -0.1903  0.2162
 1220ERGO    C113779   3.961  14.045   8.360 -0.3984 -0.1819  0.1396
 1220ERGO    C213780   4.294  13.901   8.148  0.2141  0.3166 -0.1175
 1221ERGO   ROH13781  13.028   7.950   7.213  0.1697 -0.1667 -0.0753
 1221ERGO    R113782  13.104   7.928   7.485  0.0479 -0.0248 -0.0288
 1221ERGO    R213783  12.924   7.960   7.692 -0.0864 -0.1088 -0.1303
 1221ERGO    R313784  13.017   7.716   7.767  0.0745 -0.0127 -0.0118
 1221ERGO    R413785  12.874   7.817   8.003 -0.2590 -0.1223 -0.1630
 1221ERGO    R513786  13.080   7.745   7.997 -0.1804  0.0737  0.0496
 1221ERGO    C113787  12.933   7.505   8.254 -0.2083 -0.0399 -0.0709
 1221ERGO    C213788  12.755   7.206   8.281 -0.0326  0.2440 -0.4223
 1222ERGO   ROH13789   2.840   8.413   6.771  0.3522 -0.0149  0.1459
 1222ERGO    R113790   2.688   8.441   7.007  0.2179 -0.1110  0.0697
 1222ERGO    R213791   2.803   8.485   7.254  0.0630  0.0168  0.1106
 1222ERGO    R313792   2.633   8.698   7.259 -0.1216 -0.1230  0.0168
 1222ERGO    R413793   2.737   8.677   7.534  0.0668  0.1989 -0.0099
 1222ERGO    R513794   2.527   8.683   7.474  0.0161 -0.0382  0.1000
 1222ERGO    C113795   2.540   8.989   7.702 -0.1043  0.1737 -0.1682
 1222ERGO    C213796   2.725   9.209   7.888  0.1920 -0.1208 -0.1904
 1223ERGO   ROH13797  12.636   5.546   7.020 -0.0195  0.0060 -0.0642
 1223ERGO    R113798  12.565   5.552   7.294 -0.0598  0.1102 -0.0769
 1223ERGO    R213799  12.727   5.450   7.493 -0.1687  0.0241 -0.0316
 1223ERGO    R313800  12.699   5.698   7.598  0.0006  0.0658 -0.0821
 1223ERGO    R413801  12.785   5.532   7.823  0.0255  0.0831 -0.0788
 1223ERGO    R513802  12.610   5.661   7.817  0.0840  0.1660 -0.0300
 1223ERGO    C113803  12.792   5.814   8.115  0.2976  0.1566 -0.1537
 1223ERGO    C213804  13.128   5.901   8.340 -0.1296 -0.2778  0.0111
 1224ERGO   ROH13805   6.884   0.309   6.572  0.0006 -0.2246  0.1536
 1224ERGO    R113806   6.857   0.509   6.771 -0.0805 -0.0914  0.0106
 1224ERGO    R213807   6.643   0.517   6.945 -0.0397 -0.1058  0.0624
 1224ERGO    R313808   6.839   0.520   7.134  0.0119  0.1695  0.0090
 1224ERGO    R413809   6.588   0.522   7.286  0.0382 -0.5357  0.0859
 1224ERGO    R513810   6.753   0.663   7.306 -0.2712 -0.1719  0.1618
 1224ERGO    C113811   6.739   0.527   7.662  0.1319 -0.5275  0.0495
 1224ERGO    C213812   6.567   0.507   7.871  0.0329 -0.0217  0.0852
 1225ERGO   ROH13813   1.034  10.526   6.821  0.1605  0.1909 -0.1640
 1225ERGO    R113814   1.072  10.575   7.097  0.1620  0.0296 -0.1337
 1225ERGO    R213815   1.299  10.699   7.197  0.0583  0.1935 -0.0872
 1225ERGO    R313816   1.118  10.867   7.309 -0.0979 -0.0731  0.0675
 1225ERGO    R413817   1.277  10.769   7.534  0.3170  0.2495 -0.0803
 1225ERGO    R513818   1.060  10.764   7.517  0.3031 -0.1125  0.1642
 1225ERGO    C113819   1.094  10.969   7.836  0.3211  0.0319  0.0690
 1225ERGO    C213820   1.165  11.259   7.974  0.1204  0.0439  0.1478
 1226ERGO   ROH13821  12.427  16.768  10.331  0.4963 -0.2383 -0.0309
 1226ERGO    R113822  12.493  16.676  10.072  0.3569  0.0482 -0.1723
 1226ERGO    R213823  12.302  16.611   9.883  0.2500 -0.0438 -0.0243
 1226ERGO    R313824  12.440  16.788   9.729 -0.1259  0.2507 -0.0426
 1226ERGO    R413825  12.313  16.606   9.538  0.3853 -0.1791 -0.0198
 1226ERGO    R513826  12.525  16.655   9.549  0.2797  0.3642  0.0453
 1226ERGO    C113827  12.449  16.768   9.192  0.1111  0.0184 -0.0343
 1226ERGO    C213828  12.353  16.865   8.822 -0.0244  0.0978 -0.0060
 1227ERGO   ROH13829   1.321  13.641   6.331  0.2664 -0.0028 -0.0787
 1227ERGO    R113830   1.456  13.562   6.567  0.1138 -0.0978 -0.0227
 1227ERGO    R213831   1.631  13.729   6.702  0.2539 -0.2595 -0.0141
 1227ERGO    R313832   1.471  13.673   6.914  0.1373 -0.0383 -0.0402
 1227ERGO    R413833   1.703  13.809   7.030  0.3854 -0.4571  0.0072
 1227ERGO    R513834   1.622  13.615   7.090  0.0418 -0.3466 -0.0455
 1227ERGO    C113835   1.594  13.803   7.421  0.3524 -0.3646 -0.0050
 1227ERGO    C213836   1.823  13.666   7.780 -0.0876 -0.0443  0.2301
 1228ERGO   ROH13837  15.414  13.913   7.418 -0.0832  0.1932  0.0809
 1228ERGO    R113838  15.467  13.836   7.685  0.0411  0.1228  0.0365
 1228ERGO    R213839  15.553  14.014   7.878 -0.0237  0.1041  0.0802
 1228ERGO    R313840  15.338  13.920   8.015  0.0758 -0.0909  0.1070
 1228ERGO    R413841  15.548  13.955   8.218  0.0429  0.2025  0.0993
 1228ERGO    R513842  15.433  13.773   8.179  0.2398  0.0604  0.1533
 1228ERGO    C113843  15.343  13.832   8.545  0.1750  0.0767  0.1356
 1228ERGO    C213844  15.415  13.877   8.879  0.0182 -0.3705  0.0128
 1229ERGO   ROH13845   1.652  11.549   9.548 -0.1623  0.0571  0.1102
 1229ERGO    R113846   1.646  11.590   9.268  0.0263 -0.1801  0.0693
 1229ERGO    R213847   1.744  11.818   9.149 -0.1429 -0.1604 -0.0302
 1229ERGO    R313848   1.890  11.641   9.003  0.1935 -0.1121  0.2338
 1229ERGO    R413849   1.975  11.905   8.907 -0.2504 -0.0780 -0.1051
 1229ERGO    R513850   1.902  11.740   8.785  0.0543 -0.3793  0.0991
 1229ERGO    C113851   2.247  11.790   8.629  0.0029  0.0153  0.0991
 1229ERGO    C213852   2.577  11.745   8.367  0.1604 -0.1106  0.1081
 1230ERGO   ROH13853  17.391   6.418   6.580 -0.1441 -0.0463  0.2013
 1230ERGO    R113854  17.559   6.360   6.800 -0.2717 -0.0729  0.2933
 1230ERGO    R213855  17.773   6.521   6.870 -0.0227 -0.3291  0.1466
 1230ERGO    R313856  17.650   6.522   7.113 -0.0693  0.1351  0.1294
 1230ERGO    R413857  17.931   6.579   7.172 -0.0226 -0.0745  0.0996
 1230ERGO    R513858  17.809   6.422   7.261 -0.2024  0.1727  0.2988
 1230ERGO    C113859  17.908   6.614   7.575 -0.0659  0.5096  0.0561
 1230ERGO    C213860  17.895   6.756   7.975 -0.1295  0.3438  0.3914
 1231ERGO   ROH13861  16.387   1.907   6.653  0.1754 -0.3008 -0.0893
 1231ERGO    R113862  16.385   1.859   6.931  0.0840 -0.1221 -0.0581
 1231ERGO    R213863  16.421   1.607   7.039  0.0684 -0.0493  0.1152
 1231ERGO    R313864  16.618   1.731   7.180  0.0096  0.0564  0.1069
 1231ERGO    R413865  16.534   1.507   7.349  0.2824 -0.1209  0.0169
 1231ERGO    R513866  16.546   1.717   7.408  0.1085 -0.1393  0.1294
 1231ERGO    C113867  16.785   1.564   7.663  0.3515 -0.0633 -0.0481
 1231ERGO    C213868  16.891   1.577   7.977  0.2014 -0.3627  0.0530
 1232ERGO   ROH13869   0.895   8.186   6.437 -0.2795 -0.0392 -0.1077
 1232ERGO    R113870   0.951   8.166   6.714 -0.1703 -0.0108 -0.1257
 1232ERGO    R213871   0.850   8.346   6.900 -0.1849 -0.0479 -0.0867
 1232ERGO    R313872   0.758   8.119   7.019 -0.0437 -0.0903 -0.0599
 1232ERGO    R413873   0.803   8.306   7.240 -0.2489 -0.0204 -0.0933
 1232ERGO    R513874   0.883   8.104   7.223 -0.0935  0.0432 -0.0261
 1232ERGO    C113875   0.689   8.071   7.550 -0.1535 -0.0442 -0.0719
 1232ERGO    C213876   0.641   7.957   7.911 -0.1325 -0.0808  0.2387
 1233ERGO   ROH13877  11.282   0.759   6.997  0.2840  0.3275 -0.1056
 1233ERGO    R113878  11.440   0.853   7.213  0.1121  0.3247  0.0228
 1233ERGO    R213879  11.336   1.006   7.418 -0.1178  0.0537  0.1113
 1233ERGO    R313880  11.444   0.812   7.574  0.0319  0.0456 -0.0052
 1233ERGO    R413881  11.435   1.049   7.746 -0.0717 -0.0396  0.1107
 1233ERGO    R513882  11.610   0.926   7.705 -0.0075  0.0842  0.0123
 1233ERGO    C113883  11.594   0.892   8.084  0.0959 -0.1015  0.0010
 1233ERGO    C213884  11.553   0.947   8.417 -0.0557  0.0088 -0.1501
 1234ERGO   ROH13885  16.232   9.823   6.872  0.3451  0.2072  0.0128
 1234ERGO    R113886  16.351   9.915   7.111  0.2191  0.1719  0.0915
 1234ERGO    R213887  16.203   9.991   7.332  0.1035  0.0345  0.0684
 1234ERGO    R313888  16.360   9.810   7.459  0.1292  0.0507  0.0566
 1234ERGO    R413889  16.214   9.945   7.674  0.0929 -0.0096  0.0618
 1234ERGO    R513890  16.430   9.922   7.659  0.0944  0.0346  0.0740
 1234ERGO    C113891  16.369   9.747   7.993  0.1109 -0.0202  0.0469
 1234ERGO    C213892  16.475   9.824   8.275 -0.1069 -0.0780  0.1164
 1235ERGO   ROH13893   7.899  16.708   6.950  0.1424  0.4984  0.0588
 1235ERGO    R113894   7.978  16.642   7.214  0.2225  0.5687  0.0526
 1235ERGO    R213895   7.968  16.824   7.422 -0.2668  0.4641  0.1295
 1235ERGO    R313896   7.821  16.629   7.541  0.1485  0.0570  0.0047
 1235ERGO    R413897   7.961  16.761   7.762 -0.4173  0.4926  0.1325
 1235ERGO    R513898   7.961  16.548   7.718  0.2191  0.4675  0.1498
 1235ERGO    C113899   7.820  16.542   8.072 -0.1151  0.1270  0.0170
 1235ERGO    C213900   7.555  16.622   8.351  0.0711  0.1949 -0.1732
 1236ERGO   ROH13901   4.985   3.002   9.552  0.0203  0.2933 -0.1525
 1236ERGO    R113902   4.999   2.937   9.277 -0.0698  0.0108 -0.0930
 1236ERGO    R213903   5.230   2.968   9.128 -0.2009  0.1438 -0.2655
 1236ERGO    R313904   5.188   2.706   9.069  0.0938  0.0203  0.0413
 1236ERGO    R413905   5.362   2.804   8.854 -0.3508  0.0923 -0.3084
 1236ERGO    R513906   5.171   2.700   8.830 -0.2465 -0.2169  0.0608
 1236ERGO    C113907   5.400   2.462   8.639 -0.1616 -0.0535 -0.0453
 1236ERGO    C213908   5.506   2.313   8.363  0.2170  0.3288  0.0097
 1237ERGO   ROH13909  10.437  17.508   7.056  0.2422 -0.2850  0.3076
 1237ERGO    R113910  10.595  17.631   7.256  0.1853  0.0131  0.1759
 1237ERGO    R213911  10.684  17.892   7.236 -0.1158  0.1119 -0.0119
 1237ERGO    R313912  10.564  17.917   7.479 -0.0546  0.1110  0.0178
 1237ERGO    R413913  10.786  18.108   7.486 -0.0329  0.0715 -0.0112
 1237ERGO    R513914  10.745  17.952   7.632 -0.0219  0.0705 -0.0187
 1237ERGO    C113915  10.733  18.258   7.859  0.0729  0.0473  0.0171
 1237ERGO    C213916  10.577  18.430   8.108  0.0497 -0.0025  0.2792
 1238ERGO   ROH13917   5.534  15.215   6.400  0.1607 -0.1099 -0.0142
 1238ERGO    R113918   5.606  15.182   6.672  0.0848 -0.0154  0.0178
 1238ERGO    R213919   5.636  15.397   6.845 -0.0797  0.0385 -0.0169
 1238ERGO    R313920   5.456  15.259   6.995 -0.0633 -0.0181 -0.0494
 1238ERGO    R413921   5.558  15.466   7.174  0.0622 -0.1767  0.0647
 1238ERGO    R513922   5.553  15.253   7.214  0.0160 -0.2043 -0.0883
 1238ERGO    C113923   5.343  15.378   7.506  0.1603 -0.3552  0.0815
 1238ERGO    C213924   5.156  15.288   7.819 -0.4780 -0.1661 -0.1095
 1239ERGO   ROH13925   2.576   2.191   9.593  0.0559  0.2327  0.2250
 1239ERGO    R113926   2.427   2.241   9.357  0.1672  0.1644  0.1391
 1239ERGO    R213927   2.305   2.484   9.306  0.0833  0.1088  0.0701
 1239ERGO    R313928   2.447   2.470   9.075  0.2229  0.1746  0.1514
 1239ERGO    R413929   2.267   2.698   9.038 -0.1170 -0.1230 -0.0909
 1239ERGO    R513930   2.290   2.527   8.904  0.2153 -0.1818  0.0313
 1239ERGO    C113931   2.379   2.810   8.664 -0.1025 -0.1962 -0.1083
 1239ERGO    C213932   2.267   3.045   8.455  0.1462 -0.3387 -0.0807
 1240ERGO   ROH13933  10.934   4.804   6.829 -0.1087  0.1495  0.0275
 1240ERGO    R113934  10.969   4.584   7.003  0.0075  0.1071 -0.0485
 1240ERGO    R213935  11.161   4.580   7.202  0.0584  0.1086 -0.0995
 1240ERGO    R313936  10.949   4.524   7.362  0.1178 -0.0110 -0.0605
 1240ERGO    R413937  11.182   4.443   7.519  0.1948  0.0805 -0.1201
 1240ERGO    R513938  11.009   4.321   7.472  0.2407  0.0024 -0.0978
 1240ERGO    C113939  10.995   4.312   7.853  0.3300 -0.0483 -0.0955
 1240ERGO    C213940  11.013   4.230   8.157 -0.0361 -0.3150 -0.3026
 1241ERGO   ROH13941   0.273   1.896   9.675  0.3430  0.1580 -0.0539
 1241ERGO    R113942   0.148   1.802   9.439  0.3051 -0.0228  0.0337
 1241ERGO    R213943   0.087   1.969   9.227 -0.0236 -0.1154  0.0365
 1241ERGO    R313944   0.229   1.786   9.085  0.1142  0.0302 -0.0109
 1241ERGO    R413945   0.102   1.953   8.882 -0.1249 -0.1216  0.0337
 1241ERGO    R513946   0.092   1.736   8.896  0.1069 -0.1228  0.0434
 1241ERGO    C113947   0.245   1.772   8.548 -0.0546  0.0115 -0.0125
 1241ERGO    C213948   0.379   1.738   8.248  0.0918  0.3804  0.0563
 1242ERGO   ROH13949   9.760   7.000   6.849 -0.1812 -0.0972 -0.0158
 1242ERGO    R113950   9.629   7.000   7.100 -0.2606 -0.1455 -0.0566
 1242ERGO    R213951   9.503   6.776   7.202 -0.0225 -0.2572  0.0008
 1242ERGO    R313952   9.663   6.823   7.416 -0.1430  0.0326  0.0318
 1242ERGO    R413953   9.432   6.677   7.525  0.0230 -0.2550  0.0112
 1242ERGO    R513954   9.510   6.869   7.595 -0.2593 -0.1214 -0.0258
 1242ERGO    C113955   9.541   6.663   7.915 -0.0636  0.0183  0.0463
 1242ERGO    C213956   9.538   6.456   8.120  0.3380 -0.0317 -0.0952
 1243ERGO   ROH13957  17.097  14.968   6.662  0.0553 -0.3183  0.1082
 1243ERGO    R113958  16.962  15.073   6.887  0.0307 -0.0608 -0.0228
 1243ERGO    R213959  16.938  14.934   7.125 -0.2120  0.1043  0.0526
 1243ERGO    R313960  17.048  15.159   7.231 -0.0691  0.0752 -0.0308
 1243ERGO    R413961  16.935  15.016   7.460 -0.2495  0.2765  0.0113
 1243ERGO    R513962  16.896  15.223   7.404 -0.0735  0.2810 -0.1067
 1243ERGO    C113963  17.036  15.275   7.755 -0.1373  0.3494 -0.0911
 1243ERGO    C213964  16.968  15.322   8.093 -0.0984 -0.1613 -0.1209
 1244ERGO   ROH13965  16.450  16.117   6.656  0.1659  0.1347 -0.2680
 1244ERGO    R113966  16.557  16.073   6.914 -0.1222  0.1209 -0.1466
 1244ERGO    R213967  16.827  16.100   6.970 -0.1225 -0.2505  0.0706
 1244ERGO    R313968  16.737  16.270   7.162 -0.0419 -0.0011 -0.1079
 1244ERGO    R413969  17.014  16.212   7.238 -0.1381 -0.2226  0.0701
 1244ERGO    R513970  16.838  16.191   7.364 -0.2211  0.0598  0.0054
 1244ERGO    C113971  17.039  16.438   7.574 -0.0718  0.0276 -0.0980
 1244ERGO    C213972  17.020  16.594   7.856 -0.1850  0.1089 -0.2838
 1245ERGO   ROH13973   7.030   1.350   9.523  0.1665  0.0040  0.0430
 1245ERGO    R113974   7.117   1.475   9.285  0.1650  0.0322  0.0575
 1245ERGO    R213975   7.239   1.336   9.080  0.1324  0.0514  0.0270
 1245ERGO    R313976   7.043   1.449   8.930  0.1370  0.1008  0.0576
 1245ERGO    R413977   7.252   1.377   8.737 -0.0066 -0.1698 -0.0062
 1245ERGO    R513978   7.161   1.573   8.762  0.1462 -0.0856 -0.0786
 1245ERGO    C113979   7.076   1.506   8.396 -0.0833 -0.2522  0.0031
 1245ERGO    C213980   6.916   1.366   8.069 -0.3347  0.0109  0.4046
 1246ERGO   ROH13981   8.660  12.432   7.422 -0.1112  0.0929  0.0878
 1246ERGO    R113982   8.794  12.447   7.671 -0.1568  0.0679  0.1162
 1246ERGO    R213983   8.665  12.405   7.913 -0.1626 -0.1623  0.0856
 1246ERGO    R313984   8.862  12.221   7.949 -0.0231 -0.0291  0.0028
 1246ERGO    R413985   8.789  12.304   8.219 -0.0710 -0.2066  0.0328
 1246ERGO    R513986   8.989  12.304   8.134 -0.0794 -0.0199  0.0294
 1246ERGO    C113987   9.045  12.073   8.432  0.1133 -0.1074 -0.0757
 1246ERGO    C213988   8.960  11.916   8.657  0.0085  0.0256  0.1992
 1247ERGO   ROH13989   1.834   7.415   6.657  0.0360  0.1296  0.1184
 1247ERGO    R113990   1.908   7.482   6.922 -0.0121  0.0979  0.1403
 1247ERGO    R213991   1.723   7.537   7.119 -0.0521 -0.0675  0.1512
 1247ERGO    R313992   1.857   7.343   7.254  0.0583 -0.0285  0.0987
 1247ERGO    R413993   1.735   7.510   7.463  0.0600 -0.0885  0.1460
 1247ERGO    R513994   1.946   7.456   7.447  0.0743 -0.0108  0.0804
 1247ERGO    C113995   1.867   7.311   7.791  0.2289 -0.0642  0.0937
 1247ERGO    C213996   1.950   7.419   8.085 -0.1655  0.1133  0.3530
 1248ERGO   ROH13997  10.627   3.001   6.336  0.1469  0.1270  0.0372
 1248ERGO    R113998  10.690   3.008   6.611  0.3125  0.2019 -0.0023
 1248ERGO    R213999  10.825   3.219   6.728 -0.1781  0.5399 -0.0255
 1248ERGO    R314000  10.611   3.220   6.896 -0.0877 -0.0999  0.1228
 1248ERGO    R414001  10.843   3.272   7.069 -0.0987  0.6981 -0.0530
 1248ERGO    R514002  10.693   3.116   7.096  0.4018  0.2035  0.1012
 1248ERGO    C114003  10.654   3.304   7.425  0.0323  0.1896  0.0703
 1248ERGO    C214004  10.746   3.500   7.674 -0.0732  0.2635  0.0077
 1249ERGO   ROH14005   1.562  10.140   9.678 -0.0157 -0.2776  0.1702
 1249ERGO    R114006   1.548  10.007   9.429  0.1541 -0.0858  0.0542
 1249ERGO    R214007   1.309   9.961   9.298  0.2037 -0.3031  0.0316
 1249ERGO    R314008   1.434  10.086   9.092  0.0236  0.0524  0.1306
 1249ERGO    R414009   1.252   9.896   8.963  0.3289 -0.1361 -0.0232
 1249ERGO    R514010   1.466   9.914   8.929  0.3047  0.2255 -0.0008
 1249ERGO    C114011   1.337   9.977   8.575  0.2326  0.2949  0.0377
 1249ERGO    C214012   1.139   9.999   8.269 -0.2305 -0.0457 -0.1474
 1250ERGO   ROH14013   6.956  15.135   6.880  0.1647 -0.0202  0.0451
 1250ERGO    R114014   7.024  15.268   7.120  0.0551 -0.0556  0.0965
 1250ERGO    R214015   6.912  15.509   7.194  0.0815 -0.0270  0.0399
 1250ERGO    R314016   6.852  15.375   7.422 -0.1020 -0.0223 -0.0036
 1250ERGO    R414017   6.798  15.656   7.485 -0.0814 -0.0118 -0.0303
 1250ERGO    R514018   6.926  15.520   7.598 -0.1865 -0.0447  0.0516
 1250ERGO    C114019   6.675  15.616   7.869 -0.3484  0.0015 -0.1120
 1250ERGO    C214020   6.629  15.560   8.210 -0.0262 -0.1115  0.2722
 1251ERGO   ROH14021  13.225  12.043   7.276  0.1586  0.1557 -0.0538
 1251ERGO    R114022  13.096  12.012   7.526  0.0811  0.0675 -0.1039
 1251ERGO    R214023  13.224  11.911   7.749  0.0326  0.0562 -0.0808
 1251ERGO    R314024  13.138  12.142   7.863 -0.0703  0.0084 -0.0612
 1251ERGO    R414025  13.203  11.967   8.089  0.2110  0.0900 -0.0745
 1251ERGO    R514026  13.014  12.070   8.055  0.1080 -0.0589  0.0309
 1251ERGO    C114027  13.110  12.216   8.395  0.2185  0.0647 -0.0525
 1251ERGO    C214028  13.134  12.459   8.661 -0.0756 -0.0355 -0.0133
 1252ERGO   ROH14029   9.430   9.272  10.430  0.0135  0.0683  0.0402
 1252ERGO    R114030   9.303   9.302  10.179  0.0720  0.0906  0.0133
 1252ERGO    R214031   9.354   9.515  10.011  0.2088  0.0361 -0.0129
 1252ERGO    R314032   9.406   9.318   9.831  0.1404 -0.0201  0.0276
 1252ERGO    R414033   9.315   9.544   9.669  0.0787 -0.0675 -0.0082
 1252ERGO    R514034   9.235   9.342   9.665  0.0762 -0.0701  0.0847
 1252ERGO    C114035   9.341   9.377   9.300 -0.0611 -0.1806  0.0326
 1252ERGO    C214036   9.207   9.539   8.984 -0.2439  0.3181  0.1442
 1253ERGO   ROH14037   2.621  15.053   6.107  0.0209  0.1936  0.0472
 1253ERGO    R114038   2.740  15.075   6.363  0.0047  0.1837  0.0556
 1253ERGO    R214039   2.631  15.228   6.566 -0.1335 -0.0086  0.1292
 1253ERGO    R314040   2.647  14.995   6.705  0.0797 -0.0613  0.0207
 1253ERGO    R414041   2.586  15.198   6.907 -0.1903 -0.2232  0.1046
 1253ERGO    R514042   2.751  15.056   6.912 -0.0385 -0.0496  0.0768
 1253ERGO    C114043   2.574  14.962   7.237 -0.0231 -0.3976 -0.0117
 1253ERGO    C214044   2.398  14.817   7.353 -0.0609 -0.2713 -0.0673
 1254ERGO   ROH14045  13.044   4.021   7.033 -0.2702  0.2997 -0.0942
 1254ERGO    R114046  12.947   4.188   7.240 -0.1357  0.1346  0.1052
 1254ERGO    R214047  12.935   4.106   7.504  0.0457 -0.0745  0.0507
 1254ERGO    R314048  13.079   4.332   7.547  0.0679 -0.1037  0.1328
 1254ERGO    R414049  12.915   4.301   7.788  0.1986 -0.2738  0.2015
 1254ERGO    R514050  12.928   4.478   7.662  0.1285 -0.1835  0.3187
 1254ERGO    C114051  13.039   4.627   7.994  0.3084 -0.4172  0.3664
 1254ERGO    C214052  12.971   4.667   8.292  0.1661 -0.2242 -0.0296
 1255ERGO   ROH14053   3.844   6.963   7.166 -0.1828 -0.2335 -0.0455
 1255ERGO    R114054   3.674   6.848   7.361 -0.0365 -0.2765  0.0599
 1255ERGO    R214055   3.771   6.712   7.581  0.1432  0.0368  0.1884
 1255ERGO    R314056   3.615   6.888   7.718 -0.0765 -0.0266  0.0251
 1255ERGO    R414057   3.674   6.675   7.911  0.2130  0.2485  0.2329
 1255ERGO    R514058   3.477   6.750   7.857  0.1132 -0.0639  0.1730
 1255ERGO    C114059   3.473   6.820   8.232  0.0473  0.3121  0.1057
 1255ERGO    C214060   3.454   6.781   8.592 -0.1190 -0.1724  0.0563
 1256ERGO   ROH14061   9.307  10.172   7.302  0.0404 -0.0802  0.1873
 1256ERGO    R114062   9.277  10.199   7.582  0.1320 -0.0012  0.1904
 1256ERGO    R214063   9.445  10.355   7.735  0.0565  0.2146  0.0622
 1256ERGO    R314064   9.213  10.471   7.815 -0.0189  0.0325  0.1098
 1256ERGO    R414065   9.413  10.567   8.006 -0.0525  0.2229  0.0433
 1256ERGO    R514066   9.225  10.468   8.055  0.0431  0.0733  0.1049
 1256ERGO    C114067   9.176  10.799   8.240 -0.1869  0.0568  0.0769
 1256ERGO    C214068   9.068  11.043   8.516 -0.0804 -0.3240  0.3163
 1257ERGO   ROH14069  12.063   3.627   9.782 -0.0281 -0.3758 -0.1623
 1257ERGO    R114070  11.903   3.797   9.623 -0.1044 -0.3972 -0.1084
 1257ERGO    R214071  12.008   4.007   9.477 -0.2302 -0.1280  0.1780
 1257ERGO    R314072  11.880   3.886   9.270  0.0584 -0.0720 -0.0414
 1257ERGO    R414073  11.917   4.163   9.182  0.1483 -0.0380  0.1024
 1257ERGO    R514074  11.729   4.052   9.188  0.1490 -0.0612 -0.1891
 1257ERGO    C114075  11.744   4.140   8.817  0.6397  0.0670 -0.1476
 1257ERGO    C214076  11.869   4.216   8.501 -0.1279 -0.2563 -0.3382
 1258ERGO   ROH14077  14.784   7.928  10.116 -0.1313  0.0839 -0.1323
 1258ERGO    R114078  14.798   7.969   9.836  0.1459 -0.0635 -0.1434
 1258ERGO    R214079  14.809   7.760   9.655 -0.1653 -0.1715 -0.0426
 1258ERGO    R314080  14.594   7.887   9.546  0.1630  0.2354 -0.2436
 1258ERGO    R414081  14.716   7.740   9.323 -0.1374 -0.3579 -0.0404
 1258ERGO    R514082  14.669   7.953   9.328  0.3869 -0.2178 -0.3174
 1258ERGO    C114083  14.460   7.848   9.027  0.1870 -0.0844 -0.2278
 1258ERGO    C214084  14.242   7.945   8.771 -0.0879  0.2116  0.2938
 1259ERGO   ROH14085   9.211   5.034   6.174  0.0467 -0.1926 -0.2117
 1259ERGO    R114086   9.279   4.910   6.420 -0.1736 -0.2487 -0.1770
 1259ERGO    R214087   9.377   5.053   6.636  0.2074 -0.3708 -0.2615
 1259ERGO    R314088   9.170   4.933   6.766 -0.0450  0.1505 -0.1577
 1259ERGO    R414089   9.362   5.000   6.977  0.2230 -0.2905 -0.2482
 1259ERGO    R514090   9.275   4.804   6.939 -0.2834 -0.0927 -0.1872
 1259ERGO    C114091   9.160   4.858   7.298 -0.0049  0.2455 -0.1431
 1259ERGO    C214092   9.220   5.022   7.631 -0.0532 -0.0634 -0.0695
 1260ERGO   ROH14093  10.816  14.537   7.395 -0.0218 -0.0283 -0.0641
 1260ERGO    R114094  10.669  14.609   7.626  0.0135  0.0269 -0.0584
 1260ERGO    R214095  10.622  14.432   7.833 -0.1654  0.0006 -0.1200
 1260ERGO    R314096  10.732  14.629   7.984 -0.0087 -0.1431 -0.0442
 1260ERGO    R414097  10.579  14.465   8.174 -0.0172 -0.1791 -0.0823
 1260ERGO    R514098  10.563  14.681   8.145  0.0791 -0.1532  0.0520
 1260ERGO    C114099  10.658  14.670   8.515  0.2161 -0.4185  0.0110
 1260ERGO    C214100  10.742  14.766   8.837  0.2510 -0.2069 -0.2395
 1261ERGO   ROH14101  14.645  14.566   7.235  0.0896 -0.1164  0.0281
 1261ERGO    R114102  14.652  14.678   7.495  0.2098 -0.0495 -0.0025
 1261ERGO    R214103  14.485  14.594   7.698  0.1052  0.1937  0.0228
 1261ERGO    R314104  14.719  14.559   7.832  0.0685 -0.0344  0.0299
 1261ERGO    R414105  14.521  14.614   8.041  0.0877 -0.0504  0.0396
 1261ERGO    R514106  14.709  14.719   8.011  0.1507 -0.1472  0.1310
 1261ERGO    C114107  14.761  14.593   8.367  0.0432 -0.4065  0.0561
 1261ERGO    C214108  14.659  14.592   8.739 -0.0217  0.0336 -0.0762
 1262ERGO   ROH14109  12.416   7.150   7.136  0.1838  0.2035  0.0487
 1262ERGO    R114110  12.209   7.247   7.302  0.1388 -0.0073  0.1195
 1262ERGO    R214111  12.214   7.221   7.578  0.2361 -0.0431  0.1176
 1262ERGO    R314112  12.178   7.490   7.571 -0.0065 -0.0736  0.1624
 1262ERGO    R414113  12.094   7.410   7.841  0.1448 -0.1790  0.1740
 1262ERGO    R514114  11.978   7.526   7.698 -0.0001 -0.2655  0.2251
 1262ERGO    C114115  11.990   7.772   7.988 -0.1360 -0.2867  0.2488
 1262ERGO    C214116  11.884   7.802   8.254 -0.2195  0.2331  0.1633
 1263ERGO   ROH14117   5.564  11.324   6.975 -0.0432  0.2258  0.0577
 1263ERGO    R114118   5.457  11.450   7.204 -0.1502  0.1342  0.0589
 1263ERGO    R214119   5.307  11.315   7.393 -0.0725  0.0146  0.0365
 1263ERGO    R314120   5.491  11.416   7.565 -0.1554  0.1292  0.0584
 1263ERGO    R414121   5.253  11.367   7.730 -0.0597 -0.2573  0.0832
 1263ERGO    R514122   5.362  11.555   7.713 -0.2884 -0.1139  0.1740
 1263ERGO    C114123   5.393  11.493   8.088 -0.1301 -0.3082  0.1310
 1263ERGO    C214124   5.236  11.235   8.282 -0.0468  0.2008  0.1949
 1264ERGO   ROH14125   3.572  11.414  10.011  0.0280 -0.0311  0.0526
 1264ERGO    R114126   3.737  11.281   9.823 -0.0002  0.0113 -0.0018
 1264ERGO    R214127   3.641  11.187   9.582 -0.0388  0.0548 -0.0020
 1264ERGO    R314128   3.843  11.337   9.480 -0.0618  0.0806 -0.0104
 1264ERGO    R414129   3.745  11.180   9.252 -0.0958  0.1131 -0.0216
 1264ERGO    R514130   3.951  11.192   9.322 -0.0829  0.1094 -0.0536
 1264ERGO    C114131   3.996  11.317   8.965 -0.1505  0.1712 -0.0410
 1264ERGO    C214132   3.949  11.542   8.700  0.1004 -0.1020  0.0491
 1265ERGO   ROH14133  16.682  13.385   6.854  0.3376  0.0353 -0.0176
 1265ERGO    R114134  16.783  13.276   7.096  0.2337  0.1868  0.0954
 1265ERGO    R214135  16.728  13.386   7.344 -0.2235  0.0981  0.0371
 1265ERGO    R314136  16.644  13.134   7.400  0.1030 -0.0398 -0.0656
 1265ERGO    R414137  16.749  13.235   7.654 -0.2521  0.1008  0.0410
 1265ERGO    R514138  16.806  13.050   7.554  0.1101  0.1880  0.0611
 1265ERGO    C114139  16.683  12.910   7.887  0.0378 -0.0273 -0.0532
 1265ERGO    C214140  16.844  12.891   8.157  0.2739  0.0334 -0.0532
 1266ERGO   ROH14141  10.036  11.206   7.338 -0.2397  0.2454  0.0185
 1266ERGO    R114142  10.165  11.132   7.578 -0.2806  0.0406 -0.0221
 1266ERGO    R214143  10.230  11.315   7.775 -0.0862 -0.0896  0.0285
 1266ERGO    R314144  10.090  11.144   7.934 -0.2237 -0.0122 -0.0057
 1266ERGO    R414145  10.256  11.298   8.119  0.0413 -0.2851  0.0120
 1266ERGO    R514146  10.244  11.081   8.105 -0.2155 -0.2768 -0.0973
 1266ERGO    C114147  10.139  11.128   8.469 -0.0136 -0.3263 -0.0297
 1266ERGO    C214148  10.163  11.053   8.882  0.1292  0.0314 -0.0729
 1267ERGO   ROH14149   9.459  13.239   7.496 -0.2311 -0.1800 -0.0309
 1267ERGO    R114150   9.332  13.159   7.736 -0.1403 -0.1948  0.0144
 1267ERGO    R214151   9.470  13.116   7.971 -0.0630 -0.1065 -0.0095
 1267ERGO    R314152   9.291  13.293   8.071 -0.1064 -0.1596  0.0037
 1267ERGO    R414153   9.365  13.124   8.300  0.1110 -0.0104  0.0437
 1267ERGO    R514154   9.162  13.165   8.229  0.0502 -0.1563  0.1338
 1267ERGO    C114155   9.135  13.296   8.586  0.1715 -0.0043  0.0871
 1267ERGO    C214156   9.258  13.323   8.876 -0.0644  0.0072 -0.2417
 1268ERGO   ROH14157   4.881   0.561   6.146 -0.2446 -0.0255 -0.1890
 1268ERGO    R114158   4.763   0.715   6.351 -0.1168  0.0388 -0.1630
 1268ERGO    R214159   4.709   0.613   6.603 -0.1017  0.0730 -0.1454
 1268ERGO    R314160   4.856   0.826   6.685  0.0235  0.0049 -0.1903
 1268ERGO    R414161   4.716   0.735   6.926 -0.0317  0.1383 -0.1714
 1268ERGO    R514162   4.716   0.937   6.845  0.0876  0.1216 -0.2144
 1268ERGO    C114163   4.858   1.006   7.192  0.1266  0.1125 -0.2286
 1268ERGO    C214164   5.016   1.024   7.532 -0.1054 -0.0918 -0.0356
 1269ERGO   ROH14165   2.810   7.552   6.974 -0.0448  0.0672 -0.0600
 1269ERGO    R114166   2.741   7.486   7.240  0.0466 -0.1487 -0.0890
 1269ERGO    R214167   2.910   7.344   7.406  0.2671  0.0535 -0.1436
 1269ERGO    R314168   2.873   7.556   7.573 -0.0793 -0.0688 -0.0535
 1269ERGO    R414169   2.946   7.334   7.750  0.6286  0.0314 -0.1779
 1269ERGO    R514170   2.770   7.461   7.767  0.3255 -0.3818  0.0266
 1269ERGO    C114171   2.933   7.526   8.106  0.5138 -0.0962 -0.1134
 1269ERGO    C214172   3.004   7.561   8.395  0.0095 -0.1634  0.0648
 1270ERGO   ROH14173   3.938   4.565   6.710  0.0161 -0.1430 -0.0098
 1270ERGO    R114174   3.951   4.483   6.980  0.0177 -0.0388  0.0211
 1270ERGO    R214175   4.081   4.252   7.060 -0.0189 -0.0263  0.1020
 1270ERGO    R314176   4.212   4.422   7.226  0.0202  0.0131  0.0332
 1270ERGO    R414177   4.160   4.184   7.389  0.1160  0.0141  0.0795
 1270ERGO    R514178   4.107   4.389   7.439  0.1024  0.0160  0.0786
 1270ERGO    C114179   4.329   4.303   7.737  0.2313  0.0744  0.0017
 1270ERGO    C214180   4.489   4.123   8.019  0.2602 -0.0523 -0.4583
 1271ERGO   ROH14181  14.354  17.261   6.969  0.2070 -0.3925  0.0347
 1271ERGO    R114182  14.418  17.464   7.156  0.1336 -0.2065 -0.1369
 1271ERGO    R214183  14.384  17.431   7.429 -0.1029  0.1119 -0.1196
 1271ERGO    R314184  14.647  17.501   7.437 -0.0800  0.0123  0.0109
 1271ERGO    R414185  14.557  17.518   7.715 -0.2751  0.3031 -0.0713
 1271ERGO    R514186  14.657  17.674   7.602 -0.1297  0.1577 -0.1398
 1271ERGO    C114187  14.904  17.633   7.890 -0.3540  0.3213  0.0793
 1271ERGO    C214188  15.022  17.467   8.203 -0.0898  0.0384  0.0663
 1272ERGO   ROH14189   2.656   4.915   6.711  0.1195  0.0106 -0.0098
 1272ERGO    R114190   2.807   4.921   6.951  0.0960 -0.2446  0.0137
 1272ERGO    R214191   2.699   5.003   7.192  0.1726 -0.1431  0.0119
 1272ERGO    R314192   2.790   4.761   7.278 -0.1707 -0.2893 -0.0189
 1272ERGO    R414193   2.688   4.891   7.519  0.2993 -0.0286  0.0567
 1272ERGO    R514194   2.886   4.806   7.492  0.1297 -0.3950 -0.1243
 1272ERGO    C114195   2.766   4.600   7.790  0.0507 -0.0992  0.0539
 1272ERGO    C214196   2.792   4.321   8.020 -0.0258  0.2204 -0.0064
 1273ERGO   ROH14197   2.246   0.838   9.331  0.0275 -0.0443 -0.0272
 1273ERGO    R114198   2.397   0.750   9.108  0.0245 -0.0377 -0.0301
 1273ERGO    R214199   2.312   0.782   8.847  0.0112 -0.0611 -0.0224
 1273ERGO    R314200   2.554   0.903   8.818 -0.0053 -0.0403 -0.0479
 1273ERGO    R414201   2.473   0.831   8.545  0.1075 -0.3087 -0.0158
 1273ERGO    R514202   2.661   0.780   8.643  0.0824 -0.1821  0.1009
 1273ERGO    C114203   2.793   0.973   8.342  0.1480 -0.4335 -0.0359
 1273ERGO    C214204   3.003   1.073   8.204 -0.1139  0.2442 -0.0093
 1274ERGO   ROH14205  11.314   5.662   6.846  0.1683  0.0256 -0.0229
 1274ERGO    R114206  11.142   5.586   7.057  0.1783 -0.0217 -0.0336
 1274ERGO    R214207  11.229   5.440   7.275  0.2266  0.0892  0.0111
 1274ERGO    R314208  11.120   5.646   7.415  0.0772  0.0552 -0.0498
 1274ERGO    R414209  11.140   5.427   7.609  0.3005  0.1269  0.0339
 1274ERGO    R514210  10.961   5.541   7.560  0.1867 -0.0359  0.0174
 1274ERGO    C114211  10.986   5.612   7.934  0.2033  0.1169 -0.0101
 1274ERGO    C214212  11.031   5.639   8.246  0.3837  0.2164 -0.1632
 1275ERGO   ROH14213  15.482   7.898   6.933  0.1068  0.1486  0.1043
 1275ERGO    R114214  15.626   7.911   7.177  0.0874  0.0930  0.1183
 1275ERGO    R214215  15.556   8.081   7.383  0.0681  0.0403  0.1523
 1275ERGO    R314216  15.556   7.851   7.529  0.0629  0.0063  0.0997
 1275ERGO    R414217  15.640   8.059   7.717  0.1471 -0.0462  0.1275
 1275ERGO    R514218  15.745   7.873   7.674  0.1050 -0.0576  0.0585
 1275ERGO    C114219  15.689   7.831   8.049  0.1883 -0.1285  0.0636
 1275ERGO    C214220  15.613   7.933   8.420  0.0925 -0.0883  0.1270
 1276ERGO   ROH14221  14.837  17.360   9.935  0.2436  0.0017 -0.0787
 1276ERGO    R114222  14.937  17.321   9.673  0.1921 -0.0619 -0.0902
 1276ERGO    R214223  14.849  17.117   9.509  0.2209 -0.1587  0.0048
 1276ERGO    R314224  14.802  17.321   9.335  0.1042 -0.2367 -0.0549
 1276ERGO    R414225  14.829  17.084   9.165  0.1293 -0.2803  0.0222
 1276ERGO    R514226  14.939  17.271   9.146  0.0607 -0.2553 -0.0768
 1276ERGO    C114227  14.773  17.256   8.802 -0.0334 -0.4246 -0.0238
 1276ERGO    C214228  14.520  17.322   8.585 -0.0570  0.1004  0.0747
 1277ERGO   ROH14229   4.600   6.286   6.949  0.1983 -0.0184 -0.0783
 1277ERGO    R114230   4.774   6.219   7.162  0.1437 -0.0003 -0.0277
 1277ERGO    R214231   4.748   6.327   7.415  0.2018  0.1778 -0.0944
 1277ERGO    R314232   4.743   6.066   7.491  0.0238  0.2262  0.0676
 1277ERGO    R414233   4.838   6.211   7.728  0.2660  0.2879 -0.0710
 1277ERGO    R514234   4.935   6.041   7.631  0.0744  0.1489 -0.0186
 1277ERGO    C114235   4.885   5.898   7.981  0.1362  0.3974  0.0948
 1277ERGO    C214236   4.921   5.806   8.336  0.1801 -0.1607 -0.0603
 1278ERGO   ROH14237   8.884  15.993   7.031  0.1132 -0.1728  0.0291
 1278ERGO    R114238   8.937  16.008   7.308  0.0335 -0.0063  0.0367
 1278ERGO    R214239   8.795  16.173   7.479 -0.0995  0.0040 -0.0810
 1278ERGO    R314240   8.755  15.942   7.616 -0.0121  0.0494  0.0212
 1278ERGO    R414241   8.758  16.150   7.821 -0.3084  0.1660 -0.0907
 1278ERGO    R514242   8.880  15.970   7.818 -0.1667  0.2572  0.0903
 1278ERGO    C114243   8.700  15.920   8.150 -0.3479  0.3029 -0.0004
 1278ERGO    C214244   8.559  16.098   8.409 -0.3601  0.0633  0.2243
 1279ERGO   ROH14245  15.340   4.038   9.896  0.0950 -0.2202  0.0265
 1279ERGO    R114246  15.548   4.052   9.704  0.1054  0.0263  0.0526
 1279ERGO    R214247  15.548   3.901   9.473  0.3997 -0.1148  0.1408
 1279ERGO    R314248  15.579   4.143   9.353  0.0017 -0.1241  0.0030
 1279ERGO    R414249  15.597   3.948   9.134  0.7387 -0.2728  0.1638
 1279ERGO    R514250  15.742   4.103   9.182  0.3294  0.1083  0.2474
 1279ERGO    C114251  15.655   4.202   8.824  0.5625 -0.3733  0.0479
 1279ERGO    C214252  15.507   4.542   8.621  0.3268 -0.1458  0.0008
 1280ERGO   ROH14253   9.067   5.893   9.688  0.1391 -0.0598  0.0796
 1280ERGO    R114254   9.113   6.048   9.456 -0.0476 -0.1182  0.0021
 1280ERGO    R214255   9.367   6.107   9.364 -0.1186  0.1028 -0.0517
 1280ERGO    R314256   9.274   5.999   9.133 -0.0325 -0.1005  0.0061
 1280ERGO    R414257   9.551   6.075   9.074 -0.1497  0.2975 -0.0946
 1280ERGO    R514258   9.374   6.133   8.961 -0.2765  0.0069 -0.0604
 1280ERGO    C114259   9.572   5.955   8.687 -0.0870  0.2199 -0.0654
 1280ERGO    C214260   9.781   6.118   8.431  0.1548 -0.0525  0.3123
 1281ERGO   ROH14261   3.087  15.185   9.429 -0.0659  0.1265  0.0079
 1281ERGO    R114262   3.022  15.311   9.185 -0.0796  0.0893 -0.0078
 1281ERGO    R214263   3.213  15.418   9.017 -0.1025  0.2382  0.0595
 1281ERGO    R314264   3.093  15.258   8.832  0.0752  0.1576  0.0126
 1281ERGO    R414265   3.205  15.481   8.677 -0.1368  0.3113  0.0735
 1281ERGO    R514266   2.999  15.411   8.673 -0.0679  0.1002  0.0407
 1281ERGO    C114267   3.089  15.367   8.305  0.0101  0.2782  0.0376
 1281ERGO    C214268   2.941  15.259   8.034  0.0560 -0.0318 -0.1095
 1282ERGO   ROH14269   7.992   1.229   6.504 -0.2172 -0.0035 -0.0028
 1282ERGO    R114270   8.109   1.246   6.761 -0.0321 -0.0889 -0.0801
 1282ERGO    R214271   8.059   1.456   6.934  0.1269 -0.1247  0.0084
 1282ERGO    R314272   7.992   1.256   7.105  0.2132 -0.1541  0.0086
 1282ERGO    R414273   8.054   1.483   7.278 -0.0025 -0.0818  0.0035
 1282ERGO    R514274   8.140   1.283   7.291  0.1372 -0.0236  0.0539
 1282ERGO    C114275   7.987   1.311   7.639  0.0032 -0.0845  0.0007
 1282ERGO    C214276   7.847   1.432   7.860  0.0266 -0.2159  0.2633
 1283ERGO   ROH14277  11.884   8.043  10.346 -0.1774 -0.2032  0.0647
 1283ERGO    R114278  11.708   8.073  10.126 -0.1826 -0.1771  0.0715
 1283ERGO    R214279  11.741   8.271   9.935 -0.1827 -0.1556  0.0872
 1283ERGO    R314280  11.734   8.060   9.763 -0.1883 -0.1414  0.0712
 1283ERGO    R414281  11.601   8.278   9.619 -0.2298 -0.1536  0.1086
 1283ERGO    R514282  11.521   8.078   9.655 -0.2020 -0.1596  0.1038
 1283ERGO    C114283  11.512   8.084   9.274 -0.2625 -0.1393  0.1060
 1283ERGO    C214284  11.355   8.116   8.989 -0.2978  0.0140 -0.0406
 1284ERGO   ROH14285   0.650   0.561   6.245  0.2841  0.0621 -0.0749
 1284ERGO    R114286   0.578   0.518   6.516  0.1360 -0.1174 -0.1407
 1284ERGO    R214287   0.751   0.568   6.725 -0.0171 -0.1469 -0.0060
 1284ERGO    R314288   0.545   0.720   6.816 -0.1469 -0.2938 -0.0485
 1284ERGO    R414289   0.712   0.670   7.053  0.0181  0.0911 -0.0743
 1284ERGO    R514290   0.498   0.632   7.034  0.0482 -0.1630  0.0506
 1284ERGO    C114291   0.497   0.873   7.329 -0.0833  0.0918 -0.1539
 1284ERGO    C214292   0.600   1.143   7.493  0.2375  0.2979  0.3175
 1285ERGO   ROH14293  13.002   0.219   6.721 -0.0290 -0.1107 -0.1748
 1285ERGO    R114294  13.117   0.136   6.966 -0.1906 -0.1740 -0.1196
 1285ERGO    R214295  13.317   0.278   7.093 -0.0350 -0.3846 -0.1238
 1285ERGO    R314296  13.145   0.270   7.303 -0.0974 -0.0924 -0.1595
 1285ERGO    R414297  13.375   0.423   7.401  0.0501 -0.2946 -0.1817
 1285ERGO    R514298  13.287   0.248   7.495 -0.1667 -0.1541 -0.1150
 1285ERGO    C114299  13.247   0.500   7.778  0.0410  0.0322 -0.2489
 1285ERGO    C214300  13.449   0.716   8.015 -0.1059  0.0485 -0.0276
 1286ERGO   ROH14301  12.101   0.264   6.993  0.1845 -0.2154 -0.1891
 1286ERGO    R114302  12.159   0.162   7.251  0.0881 -0.1754 -0.1496
 1286ERGO    R214303  12.305   0.304   7.438  0.1040 -0.1818 -0.1473
 1286ERGO    R314304  12.088   0.256   7.595  0.0452 -0.0597 -0.1919
 1286ERGO    R414305  12.305   0.309   7.784  0.0269 -0.2072 -0.1477
 1286ERGO    R514306  12.175   0.134   7.781 -0.0747 -0.1221 -0.1832
 1286ERGO    C114307  12.101   0.266   8.132 -0.0732 -0.1074 -0.1898
 1286ERGO    C214308  11.965   0.404   8.396 -0.0762  0.0717 -0.0466
 1287ERGO   ROH14309  18.000  14.321   6.414 -0.1151 -0.0627  0.0091
 1287ERGO    R114310  17.956  14.506   6.624 -0.0522 -0.0368 -0.0000
 1287ERGO    R214311  17.768  14.464   6.822 -0.0394  0.0186  0.0255
 1287ERGO    R314312  17.980  14.504   6.987 -0.0111 -0.0146 -0.0029
 1287ERGO    R414313  17.748  14.584   7.145  0.0269  0.0411  0.0213
 1287ERGO    R514314  17.926  14.704   7.107  0.0453  0.0025 -0.0073
 1287ERGO    C114315  17.935  14.692   7.488  0.0921  0.0231 -0.0078
 1287ERGO    C214316  17.834  14.711   7.883 -0.0639  0.0400  0.0034
 1288ERGO   ROH14317   3.926  13.481   6.401  0.2193  0.3175 -0.1048
 1288ERGO    R114318   3.953  13.693   6.586  0.1894  0.1861  0.0530
 1288ERGO    R214319   3.850  13.945   6.540  0.2655  0.2435  0.1808
 1288ERGO    R314320   3.730  13.905   6.780  0.1544  0.1032  0.1031
 1288ERGO    R414321   3.754  14.196   6.757  0.1459  0.1163  0.2770
 1288ERGO    R514322   3.824  14.073   6.923  0.0751  0.0306  0.2414
 1288ERGO    C114323   3.586  14.305   7.109 -0.0280 -0.0895  0.2600
 1288ERGO    C214324   3.413  14.547   7.278 -0.4296  0.1381 -0.1406
 1289ERGO   ROH14325   7.888  13.360  10.569 -0.2849 -0.1224  0.1022
 1289ERGO    R114326   7.949  13.407  10.296 -0.0715  0.0612  0.1785
 1289ERGO    R214327   7.833  13.263  10.091  0.2625  0.0422 -0.0051
 1289ERGO    R314328   7.767  13.510   9.999  0.1109  0.0174  0.0531
 1289ERGO    R414329   7.713  13.331   9.774  0.0968  0.0304  0.0544
 1289ERGO    R514330   7.837  13.509   9.770  0.0096  0.0814  0.0249
 1289ERGO    C114331   7.581  13.602   9.503 -0.1420  0.0003  0.1436
 1289ERGO    C214332   7.436  13.839   9.249  0.0450 -0.0233  0.0184
 1290ERGO   ROH14333   2.146  16.592   6.138 -0.0328 -0.1132  0.0393
 1290ERGO    R114334   2.162  16.719   6.391 -0.1660 -0.0513  0.0184
 1290ERGO    R214335   1.938  16.811   6.526 -0.2556 -0.1515 -0.0501
 1290ERGO    R314336   2.036  16.655   6.727 -0.2099 -0.0582 -0.0012
 1290ERGO    R414337   1.939  16.896   6.861 -0.2302 -0.0329 -0.0808
 1290ERGO    R514338   2.138  16.810   6.878 -0.2200  0.0082 -0.0688
 1290ERGO    C114339   2.031  16.800   7.244 -0.1725  0.1235 -0.0528
 1290ERGO    C214340   2.124  16.814   7.565  0.0404 -0.0007 -0.1967
 1291ERGO   ROH14341   4.665  12.645   9.778 -0.1482  0.1584 -0.0783
 1291ERGO    R114342   4.582  12.615   9.509  0.1024  0.2537 -0.1705
 1291ERGO    R214343   4.760  12.584   9.300  0.2975 -0.1140  0.0358
 1291ERGO    R314344   4.613  12.361   9.249 -0.0537  0.1352 -0.0740
 1291ERGO    R414345   4.764  12.408   9.003  0.2378 -0.1427  0.0520
 1291ERGO    R514346   4.548  12.384   9.020  0.1764  0.2355 -0.1287
 1291ERGO    C114347   4.629  12.097   8.782 -0.1268  0.0748 -0.0416
 1291ERGO    C214348   4.760  11.922   8.658 -0.0490 -0.1669  0.0134
 1292ERGO   ROH14349  14.864  13.507  10.247  0.1030 -0.2249 -0.0398
 1292ERGO    R114350  14.797  13.418   9.987  0.0100 -0.0923 -0.0624
 1292ERGO    R214351  14.542  13.439   9.883 -0.0027  0.0614 -0.0025
 1292ERGO    R314352  14.669  13.567   9.680  0.0123  0.0862  0.0226
 1292ERGO    R414353  14.423  13.464   9.559  0.0333  0.0805 -0.0143
 1292ERGO    R514354  14.626  13.431   9.488  0.0433  0.0996  0.0065
 1292ERGO    C114355  14.474  13.599   9.180  0.0684  0.1150  0.0026
 1292ERGO    C214356  14.271  13.659   8.964  0.1283  0.0178  0.1037
 1293ERGO   ROH14357   7.346  12.601  10.473 -0.2152 -0.1418 -0.1069
 1293ERGO    R114358   7.199  12.555  10.236 -0.3541  0.0968 -0.0700
 1293ERGO    R214359   7.075  12.759  10.096  0.1034  0.3372 -0.1463
 1293ERGO    R314360   7.219  12.660   9.888 -0.1417 -0.0989 -0.1185
 1293ERGO    R414361   7.010  12.823   9.763  0.2108  0.3281 -0.1690
 1293ERGO    R514362   7.055  12.614   9.719 -0.2719  0.1931 -0.0753
 1293ERGO    C114363   7.107  12.767   9.373  0.0433 -0.0865 -0.1560
 1293ERGO    C214364   7.353  12.734   9.076  0.3081  0.0188  0.0096
 1294ERGO   ROH14365   9.947   3.971   6.418  0.1698 -0.0424 -0.0345
 1294ERGO    R114366   9.812   3.967   6.667  0.1566  0.0035 -0.0403
 1294ERGO    R214367   9.656   3.754   6.747  0.0959  0.0466 -0.0379
 1294ERGO    R314368   9.817   3.760   6.966  0.0889  0.0142 -0.0323
 1294ERGO    R414369   9.595   3.584   7.042  0.1884 -0.1528 -0.1321
 1294ERGO    R514370   9.665   3.759   7.152  0.0882 -0.1751 -0.0338
 1294ERGO    C114371   9.711   3.491   7.419  0.2358 -0.2994 -0.1817
 1294ERGO    C214372   9.962   3.217   7.495  0.3163 -0.3044 -0.0633
 1295ERGO   ROH14373  17.026  15.711   9.954  0.1010 -0.4358 -0.0928
 1295ERGO    R114374  16.814  15.770   9.777  0.1208 -0.1891 -0.0347
 1295ERGO    R214375  16.846  15.775   9.502  0.0324 -0.3213 -0.0376
 1295ERGO    R314376  16.638  15.599   9.508 -0.2267 -0.0245  0.0766
 1295ERGO    R414377  16.604  15.747   9.257  0.1309 -0.2608 -0.1446
 1295ERGO    R514378  16.455  15.721   9.414 -0.0047  0.1444 -0.1766
 1295ERGO    C114379  16.268  15.566   9.120 -0.0545  0.0530 -0.0997
 1295ERGO    C214380  16.048  15.489   9.040 -0.4366  0.0300  0.3145
 1296ERGO   ROH14381   4.763   8.158  10.200 -0.0163 -0.2201  0.0742
 1296ERGO    R114382   4.702   7.940  10.031 -0.1608 -0.1982  0.0985
 1296ERGO    R214383   4.444   7.887   9.944 -0.1613  0.1123 -0.0983
 1296ERGO    R314384   4.561   7.895   9.698  0.0592 -0.1243 -0.0074
 1296ERGO    R414385   4.300   7.769   9.653 -0.1799  0.4114 -0.2142
 1296ERGO    R514386   4.494   7.690   9.594 -0.2861  0.0052 -0.0576
 1296ERGO    C114387   4.325   7.708   9.253  0.0162  0.3635 -0.1963
 1296ERGO    C214388   4.357   7.755   8.972 -0.1623  0.1083  0.0894
 1297ERGO   ROH14389  16.692  11.366  10.000  0.0759 -0.0181  0.0141
 1297ERGO    R114390  16.763  11.246   9.754  0.2250 -0.0082  0.0510
 1297ERGO    R214391  16.598  11.253   9.532  0.1565 -0.3820  0.0821
 1297ERGO    R314392  16.819  11.356   9.412 -0.0397 -0.0566 -0.0100
 1297ERGO    R414393  16.684  11.203   9.201  0.1443 -0.3371  0.0723
 1297ERGO    R514394  16.892  11.183   9.263  0.1991  0.0162  0.0195
 1297ERGO    C114395  16.941  11.272   8.896 -0.0471 -0.0056 -0.0200
 1297ERGO    C214396  16.933  11.136   8.587  0.2120  0.0298  0.1755
 1298ERGO   ROH14397   5.328   5.040   6.571  0.0097 -0.1824 -0.0484
 1298ERGO    R114398   5.267   5.109   6.838  0.0071 -0.0058 -0.0933
 1298ERGO    R214399   5.016   5.193   6.917 -0.0147 -0.0294 -0.1365
 1298ERGO    R314400   5.040   4.991   7.097  0.0645  0.1090  0.0104
 1298ERGO    R414401   4.856   5.182   7.223 -0.3878 -0.0839 -0.3274
 1298ERGO    R514402   5.039   5.101   7.310 -0.3677  0.2382 -0.0480
 1298ERGO    C114403   4.786   4.986   7.571 -0.5307  0.0143 -0.3005
 1298ERGO    C214404   4.685   4.892   7.914  0.0671 -0.1577  0.0507
 1299ERGO   ROH14405   7.448   9.935   7.238  0.3862 -0.1338  0.0943
 1299ERGO    R114406   7.337  10.050   7.472  0.1911 -0.0789 -0.0237
 1299ERGO    R214407   7.213   9.900   7.667  0.1494 -0.0482 -0.0265
 1299ERGO    R314408   7.390  10.025   7.831 -0.0083  0.1151  0.0222
 1299ERGO    R414409   7.231   9.855   8.010  0.0235  0.0534 -0.0062
 1299ERGO    R514410   7.265  10.070   8.030 -0.1305  0.0836 -0.0459
 1299ERGO    C114411   7.408   9.947   8.363 -0.1978  0.2658  0.0514
 1299ERGO    C214412   7.528   9.916   8.654 -0.0830 -0.1617 -0.2377
 1300ERGO   ROH14413   4.274   1.123   9.612 -0.2106  0.0458 -0.1439
 1300ERGO    R114414   4.424   1.036   9.388 -0.0004  0.1522 -0.0462
 1300ERGO    R214415   4.335   0.839   9.217  0.3262 -0.0275 -0.0122
 1300ERGO    R314416   4.379   1.028   9.027  0.1673 -0.0412 -0.0653
 1300ERGO    R414417   4.286   0.794   8.878  0.1915 -0.1099  0.0169
 1300ERGO    R514418   4.469   0.907   8.841  0.1341 -0.0415 -0.0841
 1300ERGO    C114419   4.299   0.947   8.502 -0.0361 -0.1707 -0.0159
 1300ERGO    C214420   4.355   0.905   8.111  0.2411  0.3174 -0.1459
 1301ERGO   ROH14421   9.102   7.972   6.775 -0.0500 -0.0401 -0.0208
 1301ERGO    R114422   9.213   7.996   7.034 -0.0682 -0.0905 -0.0084
 1301ERGO    R214423   9.180   8.223   7.189  0.0552 -0.0564 -0.0307
 1301ERGO    R314424   9.086   8.045   7.372 -0.0828  0.0158 -0.0294
 1301ERGO    R414425   9.202   8.261   7.532  0.3241 -0.1996 -0.0288
 1301ERGO    R514426   9.248   8.049   7.548  0.0349 -0.2719 -0.1279
 1301ERGO    C114427   9.127   8.116   7.903  0.3509 -0.2152 -0.0265
 1301ERGO    C214428   9.211   8.077   8.177 -0.1312  0.1809 -0.2115
 1302ERGO   ROH14429  11.413  13.768   7.701  0.0160  0.5314 -0.1879
 1302ERGO    R114430  11.281  13.823   7.945 -0.0096  0.2543 -0.1358
 1302ERGO    R214431  11.334  13.683   8.178  0.0155  0.0330 -0.2687
 1302ERGO    R314432  11.377  13.932   8.279 -0.0513 -0.0538 -0.0211
 1302ERGO    R414433  11.413  13.752   8.507 -0.0897 -0.2603 -0.1792
 1302ERGO    R514434  11.281  13.925   8.498 -0.1117 -0.2729 -0.0542
 1302ERGO    C114435  11.499  14.026   8.793 -0.2138 -0.5126  0.1055
 1302ERGO    C214436  11.807  14.147   8.883 -0.1489 -0.1715  0.0084
 1303ERGO   ROH14437  15.066   5.155   9.875  0.0339  0.1054  0.1437
 1303ERGO    R114438  15.073   5.294   9.629  0.1246 -0.0544  0.0553
 1303ERGO    R214439  15.060   5.165   9.385 -0.1244 -0.1903  0.1389
 1303ERGO    R314440  14.853   5.336   9.342  0.0750  0.0485  0.1074
 1303ERGO    R414441  14.933   5.248   9.074 -0.1743 -0.2835  0.1341
 1303ERGO    R514442  14.914   5.454   9.142  0.1311 -0.1949 -0.0242
 1303ERGO    C114443  14.665   5.456   8.853 -0.0163 -0.1135  0.1016
 1303ERGO    C214444  14.361   5.479   8.713  0.1193 -0.0705  0.1300
 1304ERGO   ROH14445   1.860   1.346   6.320 -0.1621  0.0581 -0.1240
 1304ERGO    R114446   1.816   1.257   6.585 -0.1313  0.0440 -0.1245
 1304ERGO    R214447   1.970   1.343   6.798 -0.1542  0.0865 -0.1306
 1304ERGO    R314448   1.729   1.410   6.904 -0.1707  0.0145 -0.1196
 1304ERGO    R414449   1.920   1.451   7.122 -0.1783 -0.0254 -0.0959
 1304ERGO    R514450   1.739   1.330   7.129 -0.1633 -0.0594 -0.1422
 1304ERGO    C114451   1.665   1.577   7.410 -0.2079 -0.1582 -0.0653
 1304ERGO    C214452   1.608   1.528   7.732 -0.0569  0.0709 -0.1738
 1305ERGO   ROH14453  13.876  15.375   7.180  0.0475 -0.1910 -0.0492
 1305ERGO    R114454  13.932  15.407   7.456  0.1567 -0.2683 -0.0632
 1305ERGO    R214455  13.741  15.490   7.637  0.3058 -0.0402 -0.0171
 1305ERGO    R314456  13.813  15.263   7.768  0.0592 -0.1329 -0.0347
 1305ERGO    R414457  13.694  15.433   7.975  0.0767 -0.0806 -0.0531
 1305ERGO    R514458  13.891  15.338   7.981  0.0072 -0.2395  0.0284
 1305ERGO    C114459  13.734  15.186   8.294 -0.2883 -0.1912 -0.0907
 1305ERGO    C214460  13.324  15.179   8.648 -0.0071 -0.1583 -0.3052
 1306ERGO   ROH14461   9.960  10.047   7.181 -0.0351 -0.2001  0.1922
 1306ERGO    R114462   9.791  10.090   7.405 -0.0251 -0.1624  0.1928
 1306ERGO    R214463   9.616   9.898   7.498 -0.0225 -0.1469  0.2328
 1306ERGO    R314464   9.745   9.941   7.733 -0.0106 -0.1084  0.2191
 1306ERGO    R414465   9.510   9.780   7.805 -0.0197 -0.0721  0.2626
 1306ERGO    R514466   9.568   9.971   7.893 -0.0006 -0.0597  0.2198
 1306ERGO    C114467   9.569   9.752   8.205 -0.0067  0.0076  0.2671
 1306ERGO    C214468   9.411   9.723   8.446 -0.3477 -0.2528 -0.0354
 1307ERGO   ROH14469   2.196  15.152   6.069  0.0846 -0.0903  0.0459
 1307ERGO    R114470   2.259  15.068   6.332 -0.0009 -0.0655  0.0749
 1307ERGO    R214471   2.198  15.220   6.555 -0.1413 -0.0781  0.0478
 1307ERGO    R314472   2.074  14.992   6.636 -0.1073 -0.1138 -0.0013
 1307ERGO    R414473   2.115  15.145   6.882  0.0276 -0.2388  0.0555
 1307ERGO    R514474   2.176  14.940   6.846  0.0011 -0.2235 -0.0803
 1307ERGO    C114475   1.949  14.888   7.148  0.1579 -0.3660  0.0138
 1307ERGO    C214476   1.852  14.814   7.508 -0.2572  0.4546 -0.0660
 1308ERGO   ROH14477  16.692   5.144   9.812  0.1627  0.1606  0.0228
 1308ERGO    R114478  16.563   5.312   9.625  0.2709  0.1853 -0.0310
 1308ERGO    R214479  16.694   5.419   9.406  0.3132 -0.0634 -0.1338
 1308ERGO    R314480  16.490   5.303   9.268  0.1557  0.0566 -0.0044
 1308ERGO    R414481  16.599   5.503   9.084  0.1929 -0.0508 -0.0954
 1308ERGO    R514482  16.391   5.483   9.145  0.2129  0.1042  0.0220
 1308ERGO    C114483  16.353   5.443   8.768 -0.0251  0.0691  0.0486
 1308ERGO    C214484  16.364   5.348   8.393  0.1616 -0.0950  0.1423
 1309ERGO   ROH14485  12.191   5.411   7.103 -0.1484 -0.0384  0.0580
 1309ERGO    R114486  12.142   5.379   7.380 -0.1082 -0.0914  0.0592
 1309ERGO    R214487  12.245   5.550   7.571  0.0537 -0.2207  0.0911
 1309ERGO    R314488  11.984   5.572   7.645  0.0844 -0.0644  0.1553
 1309ERGO    R414489  12.135   5.586   7.897  0.1550 -0.1383  0.1164
 1309ERGO    R514490  11.971   5.450   7.851  0.0638 -0.0451  0.1650
 1309ERGO    C114491  11.827   5.628   8.157  0.2426  0.0564  0.1915
 1309ERGO    C214492  11.562   5.608   8.510  0.0523 -0.0191  0.2576
 1310ERGO   ROH14493   2.416  13.609   6.469  0.2524 -0.0753 -0.1123
 1310ERGO    R114494   2.592  13.545   6.682  0.2644  0.0533 -0.0848
 1310ERGO    R214495   2.748  13.735   6.809 -0.0553  0.2039  0.0772
 1310ERGO    R314496   2.627  13.638   7.032  0.0036 -0.0946 -0.0143
 1310ERGO    R414497   2.890  13.726   7.124 -0.1697  0.3405  0.1357
 1310ERGO    R514498   2.802  13.529   7.153  0.1529  0.1616  0.0197
 1310ERGO    C114499   2.860  13.629   7.516 -0.1809  0.1398  0.0838
 1310ERGO    C214500   2.873  13.804   7.766  0.0262 -0.2270  0.2386
 1311ERGO   ROH14501   3.150   4.131   6.599 -0.1568  0.1899  0.0551
 1311ERGO    R114502   3.096   3.976   6.830 -0.1678  0.1365  0.0161
 1311ERGO    R214503   3.287   3.814   6.949 -0.1856  0.0816 -0.0356
 1311ERGO    R314504   3.223   3.957   7.171 -0.1576  0.0297  0.0072
 1311ERGO    R414505   3.373   3.726   7.272 -0.0741  0.0457 -0.0737
 1311ERGO    R514506   3.175   3.791   7.336 -0.0729 -0.0112 -0.0071
 1311ERGO    C114507   3.362   3.809   7.668  0.0172 -0.0240 -0.0557
 1311ERGO    C214508   3.521   3.925   7.972  0.2380  0.0681 -0.1550
 1312ERGO   ROH14509   2.374  11.009   6.627  0.0802 -0.1193 -0.0879
 1312ERGO    R114510   2.389  11.115   6.889  0.0232 -0.0377 -0.1175
 1312ERGO    R214511   2.270  11.353   6.961 -0.1636 -0.1164 -0.1687
 1312ERGO    R314512   2.155  11.200   7.154 -0.0185 -0.1592 -0.1136
 1312ERGO    R414513   2.233  11.448   7.291  0.0798 -0.1831 -0.1199
 1312ERGO    R514514   2.286  11.244   7.350  0.1284 -0.1965 -0.1999
 1312ERGO    C114515   2.104  11.360   7.665  0.3577 -0.2622 -0.0397
 1312ERGO    C214516   2.332  11.502   7.934 -0.5357  0.1161  0.2226
 1313ERGO   ROH14517  17.019   6.735  10.150 -0.0963 -0.3051  0.1227
 1313ERGO    R114518  16.972   6.596   9.908  0.0535 -0.2488  0.0618
 1313ERGO    R214519  16.991   6.718   9.661  0.0477 -0.1534  0.1164
 1313ERGO    R314520  17.163   6.514   9.609  0.1826 -0.0337  0.0801
 1313ERGO    R414521  17.037   6.573   9.350 -0.0028 -0.1777  0.1192
 1313ERGO    R514522  17.047   6.378   9.448  0.1962 -0.1570  0.1633
 1313ERGO    C114523  17.225   6.297   9.121  0.0944 -0.0795  0.0868
 1313ERGO    C214524  17.519   6.343   8.883  0.1330  0.0641  0.1202
 1314ERGO   ROH14525   7.826  13.144   7.076  0.0053  0.1290 -0.0406
 1314ERGO    R114526   7.857  13.236   7.341  0.1331 -0.1765  0.0526
 1314ERGO    R214527   7.677  13.408   7.461  0.5478  0.2341  0.0925
 1314ERGO    R314528   7.668  13.215   7.652 -0.0922  0.0875 -0.0587
 1314ERGO    R414529   7.556  13.453   7.782  0.6913  0.4074  0.1252
 1314ERGO    R514530   7.720  13.330   7.856  0.3096 -0.2209  0.0354
 1314ERGO    C114531   7.477  13.298   8.148  0.1741  0.3706  0.0022
 1314ERGO    C214532   7.414  13.532   8.344 -0.0698  0.0346  0.0224
 1315ERGO   ROH14533   8.288   9.429   7.257 -0.1000  0.0025  0.0079
 1315ERGO    R114534   8.156   9.451   7.507  0.0678  0.0829  0.0907
 1315ERGO    R214535   8.062   9.232   7.645 -0.1194  0.1513  0.0696
 1315ERGO    R314536   8.212   9.335   7.847  0.1214 -0.0958  0.0225
 1315ERGO    R414537   8.080   9.100   7.964 -0.1877  0.0786  0.0445
 1315ERGO    R514538   8.078   9.304   8.043  0.1491  0.0803  0.0732
 1315ERGO    C114539   8.233   9.121   8.339 -0.0013 -0.1954 -0.0143
 1315ERGO    C214540   8.365   9.114   8.601 -0.0117 -0.1534  0.0744
 1316ERGO   ROH14541  11.560  16.641   6.911  0.1602  0.1310 -0.1967
 1316ERGO    R114542  11.583  16.820   7.129  0.2325 -0.1074 -0.0044
 1316ERGO    R214543  11.394  17.015   7.181  0.4254  0.0605  0.0644
 1316ERGO    R314544  11.389  16.899   7.427  0.1357 -0.1772 -0.0474
 1316ERGO    R414545  11.283  17.168   7.471  0.4277 -0.0848  0.1429
 1316ERGO    R514546  11.448  17.075   7.578  0.2557 -0.3879  0.1604
 1316ERGO    C114547  11.214  17.147   7.870  0.1570 -0.3922  0.0837
 1316ERGO    C214548  11.079  17.354   8.119 -0.0115  0.1667  0.0815
 1317ERGO   ROH14549  11.685  10.669  10.347  0.2670  0.0859 -0.1133
 1317ERGO    R114550  11.719  10.584  10.079  0.3878  0.0103 -0.0763
 1317ERGO    R214551  11.586  10.702   9.868  0.1267 -0.3376 -0.1251
 1317ERGO    R314552  11.837  10.730   9.768  0.0700  0.0857 -0.1633
 1317ERGO    R414553  11.675  10.645   9.539  0.2213 -0.3982 -0.0883
 1317ERGO    R514554  11.859  10.551   9.610  0.4137  0.0131 -0.0352
 1317ERGO    C114555  11.963  10.639   9.254  0.2233 -0.0361 -0.1027
 1317ERGO    C214556  11.911  10.821   9.018  0.1886  0.1746 -0.1267
 1318ERGO   ROH14557  13.413   8.219   7.278 -0.0807  0.2270  0.0935
 1318ERGO    R114558  13.454   8.269   7.553 -0.1687  0.2620  0.1022
 1318ERGO    R214559  13.246   8.319   7.729 -0.2621 -0.0552  0.0998
 1318ERGO    R314560  13.356   8.113   7.867  0.0333  0.0836  0.0768
 1318ERGO    R414561  13.164   8.233   8.053 -0.1143 -0.2032  0.0976
 1318ERGO    R514562  13.375   8.195   8.091 -0.0626  0.0857  0.0791
 1318ERGO    C114563  13.220   7.989   8.372  0.2492 -0.1591  0.0747
 1318ERGO    C214564  13.240   7.771   8.656  0.3682  0.0536 -0.0951
 1319ERGO   ROH14565  11.346  12.909   7.429 -0.0185 -0.0084  0.1532
 1319ERGO    R114566  11.388  12.779   7.677 -0.1031 -0.0444  0.1503
 1319ERGO    R214567  11.519  12.899   7.888  0.1404 -0.1971  0.0983
 1319ERGO    R314568  11.293  12.834   8.023  0.0936  0.1200  0.1779
 1319ERGO    R414569  11.496  12.875   8.232  0.2505 -0.2817  0.0995
 1319ERGO    R514570  11.370  12.698   8.205 -0.0460 -0.0687  0.0934
 1319ERGO    C114571  11.269  12.799   8.559  0.2707 -0.0332  0.1748
 1319ERGO    C214572  11.143  12.703   8.780 -0.0294  0.1505 -0.0537
 1320ERGO   ROH14573  12.383  17.387   6.883  0.1059 -0.1596  0.0284
 1320ERGO    R114574  12.427  17.241   7.121  0.3515 -0.0587  0.0484
 1320ERGO    R214575  12.634  17.298   7.296  0.1435  0.4489  0.1494
 1320ERGO    R314576  12.434  17.312   7.478  0.0104 -0.0340  0.0525
 1320ERGO    R414577  12.669  17.233   7.633  0.0944  0.3691  0.1387
 1320ERGO    R514578  12.477  17.130   7.628  0.2948 -0.0186 -0.0075
 1320ERGO    C114579  12.501  17.207   8.001 -0.0590 -0.1305  0.0415
 1320ERGO    C214580  12.649  17.358   8.273  0.1105  0.0438 -0.1791
 1321ERGO   ROH14581  15.558   5.958   6.686 -0.0994 -0.0579 -0.1109
 1321ERGO    R114582  15.410   5.927   6.925  0.0251 -0.2978 -0.0615
 1321ERGO    R214583  15.521   5.823   7.157  0.3148  0.0084 -0.0519
 1321ERGO    R314584  15.428   6.054   7.266 -0.1519 -0.1422 -0.1098
 1321ERGO    R414585  15.448   5.868   7.491  0.2626 -0.0362 -0.0576
 1321ERGO    R514586  15.272   5.983   7.433  0.0133 -0.4143 -0.0694
 1321ERGO    C114587  15.318   6.111   7.789 -0.2060 -0.2036 -0.1152
 1321ERGO    C214588  15.517   6.067   8.091  0.0461  0.1618 -0.0704
 1322ERGO   ROH14589   6.412   8.819   7.375  0.0970  0.0746 -0.0633
 1322ERGO    R114590   6.372   8.594   7.543  0.0187  0.0216 -0.1517
 1322ERGO    R214591   6.540   8.375   7.541  0.1096  0.0899 -0.0332
 1322ERGO    R314592   6.556   8.426   7.808 -0.1763  0.0380 -0.0030
 1322ERGO    R414593   6.670   8.158   7.776  0.1447  0.1649  0.0173
 1322ERGO    R514594   6.509   8.216   7.912 -0.0391 -0.0449 -0.1032
 1322ERGO    C114595   6.760   8.079   8.164 -0.1033  0.1597  0.0751
 1322ERGO    C214596   6.988   7.829   8.274 -0.0493  0.0602  0.1993
 1323ERGO   ROH14597   7.712   2.506   6.289  0.0575  0.0271  0.0144
 1323ERGO    R114598   7.662   2.594   6.553  0.3241  0.1528  0.0232
 1323ERGO    R214599   7.527   2.441   6.738 -0.0440  0.4904  0.0331
 1323ERGO    R314600   7.749   2.484   6.889  0.1009 -0.0784  0.0117
 1323ERGO    R414601   7.540   2.412   7.082 -0.1706  0.6653  0.0551
 1323ERGO    R514602   7.666   2.590   7.087  0.3862  0.3150 -0.0567
 1323ERGO    C114603   7.756   2.436   7.424 -0.1083  0.2332  0.0477
 1323ERGO    C214604   7.599   2.161   7.689 -0.1778 -0.0341  0.0566
 1324ERGO   ROH14605   6.045   0.680   9.754  0.0704 -0.0378  0.0600
 1324ERGO    R114606   5.969   0.509   9.542  0.1796 -0.0740  0.0490
 1324ERGO    R214607   5.728   0.535   9.409  0.1037 -0.2987  0.1353
 1324ERGO    R314608   5.887   0.546   9.189  0.0225 -0.0812  0.0842
 1324ERGO    R414609   5.631   0.447   9.089  0.0080 -0.0431  0.0911
 1324ERGO    R514610   5.825   0.353   9.061  0.0145  0.0170 -0.0595
 1324ERGO    C114611   5.724   0.405   8.697 -0.1241  0.3099  0.0175
 1324ERGO    C214612   5.661   0.445   8.466 -0.2495 -0.0721 -0.0857
 1325ERGO   ROH14613  17.855   9.674   9.863  0.3152  0.2716 -0.0572
 1325ERGO    R114614  17.913   9.683   9.586  0.3096  0.3351 -0.0564
 1325ERGO    R214615  17.735   9.598   9.393  0.4644 -0.0210 -0.0495
 1325ERGO    R314616  17.775   9.847   9.292  0.0181  0.0448 -0.0872
 1325ERGO    R414617  17.767   9.671   9.057  0.5735 -0.0576 -0.0475
 1325ERGO    R514618  17.925   9.812   9.108  0.2435  0.3006  0.0397
 1325ERGO    C114619  17.824   9.947   8.766  0.2180 -0.0171 -0.0816
 1325ERGO    C214620  17.777  10.128   8.543  0.0855  0.0202 -0.1514
 1326ERGO   ROH14621   5.170  17.470   6.617 -0.0397 -0.2744 -0.2291
 1326ERGO    R114622   5.176  17.364   6.879 -0.0046 -0.1524 -0.1801
 1326ERGO    R214623   5.411  17.314   7.014  0.0126 -0.0657 -0.1788
 1326ERGO    R314624   5.298  17.471   7.205  0.0147  0.0112 -0.2401
 1326ERGO    R414625   5.504  17.320   7.347 -0.0669 -0.0193 -0.1569
 1326ERGO    R514626   5.294  17.334   7.401 -0.0750  0.0567 -0.2102
 1326ERGO    C114627   5.451  17.471   7.720 -0.1112  0.0799 -0.2016
 1326ERGO    C214628   5.438  17.412   8.101  0.0256  0.1029  0.3951
 1327ERGO   ROH14629   3.213  13.223   9.557  0.0450  0.2257  0.0283
 1327ERGO    R114630   3.165  13.218   9.278 -0.0070  0.1036  0.0409
 1327ERGO    R214631   3.359  13.143   9.096 -0.0379  0.0562  0.0420
 1327ERGO    R314632   3.168  12.967   9.014 -0.0272 -0.0029  0.1373
 1327ERGO    R414633   3.342  13.004   8.780 -0.0769 -0.0216  0.0766
 1327ERGO    R514634   3.125  13.028   8.787 -0.0906 -0.0598  0.1255
 1327ERGO    C114635   3.154  12.757   8.520 -0.0895 -0.1223  0.1860
 1327ERGO    C214636   3.300  12.471   8.351 -0.2809  0.1973 -0.0140
 1328ERGO   ROH14637   5.548  10.257   7.149 -0.1441  0.1165  0.0653
 1328ERGO    R114638   5.496  10.392   7.392 -0.1534  0.0328  0.1122
 1328ERGO    R214639   5.273  10.340   7.546 -0.1225 -0.0842  0.1369
 1328ERGO    R314640   5.457  10.300   7.742 -0.0728 -0.0846  0.0878
 1328ERGO    R414641   5.201  10.319   7.883 -0.0215 -0.1627  0.1525
 1328ERGO    R514642   5.380  10.435   7.924 -0.0446 -0.1425  0.1312
 1328ERGO    C114643   5.332  10.268   8.264  0.0840 -0.2088  0.1156
 1328ERGO    C214644   5.317  10.301   8.702 -0.0589  0.3028  0.1576
 1329ERGO   ROH14645   3.017   0.661   6.119 -0.1178 -0.2112 -0.0285
 1329ERGO    R114646   2.968   0.504   6.350  0.0456 -0.1515  0.0490
 1329ERGO    R214647   3.161   0.455   6.541  0.1098  0.1133  0.0578
 1329ERGO    R314648   2.973   0.554   6.710  0.0318  0.0219  0.0254
 1329ERGO    R414649   3.168   0.423   6.885  0.0221  0.0534  0.0543
 1329ERGO    R514650   2.953   0.388   6.881  0.0359 -0.0140 -0.0110
 1329ERGO    C114651   2.996   0.497   7.244 -0.1022 -0.0674  0.0219
 1329ERGO    C214652   2.927   0.575   7.606 -0.3168 -0.1833  0.1664
 1330ERGO   ROH14653   5.793   4.000   9.639  0.3769  0.1414  0.0659
 1330ERGO    R114654   5.876   3.988   9.369  0.1720  0.0126  0.0065
 1330ERGO    R214655   5.700   4.022   9.158  0.0224 -0.0176  0.1224
 1330ERGO    R314656   5.878   4.213   9.083  0.0248 -0.0977 -0.0826
 1330ERGO    R414657   5.695   4.190   8.855 -0.2455 -0.0155  0.1261
 1330ERGO    R514658   5.912   4.175   8.849 -0.2585 -0.1128 -0.1231
 1330ERGO    C114659   5.859   4.467   8.609 -0.3993 -0.0895 -0.0644
 1330ERGO    C214660   5.939   4.509   8.192  0.1223  0.1992 -0.0354
 1331ERGO   ROH14661  13.524   7.097   6.863  0.0880  0.1229 -0.2093
 1331ERGO    R114662  13.473   7.132   7.139  0.0101 -0.0223 -0.2067
 1331ERGO    R214663  13.591   6.974   7.333  0.0134 -0.0678 -0.2595
 1331ERGO    R314664  13.668   7.214   7.436 -0.0931 -0.0910 -0.1160
 1331ERGO    R414665  13.731   7.018   7.646  0.0849 -0.2160 -0.2676
 1331ERGO    R514666  13.611   7.199   7.668 -0.0185 -0.2932 -0.1025
 1331ERGO    C114667  13.884   7.268   7.925  0.0265 -0.3240 -0.1376
 1331ERGO    C214668  13.919   7.192   8.179 -0.1825  0.1311  0.0417
 1332ERGO   ROH14669  15.302   8.865   6.960  0.0159  0.0918  0.0397
 1332ERGO    R114670  15.252   8.986   7.211 -0.3108  0.1163 -0.0325
 1332ERGO    R214671  15.057   8.893   7.384 -0.1998 -0.1888 -0.0595
 1332ERGO    R314672  15.264   8.884   7.560 -0.2324  0.2981  0.0182
 1332ERGO    R414673  15.028   8.813   7.719 -0.1407 -0.1966 -0.0566
 1332ERGO    R514674  15.172   8.970   7.764 -0.4970  0.1359 -0.0295
 1332ERGO    C114675  15.205   8.757   8.079 -0.1369  0.2559  0.0180
 1332ERGO    C214676  15.385   8.733   8.374 -0.3114  0.1771 -0.0771
 1333ERGO   ROH14677   0.317  13.473   6.692  0.0200  0.1898 -0.0548
 1333ERGO    R114678   0.241  13.623   6.920 -0.0620 -0.0650  0.0896
 1333ERGO    R214679   0.258  13.524   7.177  0.3722 -0.1629  0.0268
 1333ERGO    R314680   0.402  13.750   7.220 -0.0195  0.1049 -0.0023
 1333ERGO    R414681   0.323  13.661   7.487  0.4003 -0.1998  0.0380
 1333ERGO    R514682   0.291  13.859   7.402 -0.0682 -0.2047  0.1637
 1333ERGO    C114683   0.497  13.953   7.709  0.0490  0.0301  0.0171
 1333ERGO    C214684   0.784  14.034   8.034 -0.0076  0.3042 -0.1339
 1334ERGO   ROH14685   7.339  11.061   7.104 -0.2591  0.0410  0.0269
 1334ERGO    R114686   7.308  10.975   7.372 -0.1092  0.0174  0.0376
 1334ERGO    R214687   7.523  10.944   7.543 -0.0259  0.1429 -0.0405
 1334ERGO    R314688   7.379  11.110   7.703 -0.0683  0.0543  0.0139
 1334ERGO    R414689   7.541  10.951   7.889 -0.0558  0.0060 -0.0359
 1334ERGO    R514690   7.324  10.977   7.894 -0.0614 -0.0333 -0.0442
 1334ERGO    C114691   7.417  11.112   8.239 -0.1131 -0.1569  0.0178
 1334ERGO    C214692   7.353  11.108   8.600 -0.1024  0.0462 -0.2405
 1335ERGO   ROH14693  15.335   9.791  10.428  0.0565  0.1652  0.0844
 1335ERGO    R114694  15.333   9.967  10.207  0.1582  0.0268 -0.0285
 1335ERGO    R214695  15.430   9.895   9.958 -0.0245 -0.2412 -0.0248
 1335ERGO    R314696  15.183   9.974   9.875  0.0246 -0.0222  0.0300
 1335ERGO    R414697  15.346   9.971   9.632 -0.0822 -0.3881 -0.0449
 1335ERGO    R514698  15.227  10.137   9.706  0.1379 -0.1941 -0.1113
 1335ERGO    C114699  15.066  10.088   9.363 -0.0698 -0.2682 -0.0053
 1335ERGO    C214700  15.044  10.025   8.989  0.1208  0.3311  0.1162
 1336ERGO   ROH14701   4.470   3.730   9.838  0.0553 -0.3283  0.1249
 1336ERGO    R114702   4.504   3.858   9.589  0.0994 -0.1480  0.2171
 1336ERGO    R214703   4.751   3.893   9.472  0.1276 -0.1469  0.2327
 1336ERGO    R314704   4.634   3.769   9.260  0.0665  0.0415  0.1559
 1336ERGO    R414705   4.822   3.960   9.140 -0.1133  0.2533  0.2582
 1336ERGO    R514706   4.609   3.942   9.096 -0.1172  0.2033  0.3648
 1336ERGO    C114707   4.753   3.882   8.748 -0.3110  0.6632  0.2009
 1336ERGO    C214708   4.834   4.045   8.427  0.0605 -0.1351 -0.2140
 1337ERGO   ROH14709  14.064  12.603   7.251 -0.0979  0.3797  0.0397
 1337ERGO    R114710  14.060  12.595   7.534 -0.0994  0.2926  0.0378
 1337ERGO    R214711  14.057  12.358   7.676 -0.1488  0.2473 -0.0345
 1337ERGO    R314712  14.275  12.466   7.798 -0.1258  0.1651 -0.0033
 1337ERGO    R414713  14.163  12.279   7.995 -0.0474 -0.0129 -0.1306
 1337ERGO    R514714  14.208  12.490   8.027 -0.0608 -0.0366  0.0371
 1337ERGO    C114715  14.430  12.333   8.295  0.0332 -0.2416 -0.1572
 1337ERGO    C214716  14.464  12.235   8.650 -0.2006  0.2927  0.1947
 1338ERGO   ROH14717   6.637  17.268   6.582  0.1615 -0.1539  0.0993
 1338ERGO    R114718   6.498  17.150   6.798  0.2407 -0.2232  0.1146
 1338ERGO    R214719   6.626  17.017   7.004  0.3547  0.0966  0.2637
 1338ERGO    R314720   6.486  17.191   7.159  0.0270  0.0010  0.0834
 1338ERGO    R414721   6.570  16.976   7.342  0.2733  0.2642  0.2707
 1338ERGO    R514722   6.366  17.050   7.312  0.1763 -0.0646  0.1339
 1338ERGO    C114723   6.405  17.115   7.686 -0.0818  0.2721  0.1054
 1338ERGO    C214724   6.224  17.074   7.936 -0.2496  0.2441 -0.0357
 1339ERGO   ROH14725   6.515   2.448   9.326  0.1715  0.1491 -0.0495
 1339ERGO    R114726   6.480   2.475   9.046  0.0676  0.1310 -0.0390
 1339ERGO    R214727   6.471   2.258   8.876  0.0267  0.1203 -0.0256
 1339ERGO    R314728   6.235   2.368   8.799 -0.0121  0.0935  0.0557
 1339ERGO    R414729   6.330   2.223   8.562  0.0971  0.3954 -0.0901
 1339ERGO    R514730   6.271   2.433   8.571 -0.0031  0.3602  0.1301
 1339ERGO    C114731   6.026   2.306   8.308  0.1018  0.5305 -0.0513
 1339ERGO    C214732   5.879   2.290   8.017  0.0199  0.0588  0.0891
 1340ERGO   ROH14733  16.006   0.253   9.817  0.3711  0.1575 -0.1169
 1340ERGO    R114734  15.864   0.312   9.579  0.2893  0.0704 -0.0900
 1340ERGO    R214735  15.826   0.570   9.488  0.0958  0.0511 -0.0727
 1340ERGO    R314736  15.936   0.471   9.260  0.1268  0.1350 -0.0947
 1340ERGO    R414737  15.750   0.679   9.169  0.0481  0.0755 -0.0535
 1340ERGO    R514738  15.756   0.471   9.102  0.1257  0.0926 -0.0905
 1340ERGO    C114739  15.809   0.650   8.769  0.0495  0.1685 -0.0628
 1340ERGO    C214740  15.764   0.801   8.414  0.2151 -0.0275  0.1667
 1341ERGO   ROH14741  12.492   8.610   7.002  0.1605  0.2769 -0.0480
 1341ERGO    R114742  12.581   8.793   7.199  0.2131  0.1851  0.0133
 1341ERGO    R214743  12.415   8.888   7.399  0.2400  0.1710  0.0372
 1341ERGO    R314744  12.613   8.796   7.561  0.2067  0.0601  0.0165
 1341ERGO    R414745  12.446   8.962   7.735  0.1392 -0.0850  0.1051
 1341ERGO    R514746  12.661   8.979   7.707  0.1500 -0.0430  0.1734
 1341ERGO    C114747  12.649   8.918   8.084  0.0492 -0.3382  0.1253
 1341ERGO    C214748  12.607   8.840   8.432  0.0194  0.0724 -0.0639
 1342ERGO   ROH14749   8.858   9.866   8.969  0.0688  0.1291  0.0547
 1342ERGO    R114750   9.020   9.910   8.741  0.1286  0.0503  0.0819
 1342ERGO    R214751   9.006  10.142   8.592  0.0131 -0.0911 -0.1264
 1342ERGO    R314752   9.273  10.151   8.639 -0.0098  0.1538 -0.0255
 1342ERGO    R414753   9.217  10.392   8.482 -0.1402 -0.0162 -0.2559
 1342ERGO    R514754   9.366  10.239   8.437 -0.0011  0.0554 -0.0680
 1342ERGO    C114755   9.592  10.546   8.462 -0.2509  0.2572 -0.2364
 1342ERGO    C214756   9.848  10.730   8.598  0.1896  0.0704  0.0150
 1343W        W14757  14.093  16.945  13.341 -0.0932  0.0003  0.1787
 1344W        W14758   0.846   9.253   1.298  0.2926  0.0729  0.2426
 1345W        W14759  15.324  16.138  14.039 -0.0302  0.0712  0.0285
 1346W        W14760   1.609   3.445   0.386  0.4298  0.1995 -0.0044
 1347W        W14761   2.045   0.811   3.857  0.0693 -0.0486  0.0169
 1348W        W14762   1.629   1.412   2.699 -0.1985  0.2706  0.0810
 1349W        W14763   9.181   8.659   1.304  0.0540 -0.1566 -0.1507
 1350W        W14764   9.043  16.415   5.104 -0.0927  0.3326 -0.0922
 1351W        W14765  16.488   0.755  11.764 -0.2686 -0.0796  0.4429
 1352W        W14766   2.036  12.662   3.448 -0.0664 -0.0784  0.4368
 1353W        W14767   8.615  12.935   6.470  0.2484  0.1071  0.3517
 1354W        W14768   4.465  15.061  11.549  0.1239 -0.0712  0.0002
 1355W        W14769  11.223   3.246  11.721  0.0758 -0.0949  0.0738
 1356W        W14770   1.181  17.417  10.326  0.0325  0.1199  0.1412
 1357W        W14771  15.663   0.979   2.541 -0.0663 -0.1088  0.0937
 1358W        W14772  10.951   1.169  15.283  0.0171 -0.2490  0.0548
 1359W        W14773   5.714   6.395   4.215 -0.0780 -0.0368  0.1333
 1360W        W14774   2.224   1.287  13.382 -0.1110 -0.1368  0.0229
 1361W        W14775  14.834   4.793   2.880  0.2002  0.1310  0.2174
 1362W        W14776   6.048   1.194   1.466 -0.2986 -0.1492 -0.3484
 1363W        W14777  17.489   7.271  16.653 -0.0315  0.1286  0.0890
 1364W        W14778  10.932  17.865   4.075 -0.1995 -0.1414  0.1139
 1365W        W14779   6.401  16.115  15.483  0.1506  0.1842 -0.1343
 1366W        W14780   9.548   3.419  12.422  0.0861  0.2553 -0.0290
 1367W        W14781  13.312  17.808   1.031 -0.0464  0.1450 -0.1743
 1368W        W14782  14.060  15.806   0.913  0.1019  0.2982 -0.2462
 1369W        W14783   3.155   4.646   0.463  0.2965 -0.2117  0.1702
 1370W        W14784   2.624  13.543  15.644 -0.2028  0.0103  0.1540
 1371W        W14785  13.012  13.801   5.712 -0.1141  0.0687 -0.0226
 1372W        W14786   2.960  13.097  13.676 -0.0294  0.1130  0.0912
 1373W        W14787   2.363   6.854  13.415  0.2261  0.0211  0.3662
 1374W        W14788   5.494   8.735   0.719  0.4875 -0.0306 -0.1304
 1375W        W14789   7.095   1.944   4.315 -0.1326  0.1241  0.1839
 1376W        W14790  16.005  17.533  16.222  0.1276 -0.1271 -0.0615
 1377W        W14791  15.706  15.865   5.653  0.0545  0.1347  0.0305
 1378W        W14792   1.509  16.497   1.770 -0.5069 -0.0517  0.4288
 1379W        W14793  13.317  15.002   2.225 -0.0941  0.0821 -0.0100
 1380W        W14794  13.911   0.725  13.016 -0.1026  0.0792 -0.0840
 1381W        W14795   2.419  12.596  13.548 -0.1409 -0.0149 -0.1781
 1382W        W14796   2.154  17.172  15.102 -0.0439  0.1652 -0.0541
 1383W        W14797   0.369  17.752   1.797 -0.2330  0.2266  0.2724
 1384W        W14798  12.284   9.629  14.840  0.0511  0.1335  0.0041
 1385W        W14799  10.673  11.564  11.670  0.2316  0.1858  0.2637
 1386W        W14800  10.360   2.128   5.695  0.1068 -0.1416 -0.0531
 1387W        W14801  15.382  12.151   0.111  0.0867 -0.4031 -0.0754
 1388W        W14802  13.797  11.368  16.255 -0.0647 -0.1179 -0.2192
 1389W        W14803  17.956   2.579  16.422 -0.0842 -0.0587  0.0712
 1390W        W14804  13.223  11.781  11.362 -0.2406 -0.0417 -0.0620
 1391W        W14805   4.307  12.273  14.784 -0.0632  0.0749 -0.1943
 1392W        W14806   8.737  17.597  14.463  0.0762 -0.1585  0.3336
 1393W        W14807   1.598  14.711  14.657 -0.0880  0.0046 -0.3384
 1394W        W14808   5.103   2.182   4.023  0.1993  0.0145 -0.5730
 1395W        W14809  12.428   0.997  11.469 -0.1658 -0.0726 -0.0425
 1396W        W14810   5.677  12.999   2.561  0.0379 -0.1610 -0.1195
 1397W        W14811  12.774   4.490   5.609  0.0831 -0.0558  0.1798
 1398W        W14812   4.352  15.229   4.343  0.0697  0.0701 -0.2266
 1399W        W14813   7.408  15.438   3.847 -0.1047  0.2061  0.0522
 1400W        W14814  11.588  11.828   3.443  0.0526 -0.0986 -0.0691
 1401W        W14815  16.858   8.838   3.341  0.1049  0.2114 -0.1928
 1402W        W14816   7.557   4.299  15.200 -0.1340  0.0533  0.5552
 1403W        W14817  11.158  10.932  13.214  0.1852 -0.2972 -0.0658
 1404W        W14818  14.857   5.434  15.008 -0.2270  0.1003  0.1156
 1405W        W14819   8.129   2.657   0.727 -0.3269 -0.1387  0.1432
 1406W        W14820  11.347   0.509   0.266  0.4067 -0.1496  0.3446
 1407W        W14821   0.329  14.492  15.295 -0.3099 -0.0349 -0.0133
 1408W        W14822  11.567  12.656   6.527  0.0835  0.2585 -0.1368
 1409W        W14823   2.892  17.643   0.614  0.1803 -0.0039 -0.2061
 1410W        W14824  17.026  15.425   5.742  0.1782 -0.2170  0.0881
 1411W        W14825  12.690   3.684   4.398 -0.0289  0.0918 -0.1290
 1412W        W14826  15.213  11.381   5.858  0.2866  0.0646 -0.2633
 1413W        W14827   7.629  11.797  12.590  0.0502  0.1231 -0.1310
 1414W        W14828   9.609   4.816  12.428 -0.3900 -0.1375 -0.0352
 1415W        W14829   1.039   7.995  12.080  0.0862 -0.2930 -0.1452
 1416W        W14830  12.575   1.331  11.078 -0.0106 -0.0254  0.1141
 1417W        W14831  15.364  11.738  15.409  0.0476  0.0611  0.0029
 1418W        W14832  13.580   2.725   1.736 -0.1024 -0.2848 -0.1107
 1419W        W14833   2.527   5.160   3.893  0.0237 -0.1219 -0.0023
 1420W        W14834   1.937  13.388   2.325  0.2565 -0.2111  0.1220
 1421W        W14835   0.460   3.176  13.859  0.0746  0.0614 -0.0023
 1422W        W14836   4.865  17.006  12.788  0.0329 -0.4021 -0.0551
 1423W        W14837  12.450  12.442   2.586 -0.0350  0.1813  0.1042
 1424W        W14838  12.251  17.618  11.888  0.0922 -0.1859  0.0025
 1425W        W14839  16.850   4.949  14.695  0.1333  0.1908  0.0638
 1426W        W14840  11.198  12.053  15.026 -0.2736  0.4760 -0.1005
 1427W        W14841  17.044   9.983   3.708  0.0888  0.2239  0.0161
 1428W        W14842  14.745  12.544  16.342 -0.0999  0.0339  0.0003
 1429W        W14843   8.273  13.680  13.034 -0.0079 -0.1043  0.0515
 1430W        W14844   8.984   5.666  14.951  0.1301 -0.3969  0.0719
 1431W        W14845   0.141  15.268  15.730 -0.0269  0.0477  0.1162
 1432W        W14846   9.705  17.538   3.555 -0.0610  0.1371  0.5799
 1433W        W14847  12.345  17.458   0.743 -0.0295 -0.2925 -0.0310
 1434W        W14848   4.820  17.803   1.325  0.1690 -0.0076  0.2584
 1435W        W14849  11.754  16.454  12.147  0.1951  0.1365 -0.2137
 1436W        W14850  11.720   0.368   4.254 -0.3545 -0.1918  0.0279
 1437W        W14851  15.009  15.900   3.246 -0.1897 -0.2738  0.1345
 1438W        W14852  15.326   1.415   2.067 -0.1332  0.1582  0.0483
 1439W        W14853  15.467   8.184   5.561  0.0750  0.1814 -0.1749
 1440W        W14854  13.730   1.052  11.676 -0.1646  0.1232 -0.0576
 1441W        W14855   4.333   2.174  10.695  0.1413  0.2507  0.2485
 1442W        W14856   5.329   1.486  16.636 -0.0352  0.0101 -0.0028
 1443W        W14857  10.880   6.727   0.668 -0.0440 -0.1853 -0.0509
 1444W        W14858   7.890   3.101  11.889 -0.1931  0.0577  0.1823
 1445W        W14859   7.207  17.976   0.741 -0.3035 -0.1759  0.1507
 1446W        W14860   3.224  11.151  16.366  0.2751  0.3577 -0.0651
 1447W        W14861   8.675  16.306   0.228 -0.0685 -0.2352 -0.1628
 1448W        W14862   0.380   9.155   3.100 -0.0797  0.1016  0.0535
 1449W        W14863   8.638  10.156  16.703  0.1277  0.0577  0.1194
 1450W        W14864   2.989  10.307   3.942 -0.2795  0.0426 -0.0802
 1451W        W14865  16.505  17.369  14.471 -0.1022 -0.0060 -0.2015
 1452W        W14866  15.881  12.802  11.157 -0.0221  0.0921 -0.2978
 1453W        W14867  15.285  14.254   4.337 -0.2648  0.0541  0.2628
 1454W        W14868   6.905  16.913   0.158  0.0309 -0.0010  0.1971
 1455W        W14869   0.937  11.302  15.189  0.3006  0.2090 -0.2681
 1456W        W14870  15.089   9.900  14.759  0.0971 -0.0673  0.1763
 1457W        W14871  12.666   0.976  10.661  0.1112  0.0111  0.0625
 1458W        W14872   6.518  12.775   3.578 -0.2310 -0.0694 -0.0989
 1459W        W14873  17.239   8.061  11.982 -0.1191  0.0193 -0.0500
 1460W        W14874  10.782  17.094   6.288 -0.2356  0.3440  0.0840
 1461W        W14875  17.566  13.907   1.567  0.0979 -0.0763  0.0848
 1462W        W14876  14.320   3.475   2.187 -0.0896 -0.0039 -0.0785
 1463W        W14877   4.761  17.209  12.243 -0.0721  0.1515 -0.0468
 1464W        W14878  16.176  17.337  13.947 -0.0682 -0.2629  0.1688
 1465W        W14879  16.274  16.450   0.990  0.0572 -0.1694  0.2412
 1466W        W14880  10.179   8.895  15.260  0.1090 -0.1290 -0.1343
 1467W        W14881   1.887   5.021  11.548  0.1355 -0.1741  0.3079
 1468W        W14882  13.044   4.032   0.608  0.3834 -0.0286  0.3224
 1469W        W14883  14.110  13.876  13.587  0.0476  0.0417 -0.2404
 1470W        W14884   7.097  13.990  15.411 -0.2193  0.0175 -0.0585
 1471W        W14885   3.167   6.233   0.001 -0.2796 -0.0684  0.1197
 1472W        W14886   7.943   9.083  13.862 -0.2129  0.1141  0.1988
 1473W        W14887   3.329  17.769   2.517  0.0800  0.1016 -0.2806
 1474W        W14888   0.257   9.985   0.467 -0.2862  0.1323  0.1893
 1475W        W14889   3.454   3.601  11.190 -0.1245 -0.0542 -0.1138
 1476W        W14890   1.644   8.942   4.362 -0.0349 -0.0973  0.1770
 1477W        W14891   9.504  16.731   1.688  0.3601 -0.0760  0.1043
 1478W        W14892  15.661   5.159  11.749  0.1469 -0.0605 -0.2852
 1479W        W14893   0.850   6.519  15.649 -0.0427  0.1689  0.0064
 1480W        W14894  15.953  13.140   4.344 -0.1106 -0.1128 -0.0636
 1481W        W14895  12.429   6.396   5.076 -0.1041 -0.1220 -0.1446
 1482W        W14896   6.509  11.136  13.861  0.1228  0.2386 -0.1213
 1483W        W14897   2.860   1.014   0.253 -0.4194  0.1262  0.0081
 1484W        W14898   3.276   4.721   5.398  0.1531 -0.0833 -0.1975
 1485W        W14899   3.938  10.212   4.006 -0.0743 -0.3289 -0.0125
 1486W        W14900  12.928   2.833  13.878  0.1507  0.1014 -0.0237
 1487W        W14901   0.328   4.566  13.994  0.1897 -0.3826  0.0882
 1488W        W14902   4.341  14.685  15.513 -0.1699 -0.2307  0.0466
 1489W        W14903   7.427  13.851  15.881 -0.0189 -0.1016 -0.0411
 1490W        W14904  17.099   7.963  15.955  0.0559 -0.1941 -0.1075
 1491W        W14905   3.131  13.482   4.110  0.0797 -0.4981 -0.0159
 1492W        W14906   1.007  17.154   1.187 -0.1287  0.0084  0.0939
 1493W        W14907   5.934   3.248   3.776  0.3113 -0.1650  0.1817
 1494W        W14908   5.916  15.839   0.437  0.0100 -0.1127  0.1680
 1495W        W14909   2.546   2.826   1.694 -0.1330  0.0959  0.0620
 1496W        W14910   7.253   6.192  16.732 -0.0947  0.1644  0.0760
 1497W        W14911   3.421  17.099   3.337 -0.1798  0.1232  0.0306
 1498W        W14912   9.228  11.754   0.545  0.0435  0.0172 -0.0198
 1499W        W14913   9.985  11.681   6.486 -0.2819 -0.3120  0.0009
 1500W        W14914  10.549  12.131   5.843  0.1018  0.1727 -0.0019
 1501W        W14915   1.912   8.404  14.406  0.2742  0.0089  0.0165
 1502W        W14916   4.029  12.520   5.630 -0.1951 -0.0017  0.0599
 1503W        W14917  15.553   0.589   2.266 -0.3118  0.1480 -0.0390
 1504W        W14918   7.333  13.796   1.580  0.2826  0.1721  0.4147
 1505W        W14919  12.091  10.911   4.069  0.3859  0.0535 -0.0775
 1506W        W14920  14.420   0.045   5.140 -0.2663  0.1059  0.3276
 1507W        W14921   4.997  13.617   3.525  0.2641  0.3727 -0.2062
 1508W        W14922   8.473   6.439  16.293  0.0525 -0.1590  0.2779
 1509W        W14923  16.312  14.896  15.230  0.0015  0.0956 -0.0801
 1510W        W14924   8.472  15.867   2.132 -0.1347  0.1054 -0.0090
 1511W        W14925   0.603   3.733  10.599  0.2090 -0.1784 -0.0154
 1512W        W14926   3.723  14.350   0.290 -0.2088  0.0926 -0.0300
 1513W        W14927   9.032  17.855   1.172 -0.0267 -0.0804  0.0351
 1514W        W14928   4.595   8.868  15.376  0.2195  0.1456  0.0414
 1515W        W14929   1.872   0.965  14.244  0.0389  0.0458  0.1886
 1516W        W14930   0.736   2.686   6.303  0.1467 -0.0029  0.0400
 1517W        W14931   1.135   3.656  10.812  0.0644 -0.1524  0.1567
 1518W        W14932   6.486  12.515   0.904  0.4119 -0.2485 -0.0127
 1519W        W14933  14.603   2.753   6.082  0.2616 -0.2693  0.0963
 1520W        W14934  10.702   7.968   5.809  0.1052 -0.2954 -0.0862
 1521W        W14935   2.930  14.293  10.549 -0.0441  0.0896  0.4045
 1522W        W14936  17.502   7.472  11.575  0.3192 -0.0455  0.1810
 1523W        W14937   3.781   6.380  10.566 -0.0668  0.0894  0.0377
 1524W        W14938   9.656   1.094  11.857 -0.1476 -0.0447 -0.2895
 1525W        W14939   3.036   5.483   4.009  0.2361 -0.1567  0.3015
 1526W        W14940  11.688  12.525   0.763  0.2653  0.0048 -0.1230
 1527W        W14941   0.266  17.869  14.403  0.1939  0.0724  0.1876
 1528W        W14942  12.345   7.061  15.096  0.2870  0.2400 -0.1247
 1529W        W14943  11.213  13.237  16.760 -0.2628  0.0842 -0.0466
 1530W        W14944  12.893   9.177  14.384 -0.0747  0.0664  0.0601
 1531W        W14945   5.849   8.903  16.743 -0.1935  0.0054 -0.0886
 1532W        W14946   6.588   5.459   1.346  0.0061  0.1008 -0.0715
 1533W        W14947   7.262  14.127   3.336 -0.0793  0.0407 -0.0570
 1534W        W14948  13.564   7.139  16.572  0.2400 -0.0202  0.4010
 1535W        W14949  15.471   7.293  13.715 -0.2664  0.0288  0.0223
 1536W        W14950   6.996  15.539  14.679 -0.2968 -0.3652  0.0221
 1537W        W14951   2.722   6.625   3.024  0.2026  0.1871 -0.1804
 1538W        W14952  17.869   6.845  10.732  0.0963  0.2177  0.0374
 1539W        W14953   9.109  16.697  16.259  0.0097  0.1450 -0.0480
 1540W        W14954   0.880   8.189   2.002 -0.0970  0.1986  0.2521
 1541W        W14955  13.075   1.653   3.475  0.3820 -0.2304  0.2507
 1542W        W14956  13.220  10.935  13.248  0.0837 -0.2748 -0.3505
 1543W        W14957  12.117   3.765  16.456 -0.1957 -0.2402  0.2219
 1544W        W14958  10.835  15.083   4.932 -0.1320 -0.2572 -0.1927
 1545W        W14959  16.416  15.647  11.985 -0.1498  0.0288  0.2413
 1546W        W14960  14.540   4.705   4.903  0.2223  0.3344  0.0543
 1547W        W14961   9.869   6.869   5.014 -0.1182  0.2359 -0.0100
 1548W        W14962  16.083  12.532  10.425  0.0894  0.0647  0.0798
 1549W        W14963   9.836  16.418   1.700 -0.1523  0.1808 -0.0763
 1550W        W14964   2.203  13.121   0.968  0.2140 -0.0057 -0.2348
 1551W        W14965   3.177  17.702  15.019  0.2598  0.2293  0.0757
 1552W        W14966  16.593   3.795  10.251 -0.1360  0.0650 -0.0476
 1553W        W14967  16.336  10.328  15.397 -0.0195  0.2543  0.0503
 1554W        W14968  10.725   5.196  11.891 -0.4135  0.0130 -0.0163
 1555W        W14969  11.664   2.775   4.765  0.0974 -0.1088  0.4540
 1556W        W14970  14.072   2.655   2.613  0.0135  0.0158  0.2016
 1557W        W14971   8.342  14.971  12.059 -0.1303  0.1726 -0.0748
 1558W        W14972   6.402  13.690  10.456  0.0780 -0.0890 -0.0949
 1559W        W14973   0.542  13.368  12.453 -0.1244 -0.1820  0.1831
 1560W        W14974  15.756   2.162  12.824  0.0396  0.0209 -0.1110
 1561W        W14975   6.424  16.739  11.991 -0.3064  0.0338  0.2081
 1562W        W14976   0.239   9.803  13.970  0.0204 -0.1184  0.1712
 1563W        W14977  17.818   3.457   0.225  0.0004 -0.2138 -0.0768
 1564W        W14978   2.877   6.328  15.079  0.0517  0.0597  0.1267
 1565W        W14979   0.985  14.213  16.690  0.2341  0.0618  0.2790
 1566W        W14980   3.036  16.736   4.041  0.1352 -0.1160 -0.1475
 1567W        W14981   2.081  11.713  16.497 -0.0487 -0.2519 -0.1760
 1568W        W14982  10.852  14.817   5.391  0.1145  0.1508 -0.0152
 1569W        W14983   5.750  11.836  14.640 -0.1697 -0.0038  0.2152
 1570W        W14984  16.656   3.763  13.038  0.4134 -0.2233  0.2013
 1571W        W14985   9.360  14.808   4.669 -0.2693  0.0483 -0.1818
 1572W        W14986  14.441   5.178   3.273  0.2132 -0.4133 -0.2782
 1573W        W14987   9.585   5.779  10.592 -0.0136 -0.1528  0.0144
 1574W        W14988  10.846  15.719   6.090 -0.1062 -0.0705 -0.1096
 1575W        W14989  10.536   0.589  14.669 -0.0011 -0.2881 -0.1855
 1576W        W14990   3.874  11.726   3.628 -0.1296  0.2048 -0.1435
 1577W        W14991  12.505   8.495   0.649  0.1520  0.2075  0.3436
 1578W        W14992  16.595   6.459  15.698 -0.0262 -0.2257 -0.0448
 1579W        W14993  14.809  17.852   5.647 -0.0683 -0.2131  0.0066
 1580W        W14994   3.768  10.691  14.243  0.1418 -0.1242 -0.2287
 1581W        W14995  11.582   3.876   1.661  0.0208  0.2469 -0.2324
 1582W        W14996   8.494   6.028  13.824  0.0296 -0.2762  0.3476
 1583W        W14997  12.420  17.713   4.487 -0.1821  0.2444  0.1365
 1584W        W14998   5.985   5.936  13.588  0.0859  0.1875  0.3875
 1585W        W14999   9.864  11.897  13.952 -0.0094  0.1404  0.0063
 1586W        W15000  10.969   3.121   2.644 -0.2338 -0.1670  0.1723
 1587W        W15001   7.939  12.245  15.247 -0.2017 -0.1567  0.1471
 1588W        W15002  17.274   2.642   1.032  0.1589 -0.1594 -0.2842
 1589W        W15003   7.524   2.814  11.568  0.0530  0.0958  0.0945
 1590W        W15004   1.604   9.548  10.302 -0.0600 -0.0052 -0.3784
 1591W        W15005   3.158   4.799   2.391  0.1767 -0.0987  0.2167
 1592W        W15006   4.035   5.657  11.498  0.1108  0.0579 -0.0746
 1593W        W15007   8.691   1.221  11.831 -0.0302 -0.0300  0.0457
 1594W        W15008   8.489   0.583   4.730 -0.1496  0.0173  0.1768
 1595W        W15009  17.602  11.293  10.397 -0.1076 -0.2852 -0.0586
 1596W        W15010   1.102  15.350  15.059 -0.0098 -0.0479  0.0956
 1597W        W15011  16.343  11.252   4.181  0.1227  0.0887 -0.0223
 1598W        W15012   5.937   5.114  11.885  0.0176 -0.0229  0.2572
 1599W        W15013  13.394   8.298  13.238 -0.0952 -0.0695 -0.1066
 1600W        W15014   9.932   5.690   3.090  0.1118  0.0062  0.1557
 1601W        W15015  13.888  14.363  11.416  0.2148 -0.2108 -0.1552
 1602W        W15016  17.374  12.368   2.403 -0.0186  0.1533 -0.1080
 1603W        W15017   7.365   1.775   0.256 -0.2845 -0.2760  0.2792
 1604W        W15018   6.065  17.561  12.610  0.0035 -0.0521 -0.0931
 1605W        W15019  11.117   7.562   4.798 -0.2260 -0.0653  0.0740
 1606W        W15020  14.879   2.167   2.824  0.1019  0.0623  0.0999
 1607W        W15021  15.935   8.241  15.560  0.0671 -0.1521 -0.2485
 1608W        W15022   8.841   1.896   5.173 -0.0292  0.0853  0.0706
 1609W        W15023  15.144  13.302   2.735  0.3238 -0.1553 -0.0986
 1610W        W15024   2.181  11.943  15.445 -0.1124 -0.2404 -0.0782
 1611W        W15025   2.732  13.248  16.612  0.2997  0.0437 -0.0045
 1612W        W15026   8.318  16.013  11.128  0.0501 -0.2830  0.2182
 1613W        W15027   8.391  11.188   6.276  0.3487 -0.2548 -0.1481
 1614W        W15028  16.599  16.775   3.125 -0.4165 -0.0301 -0.0813
 1615W        W15029   4.284  15.451  15.144  0.0587  0.0429  0.1526
 1616W        W15030  12.433  14.498   0.889 -0.0992 -0.1954 -0.0492
 1617W        W15031  17.094   3.402   3.131 -0.1777 -0.1522  0.0088
 1618W        W15032  10.263  12.515   1.796 -0.0070  0.1050  0.0078
 1619W        W15033   2.015   9.883  12.291  0.0047 -0.0038 -0.1490
 1620W        W15034  14.290   7.612   0.383  0.1438  0.1791 -0.3083
 1621W        W15035  12.339   4.352  12.920  0.1315  0.1542 -0.3328
 1622W        W15036  14.968   5.508   4.149 -0.2933  0.2036  0.0137
 1623W        W15037  17.992  16.076   5.401 -0.2508 -0.2471  0.0039
 1624W        W15038  14.292  14.653   2.714 -0.1367 -0.1880 -0.1097
 1625W        W15039  10.585   1.599  11.154 -0.1489  0.1000  0.1991
 1626W        W15040  14.108   6.391  11.959  0.0530 -0.1540 -0.0773
 1627W        W15041  12.485   1.115   1.212  0.0339  0.4171 -0.0695
 1628W        W15042   4.099   9.999   0.222 -0.3089 -0.1377 -0.0451
 1629W        W15043  14.444  17.670   1.169  0.4474  0.1651  0.1461
 1630W        W15044   5.837   0.387   2.351  0.0206 -0.0307  0.3315
 1631W        W15045  10.328  11.365   1.984 -0.0141 -0.1121  0.1029
 1632W        W15046  12.875   7.022   3.254 -0.3304  0.2111  0.0576
 1633W        W15047   0.543   8.544  13.294  0.2645 -0.3252  0.3320
 1634W        W15048  17.659   0.764   2.289 -0.2855  0.2937  0.2211
 1635W        W15049  10.892   9.682  13.917  0.1070  0.2543 -0.0208
 1636W        W15050  11.832  10.070  11.286 -0.3414 -0.1554 -0.1013
 1637W        W15051  17.946   5.728   0.706  0.0398 -0.2325  0.0372
 1638W        W15052   3.716   8.782  15.711 -0.0035  0.0372 -0.2100
 1639W        W15053   6.414   4.483  11.175  0.1774  0.1184  0.0604
 1640W        W15054   1.495  16.661  11.186 -0.2143  0.0226 -0.1532
 1641W        W15055  12.531   2.707   0.981 -0.1380 -0.1683 -0.3460
 1642W        W15056   8.650   3.932  15.204  0.2487 -0.3674  0.1263
 1643W        W15057  14.954   5.132  11.370 -0.0341  0.1665  0.0572
 1644W        W15058   7.928  15.249   1.070  0.1022  0.0893  0.1240
 1645W        W15059   2.439  11.826  10.333  0.0040  0.0972  0.0157
 1646W        W15060   5.237  13.539   4.753  0.1479  0.2542  0.0569
 1647W        W15061   0.133   0.073   2.594  0.3469 -0.0778 -0.0047
 1648W        W15062   5.782   0.792   1.572  0.2783 -0.0383 -0.2163
 1649W        W15063   3.972   1.464   2.741  0.4875  0.0197  0.0035
 1650W        W15064   2.846  14.208   0.446  0.0441  0.1131 -0.1372
 1651W        W15065  11.106   8.884  13.476  0.1186  0.0474 -0.3567
 1652W        W15066   6.602  16.126  13.923 -0.0509  0.0373 -0.2249
 1653W        W15067  17.407  15.758   5.508  0.3653  0.0166 -0.0457
 1654W        W15068  12.543  14.365   2.270  0.0436 -0.0015 -0.0217
 1655W        W15069  17.712   5.269   0.388 -0.1986  0.0504 -0.0149
 1656W        W15070   8.902   3.688  14.765 -0.1130 -0.1044 -0.0906
 1657W        W15071   4.267   9.762  11.516 -0.5719  0.1050 -0.0332
 1658W        W15072  10.407   5.331  10.799  0.0027 -0.0491  0.1114
 1659W        W15073  10.744  14.124   3.261  0.1423 -0.1218 -0.3130
 1660W        W15074  11.853  11.795  13.326  0.1998  0.2907 -0.2923
 1661W        W15075  15.312   2.102   4.795  0.2038  0.2570  0.0436
 1662W        W15076   3.056  12.788   2.345  0.0551 -0.1383  0.2988
 1663W        W15077   5.793  15.831  11.938  0.1408 -0.2823 -0.0074
 1664W        W15078   7.240   3.188  10.354  0.1374 -0.0189  0.0123
 1665W        W15079   4.908   6.771   4.268 -0.0530 -0.0806  0.1420
 1666W        W15080   8.688   9.376   2.554  0.3263 -0.0136  0.2806
 1667W        W15081   7.497  10.782   5.759 -0.2113  0.1712  0.0692
 1668W        W15082   2.934  16.072   0.519  0.3103  0.1455 -0.0936
 1669W        W15083  15.781   6.515  11.990  0.0758 -0.4389  0.2803
 1670W        W15084   9.557  15.498  16.288 -0.0856  0.0480 -0.0159
 1671W        W15085  12.391  17.546   6.055 -0.0158  0.3146 -0.3424
 1672W        W15086   5.028  14.675  14.781 -0.2576  0.1596  0.1276
 1673W        W15087   0.202  16.671  10.915 -0.0343  0.4874  0.0038
 1674W        W15088   3.545   7.093  14.822 -0.2264 -0.1000 -0.1747
 1675W        W15089   4.927   8.066   5.124 -0.1139 -0.0180 -0.1751
 1676W        W15090   9.413   3.958   2.142 -0.1537 -0.2311  0.1311
 1677W        W15091   8.448   3.964  10.472  0.1093  0.1276 -0.2434
 1678W        W15092   3.737   6.309   3.940  0.1213 -0.0432 -0.0982
 1679W        W15093  17.009   7.065   2.056 -0.2021 -0.0591  0.3064
 1680W        W15094   7.490  17.656  16.528 -0.1897 -0.2283  0.0359
 1681W        W15095   4.423   6.678  16.756  0.4615 -0.4581  0.0111
 1682W        W15096   0.806   1.353   3.319 -0.1750 -0.0815 -0.0782
 1683W        W15097   9.150   4.895  16.554 -0.1786  0.0597  0.0286
 1684W        W15098   2.645   9.558   5.551 -0.1625 -0.0888  0.0264
 1685W        W15099  14.383   6.678  13.997 -0.0135 -0.1983 -0.0575
 1686W        W15100   5.757  16.685  14.838  0.2797 -0.3747 -0.0698
 1687W        W15101  11.584  11.226  15.400  0.0541 -0.1735  0.0073
 1688W        W15102   5.645   5.118  14.815 -0.2205  0.0579 -0.1035
 1689W        W15103   8.202   6.982  14.798 -0.1375  0.2546  0.0461
 1690W        W15104  15.093  16.720  15.405 -0.1765 -0.0089  0.2417
 1691W        W15105  15.009   8.787   6.078  0.0237 -0.0096  0.1291
 1692W        W15106   4.274  15.986   3.887  0.0330  0.0834 -0.2080
 1693W        W15107  11.601  13.655   2.820 -0.2329  0.0172  0.1966
 1694W        W15108   5.396  15.935  15.894  0.0402 -0.3051 -0.4113
 1695W        W15109   9.823   2.797   2.398  0.1779 -0.1167  0.1797
 1696W        W15110  12.185   8.379  14.097 -0.1047 -0.0287  0.0811
 1697W        W15111  15.293  12.881   2.520  0.2602  0.3815  0.3130
 1698W        W15112   5.724  14.792   0.115  0.0158 -0.2313 -0.1695
 1699W        W15113   8.486   2.834   1.042  0.3585 -0.1103 -0.0309
 1700W        W15114  10.789   2.223   0.017 -0.0781  0.2147 -0.2182
 1701W        W15115  15.950  10.070  15.031  0.0274  0.0539 -0.1616
 1702W        W15116  12.413  10.935   5.313  0.0716  0.0873  0.0109
 1703W        W15117  14.653   7.470   3.482 -0.0785  0.0737 -0.0853
 1704W        W15118   0.528  15.789  16.528 -0.0268  0.2097 -0.1776
 1705W        W15119   4.875   5.304  13.380  0.1581 -0.2754  0.1986
 1706W        W15120   6.641   0.800  10.214  0.3786  0.0120 -0.2868
 1707W        W15121  11.826  14.990  11.650  0.1046 -0.2629  0.0602
 1708W        W15122  16.026  13.345  15.986 -0.2188 -0.2649 -0.0867
 1709W        W15123  16.370  11.010   6.491 -0.1955 -0.2777  0.1688
 1710W        W15124   7.601   1.003  14.060  0.1015  0.3619  0.0536
 1711W        W15125  16.025  15.429   5.720 -0.1510 -0.0012 -0.0512
 1712W        W15126  14.610   7.086   2.580 -0.1946 -0.0936  0.1749
 1713W        W15127  12.544   4.591   2.931 -0.1302 -0.1390  0.2914
 1714W        W15128   8.267  15.630   5.348  0.2932  0.1612 -0.0990
 1715W        W15129   2.753  17.200  11.796 -0.0020  0.0950 -0.0988
 1716W        W15130   4.418   3.824   0.296 -0.1173 -0.1840 -0.1938
 1717W        W15131  17.771  16.731  11.109  0.1960 -0.0936  0.1419
 1718W        W15132  10.744   1.649  11.661  0.0736 -0.2118  0.0120
 1719W        W15133   5.030   4.143  10.851  0.2730 -0.0376 -0.0337
 1720W        W15134   9.758  14.721   0.927 -0.2967  0.1126 -0.3660
 1721W        W15135   7.337  16.778  15.772 -0.1539  0.1769 -0.2278
 1722W        W15136   9.493  16.524  13.507  0.1045  0.0410 -0.0631
 1723W        W15137  16.298  14.541   5.476  0.1258 -0.2300  0.0435
 1724W        W15138  17.365  10.954  13.125  0.1414 -0.3731 -0.0007
 1725W        W15139   3.129  15.599   0.643  0.0788 -0.0407 -0.2612
 1726W        W15140   0.708   8.760  15.309  0.2101  0.0301 -0.2095
 1727W        W15141  13.225   7.103   3.745 -0.2146 -0.0277 -0.1899
 1728W        W15142   9.422  17.072  16.083  0.2074  0.1463  0.0785
 1729W        W15143  14.886  12.650  12.644  0.0011  0.0831 -0.0655
 1730W        W15144  11.096   3.300  10.821 -0.0846  0.0557 -0.1593
 1731W        W15145  10.487   8.156  15.696 -0.1817  0.1987  0.2262
 1732W        W15146   0.425  15.264  10.964  0.0228  0.0666  0.0798
 1733W        W15147   8.344   5.333  12.981 -0.1554  0.2787  0.2083
 1734W        W15148  16.038   5.911   1.933  0.2033  0.0711 -0.0799
 1735W        W15149   2.224   8.349   0.772 -0.1454 -0.1096  0.0603
 1736W        W15150  11.891   5.038  14.692  0.1254  0.2716 -0.3059
 1737W        W15151  17.108   6.482   3.004  0.0316 -0.0650 -0.0362
 1738W        W15152  15.397  13.306   5.990  0.1797 -0.0345  0.0004
 1739W        W15153  10.039   0.717  14.509  0.0216  0.3233 -0.1973
 1740W        W15154   7.506   6.080  13.903  0.2142 -0.1933  0.0636
 1741W        W15155   9.827  11.859   0.613  0.2755  0.0568  0.0374
 1742W        W15156   5.338  14.522   0.992  0.0136 -0.0935 -0.0204
 1743W        W15157  10.643  11.679   3.681 -0.1145 -0.1119 -0.1847
 1744W        W15158  11.705  16.693   2.690  0.1619  0.2573  0.0131
 1745W        W15159   0.550  12.070  13.802 -0.0809  0.1553  0.0081
 1746W        W15160   9.854  10.364   2.840  0.0685  0.2721  0.0426
 1747W        W15161  12.083   0.710   3.234 -0.1002 -0.1730 -0.1635
 1748W        W15162   5.834   3.404   1.396 -0.1780 -0.1433  0.0637
 1749W        W15163  12.916  16.427  12.343 -0.0494  0.0490 -0.0511
 1750W        W15164  17.326  11.061   4.414 -0.3093 -0.0034 -0.0866
 1751W        W15165   1.016  17.325   3.094  0.0324 -0.1322 -0.3659
 1752W        W15166  10.098   3.180  16.468 -0.2921 -0.0134 -0.0042
 1753W        W15167  15.337  16.184  13.176  0.0587  0.1610  0.0454
 1754W        W15168   5.186  14.223  13.886 -0.0631  0.5328 -0.1472
 1755W        W15169  10.171  12.755  15.408  0.2183  0.2404  0.0376
 1756W        W15170   5.571  13.159   5.532  0.0954 -0.2742 -0.0408
 1757W        W15171   0.959  14.503  14.138 -0.0659  0.1384 -0.0565
 1758W        W15172   7.166  11.484   3.186 -0.1325 -0.0162  0.1001
 1759W        W15173  15.032  15.109  13.764 -0.2686 -0.1816 -0.1122
 1760W        W15174  11.291  13.709  15.696  0.1736  0.0438 -0.2142
 1761W        W15175   8.212  12.671   6.363  0.0525 -0.0853  0.3354
 1762W        W15176   3.400   4.102  15.239 -0.0310  0.2397  0.0687
 1763W        W15177   0.917   6.878   5.144 -0.1890  0.0914  0.1759
 1764W        W15178  10.178  14.149   4.540  0.0030 -0.1823 -0.1380
 1765W        W15179   3.803   3.941   3.619 -0.1682 -0.0284 -0.3619
 1766W        W15180  14.641  10.558  14.100 -0.1063 -0.0892 -0.2449
 1767W        W15181  15.165   8.512   2.743 -0.0492  0.0683  0.3630
 1768W        W15182  12.979   1.258  16.336 -0.3800 -0.3608 -0.0303
 1769W        W15183  15.480  13.156  13.907  0.0085  0.2540  0.2275
 1770W        W15184   2.503  14.959  14.593  0.2778 -0.1591  0.1109
 1771W        W15185   4.348   7.241  15.288  0.2749  0.0881  0.3499
 1772W        W15186  12.320  11.649  13.367 -0.1364  0.0134 -0.0282
 1773W        W15187   9.827   8.960   2.838 -0.1099  0.4361  0.0153
 1774W        W15188  17.521  11.531  15.536 -0.2168  0.1049 -0.2875
 1775W        W15189   1.549  17.786  11.579 -0.0067  0.0695  0.2808
 1776W        W15190   0.117  10.727  15.644  0.0134  0.0777 -0.0988
 1777W        W15191   7.302  15.145   3.146  0.2086  0.2217 -0.1192
 1778W        W15192  10.793   5.525  12.841 -0.1364 -0.1911  0.1847
 1779W        W15193  14.362   3.719   1.284  0.4007 -0.1063  0.2052
 1780W        W15194   1.519   5.941   2.897 -0.0548  0.0772 -0.0934
 1781W        W15195  10.688  14.220  16.331 -0.1340  0.1939 -0.1114
 1782W        W15196   6.005   9.576  14.479 -0.2153  0.0730 -0.2205
 1783W        W15197   4.706  16.493  11.410  0.2108 -0.0539  0.2062
 1784W        W15198  16.498   4.485  10.771 -0.3281  0.2878  0.1109
 1785W        W15199   6.178  15.443   2.453  0.1569 -0.0817  0.1520
 1786W        W15200   7.071  15.816  16.065 -0.2138 -0.2748  0.1724
 1787W        W15201  16.008  13.538  15.301  0.2626  0.0462  0.1656
 1788W        W15202   6.782  10.976  14.580  0.0638 -0.2544 -0.0363
 1789W        W15203   0.106  10.258  14.134  0.0549 -0.1356  0.0995
 1790W        W15204  16.248   6.312  14.593  0.0066  0.0724 -0.1636
 1791W        W15205  16.955   2.896   0.738  0.0816 -0.0376  0.0686
 1792W        W15206   0.444   3.895  11.122 -0.1067  0.0293 -0.0370
 1793W        W15207   2.186   2.215  14.095  0.1958 -0.0736  0.2567
 1794W        W15208   6.806   2.964   3.438  0.4597  0.1534  0.1891
 1795W        W15209  12.141   7.852   3.259 -0.0470  0.2848  0.1040
 1796W        W15210   2.475  13.461  12.865  0.0617 -0.1921  0.1341
 1797W        W15211   4.675  11.693  11.589 -0.2619  0.1356  0.0372
 1798W        W15212   4.446  11.231  12.413 -0.0685  0.0440 -0.2835
 1799W        W15213  17.811  14.419  16.188  0.2322  0.0315 -0.0434
 1800W        W15214   4.369  15.861  11.961  0.4657  0.4901 -0.1873
 1801W        W15215  13.091  11.678   3.686 -0.1697  0.1270  0.2287
 1802W        W15216   6.245   0.960  16.349 -0.0196 -0.1421 -0.0264
 1803W        W15217   4.353   6.885  14.158  0.1913 -0.1383  0.0987
 1804W        W15218  10.425  15.199  14.436  0.0329 -0.0604 -0.0865
 1805W        W15219   3.879   2.724   1.070 -0.1315 -0.2524  0.1903
 1806W        W15220  16.025  13.519   1.056  0.3114  0.0912 -0.0183
 1807W        W15221   7.715  10.923  11.692 -0.2747  0.0780 -0.0756
 1808W        W15222   1.043  11.713   1.841  0.2213 -0.0217  0.0095
 1809W        W15223   4.627   1.387  15.071 -0.1948  0.0080 -0.0107
 1810W        W15224  17.245   3.692  12.309  0.1843 -0.1895 -0.0198
 1811W        W15225   1.583  16.953   2.526 -0.0605 -0.1858  0.0839
 1812W        W15226  15.278   4.265  13.827 -0.0537  0.0327  0.0279
 1813W        W15227  10.442   4.039   4.319 -0.0730  0.0304 -0.0223
 1814W        W15228  12.063   3.755  10.795 -0.1325  0.1654 -0.0679
 1815W        W15229   0.659   4.354  12.912  0.1287 -0.0494 -0.0247
 1816W        W15230  15.203  16.434  14.860  0.1066 -0.3333  0.0109
 1817W        W15231  16.316   8.606  15.664 -0.2840  0.2448  0.0428
 1818W        W15232   2.620   4.093   5.306  0.2373 -0.4002 -0.1721
 1819W        W15233   5.547   2.112   1.349 -0.0735 -0.2537  0.1194
 1820W        W15234   4.365   6.688   2.839  0.1293 -0.1199 -0.1343
 1821W        W15235  10.429  17.839  11.667 -0.0205 -0.2749  0.0885
 1822W        W15236  16.040   6.682   0.695 -0.2213  0.3098 -0.1358
 1823W        W15237  10.682  10.690   3.791 -0.1179  0.0570 -0.1350
 1824W        W15238  17.637   4.289   3.288 -0.2087 -0.0401  0.1228
 1825W        W15239  16.997   5.209  12.263  0.2345  0.0636 -0.0628
 1826W        W15240  15.069  13.088  14.272 -0.1185 -0.0870 -0.0151
 1827W        W15241   1.189   3.865   5.179 -0.1237 -0.2379 -0.0725
 1828W        W15242  11.049  11.157   1.362  0.1923 -0.1928 -0.0443
 1829W        W15243   9.449   4.198   3.142 -0.1959 -0.1791 -0.1460
 1830W        W15244  15.873   1.485   0.451  0.1739  0.2392  0.2556
 1831W        W15245  11.915   1.105   5.177 -0.0563 -0.3670  0.1002
 1832W        W15246   3.211   0.274   4.214 -0.1194  0.0643 -0.2136
 1833W        W15247   1.746  16.161  15.003 -0.0965  0.0232 -0.1655
 1834W        W15248   1.858   8.304   5.292  0.1649 -0.0045 -0.0331
 1835W        W15249   9.038  12.753   0.574  0.1612  0.1501  0.1195
 1836W        W15250  12.089  15.602  13.964  0.1950  0.1033  0.0901
 1837W        W15251   7.266   8.594  10.426 -0.2100  0.0591  0.0317
 1838W        W15252  11.339   6.102  10.782 -0.1834  0.1886  0.0228
 1839W        W15253  15.299  12.397  11.647 -0.2033 -0.0221 -0.0669
 1840W        W15254   8.971  12.903   4.287  0.1605 -0.0395  0.2118
 1841W        W15255   8.354   7.689  13.505  0.0717  0.1263 -0.3782
 1842W        W15256  12.004  15.866  14.627 -0.0128  0.1699 -0.3381
 1843W        W15257   1.117   5.845   0.080  0.1430  0.1292  0.1277
 1844W        W15258  17.450   1.950  12.363 -0.2779 -0.1250  0.1336
 1845W        W15259  14.655  16.462   4.503 -0.0383 -0.0060  0.4488
 1846W        W15260   2.007  14.570  11.087 -0.1529 -0.0449 -0.1679
 1847W        W15261  16.376   3.944  10.662 -0.1428  0.2358  0.1086
 1848W        W15262  17.597   4.273  11.726  0.1472 -0.1011 -0.0165
 1849W        W15263   9.351  17.646   2.520 -0.2562 -0.1442  0.1613
 1850W        W15264   1.036   6.096  15.907 -0.2419 -0.1940 -0.0105
 1851W        W15265  15.628  13.141   2.276 -0.0640  0.0099  0.2988
 1852W        W15266   7.165   1.271   1.491  0.1150  0.1415  0.2068
 1853W        W15267  12.953   5.637  13.876 -0.1447 -0.3158 -0.1405
 1854W        W15268   2.532   4.913   1.182 -0.0338  0.0359  0.0049
 1855W        W15269  16.459  12.244  12.295  0.0824  0.0159  0.1587
 1856W        W15270  16.711   5.872  15.716 -0.0740 -0.0645 -0.0191
 1857W        W15271   3.899   6.702  14.787 -0.0395  0.3933 -0.1407
 1858W        W15272   3.225   0.376  16.452  0.1029 -0.2325 -0.1277
 1859W        W15273   2.205   4.637  15.439 -0.1409 -0.0607  0.1600
 1860W        W15274  14.636   1.612  16.177  0.0137 -0.1610  0.0125
 1861W        W15275   2.356   9.862  15.625  0.1832 -0.0836 -0.1202
 1862W        W15276   1.237   4.587   4.056 -0.0022  0.0478 -0.0619
 1863W        W15277   8.836   5.656   5.088 -0.0235  0.3528 -0.1312
 1864W        W15278  16.436  12.638  13.556 -0.2272  0.2704  0.0793
 1865W        W15279   5.529  13.475   3.354  0.0068  0.1661  0.0733
 1866W        W15280   8.746   7.969  12.761 -0.1034  0.4800 -0.0315
 1867W        W15281  10.371   3.479  15.191 -0.2258 -0.2564  0.0413
 1868W        W15282  12.820  12.503  16.745 -0.2048  0.1931  0.1933
 1869W        W15283  14.895   9.096   5.160 -0.0858 -0.3206  0.1460
 1870W        W15284   7.436   2.851  15.192  0.3833  0.3471 -0.1858
 1871W        W15285  15.156  13.444  12.170  0.0357  0.2822  0.0435
 1872W        W15286  10.965   4.802  11.466  0.1501  0.1263 -0.3040
 1873W        W15287   9.708  10.762   1.963  0.2352 -0.0983 -0.1796
 1874W        W15288  16.269  11.274  11.113 -0.0147 -0.0236 -0.0848
 1875W        W15289   2.278   8.070   5.286 -0.1475 -0.2646  0.0328
 1876W        W15290   4.446   9.380  15.209  0.0968  0.0989  0.3178
 1877W        W15291  16.768  12.539   1.477  0.1950  0.0806  0.1194
 1878W        W15292  12.369   4.702  11.592 -0.0781  0.2970  0.0805
 1879W        W15293   9.343   4.899  15.313  0.2110 -0.1140 -0.1177
 1880W        W15294  12.102   6.251  13.760 -0.2258  0.0746 -0.0492
 1881W        W15295  10.535  13.472  11.804 -0.2785 -0.1050  0.1764
 1882W        W15296   3.839  17.967  16.608 -0.1436  0.1507 -0.1572
 1883W        W15297   6.171   4.095   0.281 -0.1709 -0.2217  0.2739
 1884W        W15298   7.616  10.407  13.127 -0.1368  0.0667  0.0902
 1885W        W15299  17.271   9.953   0.128  0.4098  0.0758  0.0018
 1886W        W15300   3.819  14.875   2.246 -0.4391  0.2090  0.4052
 1887W        W15301   3.084  14.922   3.379 -0.2479  0.0458 -0.1705
 1888W        W15302   6.910  11.491  13.907  0.5114 -0.0863  0.1552
 1889W        W15303   5.661   8.118  13.081 -0.0458 -0.1647  0.0980
 1890W        W15304   7.189  14.983  13.066 -0.1841  0.0062  0.1601
 1891W        W15305   8.437  14.949  16.522  0.0329 -0.0361  0.1102
 1892W        W15306   3.368  16.486  13.088  0.4661 -0.0482 -0.3793
 1893W        W15307   4.732   4.731  13.780  0.0039  0.0251  0.0436
 1894W        W15308  14.004   9.856  15.205  0.2449 -0.0581 -0.0127
 1895W        W15309   0.469   4.014  11.628  0.0249  0.0498 -0.3198
 1896W        W15310   3.214   4.571  11.055  0.3333 -0.0517 -0.3155
 1897W        W15311   8.284   9.249   0.100 -0.0393  0.1013 -0.0370
 1898W        W15312   6.636  17.226   3.344 -0.1556  0.0993 -0.0755
 1899W        W15313   4.430   8.770  12.399 -0.1294 -0.4603 -0.0154
 1900W        W15314  15.908  17.505   0.735  0.1243  0.0835  0.3960
 1901W        W15315   2.340  13.812   4.497 -0.0966  0.0968  0.1628
 1902W        W15316   0.711  13.278   0.758 -0.0666  0.0942  0.2370
 1903W        W15317  14.692  11.730  13.516 -0.1193 -0.2615 -0.1135
 1904W        W15318  12.063  14.732  16.548  0.1347  0.0311  0.4456
 1905W        W15319   7.268   0.072  11.458  0.0682  0.0386  0.0112
 1906W        W15320   4.477   7.781  16.773 -0.4109 -0.0734 -0.1169
 1907W        W15321   1.600   6.548  15.051 -0.1073 -0.2738  0.2161
 1908W        W15322   6.551   1.761  16.032 -0.1380 -0.0491 -0.0563
 1909W        W15323  15.684  11.461   1.945 -0.1384  0.1335  0.1871
 1910W        W15324   5.298  11.625  10.832 -0.0532 -0.1701  0.0889
 1911W        W15325   1.273  10.946   3.480 -0.1731  0.2431 -0.1487
 1912W        W15326  16.216  16.657  14.760  0.2229  0.0643 -0.3849
 1913W        W15327  16.983   9.341  13.517 -0.2973  0.1503 -0.1176
 1914W        W15328  13.766  12.107   0.250  0.3289 -0.1664 -0.0823
 1915W        W15329  13.589   9.569   2.096 -0.1424 -0.0896 -0.1686
 1916W        W15330   1.867   0.490   4.254 -0.0076  0.0092 -0.2043
 1917W        W15331   5.154   8.773  11.134  0.2593  0.3185 -0.1826
 1918W        W15332   9.277  16.232  12.832  0.0087  0.0880 -0.0501
 1919W        W15333  14.704   0.654  15.904 -0.0682  0.0819 -0.0756
 1920W        W15334  13.626  11.916  16.170 -0.3146 -0.0956 -0.1055
 1921W        W15335  10.476  14.208   1.023 -0.0935  0.0491  0.1301
 1922W        W15336  14.562   8.951  11.045 -0.0443  0.4041  0.0076
 1923W        W15337   8.494   6.598  15.808  0.0001 -0.2468  0.1344
 1924W        W15338  12.464   1.436  14.682  0.0897  0.0492  0.1397
 1925W        W15339   4.036  16.017  14.771 -0.1565 -0.0566 -0.0064
 1926W        W15340  15.675  13.964  11.902  0.0095 -0.0150 -0.2143
 1927W        W15341  16.195  16.769   2.392  0.0575  0.0523  0.1270
 1928W        W15342   5.235   5.637   0.323 -0.4026  0.0639 -0.0446
 1929W        W15343   0.237  17.100  11.144 -0.1022 -0.1494  0.1147
 1930W        W15344   0.375   3.408  11.376 -0.0935 -0.0568 -0.0387
 1931W        W15345  17.378  15.636   4.961 -0.2664 -0.1698 -0.0285
 1932W        W15346  11.823   1.697   1.186  0.2977  0.1529 -0.3049
 1933W        W15347  16.158   6.184  13.032  0.0593 -0.1115 -0.0914
 1934W        W15348  15.930   6.576  15.459 -0.2454  0.0551  0.0666
 1935W        W15349   6.645  17.692   4.767 -0.5116  0.0297  0.0592
 1936W        W15350   7.792   1.365  16.126 -0.1020 -0.1463 -0.1673
 1937W        W15351  16.173   5.391   4.092 -0.0170  0.1936  0.0182
 1938W        W15352  16.688   9.374  16.672  0.0206 -0.0800 -0.0479
 1939W        W15353   5.415  16.745  13.549 -0.1088 -0.3720  0.1664
 1940W        W15354   4.850  16.199  15.150  0.1102 -0.2651 -0.0240
 1941W        W15355   3.490  14.958  15.307  0.0049 -0.0247  0.1503
 1942W        W15356   9.220   1.761   4.868  0.0978 -0.2571 -0.0566
 1943W        W15357  16.989   1.033   5.109  0.1343  0.1969 -0.0054
 1944W        W15358  10.903   7.886   4.483  0.3239  0.1121 -0.1938
 1945W        W15359  11.642   9.935   4.138  0.0804 -0.1650  0.2615
 1946W        W15360   5.573   6.057  10.676 -0.2915 -0.0870  0.0512
 1947W        W15361  10.487   2.070  11.787 -0.0620 -0.2048 -0.0069
 1948W        W15362   9.915   4.342  13.498  0.2575  0.0826 -0.2423
 1949W        W15363   5.918   3.470  13.487  0.0849  0.3233 -0.1276
 1950W        W15364   6.359   1.389  11.745 -0.1568 -0.2854  0.3224
 1951W        W15365  11.382  12.701  13.201 -0.0261 -0.2062  0.1197
 1952W        W15366  15.385   0.322  13.118  0.0549 -0.1332  0.2444
 1953W        W15367   9.120   0.909   5.277  0.4440  0.0439 -0.1100
 1954W        W15368  13.958   6.490   0.472 -0.0664 -0.1251  0.1237
 1955W        W15369   7.954   7.560   4.315 -0.1024 -0.0492  0.1612
 1956W        W15370   3.129   4.242   2.394 -0.0761 -0.0438  0.2615
 1957W        W15371  16.641  14.256   6.154  0.1110  0.4045 -0.3399
 1958W        W15372  10.201   7.270   1.325 -0.1657  0.0321  0.1371
 1959W        W15373  12.278  15.588   4.019  0.3523 -0.1332 -0.0621
 1960W        W15374   9.222  10.893   1.472 -0.2526 -0.1201  0.1549
 1961W        W15375   1.356  16.265   0.935  0.1626 -0.3492 -0.0568
 1962W        W15376  14.763   0.137   3.831  0.0041 -0.1893  0.2261
 1963W        W15377   9.940  13.645   0.862  0.2000 -0.1044 -0.2159
 1964W        W15378  13.676   7.381  16.041 -0.2644  0.1068 -0.0534
 1965W        W15379  11.660   0.438  15.221  0.0675 -0.0952  0.2820
 1966W        W15380   7.885  14.281  15.073  0.3198  0.1359  0.2675
 1967W        W15381   7.407  16.027   5.144  0.1400 -0.0357 -0.2600
 1968W        W15382  14.980   3.064  12.089  0.2554 -0.1485  0.2289
 1969W        W15383   2.514   9.298   2.700  0.2612  0.0769  0.0564
 1970W        W15384  15.833   7.838   5.825 -0.0891  0.0046 -0.0380
 1971W        W15385   4.328   9.202  16.580  0.1570  0.3231 -0.2390
 1972W        W15386   2.311   7.067   1.855  0.1401  0.1450  0.1174
 1973W        W15387   9.290   7.346   4.956 -0.3238  0.1142 -0.0403
 1974W        W15388   0.415   5.902  14.139  0.1209 -0.3246  0.1360
 1975W        W15389  16.364  17.571   0.247 -0.0085  0.0555  0.0530
 1976W        W15390   9.948  13.287  14.539  0.0589 -0.2818  0.0329
 1977W        W15391   4.296   5.961  11.125  0.2479 -0.0885  0.1550
 1978W        W15392   2.088   1.217   3.161  0.4250  0.0253  0.1396
 1979W        W15393   8.074  12.578  11.466 -0.1229  0.0345  0.0124
 1980W        W15394   9.889  17.869   5.427 -0.1789 -0.0014  0.1323
 1981W        W15395   1.110   6.774   0.886  0.0056  0.3056  0.0545
 1982W        W15396   0.566  13.898  16.472  0.2065 -0.2698 -0.1297
 1983W        W15397  12.186   9.186  12.657  0.0547 -0.2759  0.0141
 1984W        W15398   4.786   6.013  14.327 -0.3062  0.1464 -0.0332
 1985W        W15399   0.055  12.127   2.202 -0.3668 -0.2210  0.1054
 1986W        W15400  13.261   3.410  13.090 -0.2061  0.1482  0.2752
 1987W        W15401  11.510  16.434   1.496 -0.0113  0.1115  0.0891
 1988W        W15402   3.758   2.300  13.012  0.3688  0.1533  0.1255
 1989W        W15403   8.461   8.047   1.627  0.1810 -0.1386 -0.2244
 1990W        W15404   0.219   7.213  12.391 -0.0386  0.1044  0.1743
 1991W        W15405   3.934  15.941  13.034 -0.0198 -0.1031  0.1629
 1992W        W15406   6.055   7.147   3.651 -0.1427 -0.1734 -0.0634
 1993W        W15407   9.109  11.622  13.880  0.0497  0.1962 -0.0497
 1994W        W15408   5.209   2.115  11.903  0.1032 -0.0562  0.1089
 1995W        W15409   5.873   8.141   3.554 -0.1074 -0.0454 -0.1173
 1996W        W15410   9.798  17.135  13.074  0.0626  0.0474 -0.1559
 1997W        W15411   4.981  11.400  11.173  0.0146  0.1947 -0.2566
 1998W        W15412   2.328  13.875   0.372  0.2242  0.0316 -0.0448
 1999W        W15413  11.784   7.160   0.265 -0.1513 -0.3065 -0.0749
 2000W        W15414   7.684   2.298  15.991  0.1526 -0.1725  0.0761
 2001W        W15415   3.526   0.761  15.664  0.1448  0.2368  0.0677
 2002W        W15416  10.868  13.298  12.689  0.0051  0.1058 -0.1442
 2003W        W15417  16.592   2.741  14.601 -0.2404 -0.1991  0.1997
 2004W        W15418  15.706   0.743   4.274  0.1845  0.1788 -0.0616
 2005W        W15419   4.096  17.874  15.861 -0.0460  0.3115  0.1611
 2006W        W15420   7.635   6.906   2.236  0.0344  0.0884 -0.0162
 2007W        W15421   1.982   0.854   0.712  0.0315 -0.0329 -0.2548
 2008W        W15422  16.709   3.035  16.047  0.3846 -0.4412 -0.7222
 2009W        W15423   2.496  13.478  14.436  0.2122 -0.2009 -0.0432
 2010W        W15424  12.340  16.123   1.521  0.0818 -0.0023  0.0397
 2011W        W15425  15.841   4.702  14.402 -0.0931  0.0123 -0.0636
 2012W        W15426  16.168   2.873  13.882  0.2437 -0.0037 -0.0033
 2013W        W15427  14.107  11.070  14.724 -0.0445  0.0442  0.0152
 2014W        W15428  17.807  10.729   5.682 -0.0003  0.0328 -0.1484
 2015W        W15429   1.377  12.236   0.403  0.0297  0.1541  0.0523
 2016W        W15430  17.184   1.148  14.465 -0.2621  0.2876 -0.0646
 2017W        W15431   8.409  17.177  12.601 -0.0362 -0.0871  0.2391
 2018W        W15432  10.637  11.442  12.751  0.1224  0.0513  0.1670
 2019W        W15433  17.372   9.718   0.613 -0.0130  0.1009  0.1152
 2020W        W15434   2.570   6.156   3.868 -0.0252  0.0137  0.2635
 2021W        W15435  17.690   9.725   1.045 -0.2189  0.0264  0.3343
 2022W        W15436   3.086   4.695  11.971 -0.2576 -0.2355 -0.0179
 2023W        W15437   6.878   5.309   1.683 -0.3891 -0.3866 -0.0444
 2024W        W15438   8.055  17.921  15.780 -0.0118 -0.1998 -0.0039
 2025W        W15439   0.960   5.212  13.829  0.2026 -0.1706  0.0000
 2026W        W15440  15.190  15.149   1.469  0.1410 -0.2786  0.1269
 2027W        W15441   8.481   3.034   1.989 -0.1329  0.0674 -0.0554
 2028W        W15442  15.186  12.196  15.142  0.1175 -0.1632  0.2873
 2029W        W15443  17.112   0.564  16.117 -0.0328 -0.6120  0.1353
 2030W        W15444   3.634  15.400  15.748  0.4373 -0.2657  0.1186
 2031W        W15445   1.596   9.534   3.608 -0.3238  0.1295  0.2394
 2032W        W15446   9.860  12.026   4.790 -0.0822  0.1159 -0.0118
 2033W        W15447  13.586  16.936   1.952 -0.1281 -0.1171  0.0563
 2034W        W15448  14.017  11.923   4.671  0.0062 -0.0417 -0.0393
 2035W        W15449   1.095   0.235   1.258  0.0230 -0.1196 -0.1531
 2036W        W15450   2.531  10.679   5.516 -0.1548  0.1770  0.1450
 2037W        W15451   8.861   9.164  15.654 -0.0926 -0.4085 -0.3361
 2038W        W15452   2.812   5.343   3.565  0.1100 -0.1404 -0.1084
 2039W        W15453  16.255  13.907  12.158 -0.0436  0.0547  0.1513
 2040W        W15454   3.149   5.857  14.908 -0.1300 -0.1134  0.2164
 2041W        W15455   9.104   1.673  11.243  0.1668 -0.0223  0.3146
 2042W        W15456   8.919   8.996   5.381  0.0419 -0.0856 -0.6078
 2043W        W15457  17.913   3.667  16.498  0.1771  0.1397  0.1401
 2044W        W15458  13.297   3.398  15.359 -0.1138 -0.1929  0.0870
 2045W        W15459   9.788  16.129   2.677  0.2123  0.2493  0.1683
 2046W        W15460   7.084  11.965   5.476 -0.1037 -0.1000  0.0818
 2047W        W15461  13.007   2.880  16.113 -0.3047  0.2010  0.0892
 2048W        W15462   3.663   1.580  15.222  0.2538 -0.3185  0.0694
 2049W        W15463  11.281  15.041  16.366 -0.2134  0.0286  0.3863
 2050W        W15464  11.834   2.198   3.593 -0.1686 -0.0114 -0.0382
 2051W        W15465  10.516  12.631   1.293  0.0574  0.3404 -0.2455
 2052W        W15466   6.730   9.741   5.776  0.0810 -0.0677  0.0989
 2053W        W15467   2.007   4.764  11.968 -0.0834  0.1396 -0.3341
 2054W        W15468   6.752   2.084  15.146  0.2470  0.0575 -0.0222
 2055W        W15469  15.879   7.428  11.026  0.0263  0.0722  0.0839
 2056W        W15470   7.559  13.215   2.208  0.0480  0.2220 -0.2406
 2057W        W15471  14.810   9.751  12.294  0.1617 -0.0708  0.0091
 2058W        W15472  10.816  13.774  12.621  0.0685 -0.1370 -0.0418
 2059W        W15473   0.757   6.987  11.139 -0.1684 -0.0707  0.1065
 2060W        W15474   8.117  15.845  14.122 -0.0553 -0.1330 -0.2420
 2061W        W15475   2.961   2.326  10.981 -0.2437 -0.0817 -0.1742
 2062W        W15476   7.493   6.716  11.148 -0.1276 -0.1110 -0.1078
 2063W        W15477   1.775   6.066   2.362 -0.0501  0.0627  0.0884
 2064W        W15478   3.007  14.732  14.693 -0.1551 -0.1630  0.0832
 2065W        W15479   1.177   0.481  14.345 -0.0384 -0.0760  0.1213
 2066W        W15480   4.956   6.213   5.035  0.3272  0.0136  0.0953
 2067W        W15481   6.478   2.305   2.836  0.1629  0.4457  0.3671
 2068W        W15482   1.291  16.785  14.027 -0.1900  0.0112  0.1488
 2069W        W15483   8.453  16.540   4.485  0.0433  0.0603 -0.0202
 2070W        W15484   3.034  12.047  14.669  0.0665 -0.3671  0.1137
 2071W        W15485   8.996   8.296   5.261 -0.0082 -0.3245 -0.4008
 2072W        W15486   5.299   9.487   6.677 -0.0576 -0.1842  0.0821
 2073W        W15487   2.727  15.081  11.168  0.2506  0.1215  0.0816
 2074W        W15488   8.179  12.319   4.271  0.1807 -0.3006 -0.0821
 2075W        W15489  14.334   1.458  14.852 -0.4853  0.0003  0.0233
 2076W        W15490   1.913   8.811  11.381  0.3169  0.2149 -0.0073
 2077W        W15491   5.734   3.601  10.396  0.0002  0.0530 -0.0250
 2078W        W15492  15.357  14.985  15.402  0.2640  0.0380 -0.0482
 2079W        W15493   8.361   4.695   1.773 -0.3514  0.0091 -0.2735
 2080W        W15494   2.102  12.590  15.081  0.1755 -0.1685  0.1796
 2081W        W15495   0.602   3.242   9.806 -0.1803 -0.0465 -0.2096
 2082W        W15496  10.624   5.490  13.305  0.0145 -0.0607  0.0025
 2083W        W15497   2.517   7.868   2.194 -0.1677  0.2566  0.0576
 2084W        W15498  16.980   2.703   2.949  0.0223  0.2024  0.0399
 2085W        W15499   8.540  14.364  13.181  0.1197  0.0404  0.1228
 2086W        W15500  16.299   1.503   3.467 -0.1590  0.1799 -0.1686
 2087W        W15501  11.872  15.315   4.623  0.0026 -0.1391 -0.1969
 2088W        W15502   3.604  12.648  10.966  0.1548  0.0502  0.2557
 2089W        W15503   5.960  10.754  13.164  0.0553 -0.0592 -0.5828
 2090W        W15504  13.404  14.168   5.810  0.1072 -0.1650  0.2063
 2091W        W15505   4.911   5.047  14.146 -0.1806  0.0881 -0.2329
 2092W        W15506   0.075  15.205   0.644  0.1963 -0.0504 -0.0295
 2093W        W15507  16.764   8.618   1.235  0.0845  0.2403  0.0281
 2094W        W15508   7.811   0.901  12.284 -0.2696 -0.0561 -0.1839
 2095W        W15509  15.208   1.244  10.665 -0.0469 -0.2486  0.0086
 2096W        W15510  10.563   1.689   4.775 -0.1809 -0.6665 -0.1825
 2097W        W15511   2.854   7.192   3.571  0.0896 -0.1372  0.3524
 2098W        W15512   3.468   3.098  13.831  0.0998 -0.0732  0.1206
 2099W        W15513   7.818  15.073   2.753 -0.1523  0.1995  0.1611
 2100W        W15514   0.792   0.163  12.394 -0.1492 -0.2585  0.3130
 2101W        W15515  15.831   4.293  14.724  0.1773  0.0359  0.2881
 2102W        W15516  12.788   6.937  15.321 -0.3381  0.2037 -0.0101
 2103W        W15517   7.132  10.379  14.799 -0.0605 -0.1244 -0.1289
 2104W        W15518   7.794  11.419   3.970 -0.2180 -0.2233 -0.1094
 2105W        W15519  16.107   3.946   4.502 -0.2918 -0.0091 -0.0782
 2106W        W15520   4.009   1.225  10.530 -0.0170  0.1063  0.1721
 2107W        W15521   7.490   3.341   4.671 -0.0174 -0.1816  0.0391
 2108W        W15522   1.783   0.397   3.688 -0.0199  0.0382 -0.0686
 2109W        W15523  14.767   8.809  13.417  0.0236 -0.1197  0.2742
 2110W        W15524  16.730  10.776  10.875  0.1575 -0.1357  0.2862
 2111W        W15525   8.458   3.252   2.540 -0.0412 -0.2107  0.0440
 2112W        W15526   3.886   0.473   1.961  0.2502  0.0079 -0.2029
 2113W        W15527   7.156   8.724   0.715  0.1746  0.1476  0.2840
 2114W        W15528   7.439   6.780   4.049  0.0754  0.1040 -0.0302
 2115W        W15529  10.088   0.473   2.338 -0.1399  0.2000  0.2069
 2116W        W15530  14.920   3.846  11.177  0.1988  0.3555  0.0086
 2117W        W15531   9.036  12.159  16.706  0.3163  0.0433  0.2077
 2118W        W15532   1.685   6.406  15.547 -0.0174 -0.1187  0.2690
 2119W        W15533   3.815  15.710  12.603 -0.5232 -0.1390 -0.1432
 2120W        W15534   2.792  12.583   6.276 -0.4599  0.0068 -0.0781
 2121W        W15535   5.441   4.341   3.225 -0.1487  0.1224 -0.0835
 2122W        W15536   2.678   7.695   1.535  0.0897 -0.0943 -0.1369
 2123W        W15537   5.581  13.830  12.437 -0.0171 -0.0983 -0.1800
 2124W        W15538  10.481   1.526  15.135  0.1694 -0.1335 -0.4609
 2125W        W15539  10.531   7.976  15.209 -0.0171 -0.0150 -0.0781
 2126W        W15540   2.724  16.604  10.961 -0.1258  0.3907  0.1700
 2127W        W15541  10.087   4.989   0.111  0.0766  0.0587 -0.0588
 2128W        W15542   3.146   4.866   4.711  0.1689 -0.2179  0.1182
 2129W        W15543   0.126   0.451   0.036  0.0117 -0.0806  0.0944
 2130W        W15544   9.561  17.872   0.778  0.0105 -0.1613 -0.1339
 2131W        W15545  14.051   0.686   2.112  0.1259 -0.0215  0.0976
 2132W        W15546   5.212  15.435   0.965 -0.1488 -0.1047 -0.2050
 2133W        W15547  15.701  17.762   5.019 -0.0267 -0.1008 -0.3104
 2134W        W15548   4.824   8.872  12.747 -0.1664 -0.1417  0.1742
 2135W        W15549   3.399   6.879   1.714  0.0549  0.3285  0.2356
 2136W        W15550   3.672  12.336  11.423  0.0199 -0.3687 -0.0214
 2137W        W15551  11.165   8.400  11.857 -0.0926  0.0668  0.0461
 2138W        W15552  16.885  12.812   6.067  0.0821  0.0389 -0.0270
 2139W        W15553  14.064   9.281  11.645 -0.0960  0.1965  0.5894
 2140W        W15554   9.226  16.013  10.550 -0.3597  0.1397  0.0467
 2141W        W15555   0.045   3.443  13.671  0.0816 -0.1142  0.3454
 2142W        W15556  14.778   0.898   4.892 -0.1729  0.4540 -0.0432
 2143W        W15557   4.270   0.010   2.643  0.0085 -0.3207  0.0240
 2144W        W15558  12.337  16.127   2.032 -0.0065 -0.0919  0.1454
 2145W        W15559   6.105   6.279  12.561 -0.1529 -0.4979  0.0161
 2146W        W15560   9.261  13.018   1.189  0.1723  0.0062  0.1152
 2147W        W15561   3.137   7.193   6.109 -0.0317 -0.2775  0.4267
 2148W        W15562  14.929  17.472   1.195  0.0608 -0.0824 -0.5720
 2149W        W15563  12.989   3.754  16.507  0.1645  0.0104  0.5485
 2150W        W15564   1.156  16.109  13.619 -0.0163 -0.2920 -0.0091
 2151W        W15565  13.208   0.205   4.558 -0.0595  0.0288  0.2350
 2152W        W15566   5.107  13.130  16.416  0.1589 -0.2134 -0.1422
 2153W        W15567  16.893   1.540  15.797  0.0502 -0.2213  0.0827
 2154W        W15568  12.049  11.324   3.651  0.2490 -0.0685  0.0449
 2155W        W15569   4.304   2.473   2.907 -0.2966 -0.4016  0.3192
 2156W        W15570   7.278   2.275   0.407 -0.0932  0.0557  0.0847
 2157W        W15571  10.449  13.827  16.179  0.2252  0.2317 -0.1913
 2158W        W15572   0.022  16.604   2.880 -0.0300  0.1751  0.0057
 2159W        W15573   0.122   2.262   0.012 -0.4114 -0.1886  0.3546
 2160W        W15574   6.370  14.661   1.818  0.0842 -0.2941 -0.0765
 2161W        W15575   3.977   4.469   6.175 -0.1670 -0.2758  0.0790
 2162W        W15576  12.815   9.079   1.291 -0.3353 -0.0953 -0.1321
 2163W        W15577   7.509   2.171  14.499 -0.2691 -0.0314  0.0543
 2164W        W15578   4.842  14.788  11.858 -0.0227 -0.0744  0.1316
 2165W        W15579  10.513   4.976  11.182  0.1989 -0.0800 -0.0655
 2166W        W15580   7.425  12.859   3.094  0.1495  0.1570 -0.2037
 2167W        W15581   2.584  12.664  11.374 -0.4117  0.4822 -0.0443
 2168W        W15582   1.715  12.770  11.682 -0.1096  0.0714 -0.0328
 2169W        W15583   4.701  14.006   0.785  0.1839 -0.0766  0.2839
 2170W        W15584  15.789   9.542   5.286  0.0820  0.1846 -0.0835
 2171W        W15585  15.558   6.533   2.009 -0.1025  0.3026 -0.0060
 2172W        W15586  14.265  12.228   0.304 -0.1400  0.0772  0.2721
 2173W        W15587   9.850   2.171   5.643 -0.0016 -0.0010 -0.1761
 2174W        W15588  12.934  17.478  13.580  0.1044  0.0061  0.2512
 2175W        W15589   9.348   1.626  13.183 -0.2853 -0.0536 -0.0691
 2176W        W15590  12.937  15.379   6.134 -0.0564 -0.1751 -0.1483
 2177W        W15591  15.600   9.940  15.709  0.2446  0.3412 -0.5727
 2178W        W15592   3.543   9.845  11.442 -0.0222 -0.0722 -0.0483
 2179W        W15593  13.203  17.639  14.627 -0.0646  0.0534 -0.1584
 2180W        W15594   3.685   7.393   5.476  0.3992 -0.2130  0.0076
 2181W        W15595   1.571  16.895   0.371 -0.1112  0.2082 -0.1260
 2182W        W15596  12.761   4.277   1.868  0.0848  0.0734  0.0076
 2183W        W15597  13.077  17.176  14.541 -0.2064 -0.0600 -0.0392
 2184W        W15598   5.810   0.994   0.512 -0.2108  0.3405 -0.1139
 2185W        W15599   9.450   8.293  11.091 -0.1708 -0.3101 -0.2298
 2186W        W15600   2.544  11.903  12.623 -0.0898  0.1064 -0.3316
 2187W        W15601   6.132  16.704  11.019  0.0114 -0.0672 -0.1530
 2188W        W15602   0.255  14.416   1.548 -0.1969 -0.5558  0.0623
 2189W        W15603  15.186  16.632  12.747 -0.0559  0.3746 -0.1776
 2190W        W15604   6.659  16.413  15.107 -0.0716 -0.0364  0.2748
 2191W        W15605  16.729   0.885   4.072 -0.2018 -0.0287  0.1675
 2192W        W15606   1.612   0.836  16.656  0.2991 -0.3491 -0.1062
 2193W        W15607   7.404  16.343   2.356 -0.2154  0.1749  0.1503
 2194W        W15608   5.218  14.559  15.771 -0.3007  0.0784  0.0025
 2195W        W15609  15.687   3.792   1.628  0.1914 -0.0633 -0.0702
 2196W        W15610   1.957   7.408  15.293 -0.2610 -0.2653 -0.0579
 2197W        W15611   6.570   7.829   1.147 -0.2779 -0.3694 -0.1504
 2198W        W15612  16.691   7.617   2.371 -0.1144 -0.0252 -0.1473
 2199W        W15613  10.666  17.804   2.562  0.3112 -0.1702 -0.1400
 2200W        W15614  14.714   8.179  11.666  0.0374 -0.0770 -0.1722
 2201W        W15615   7.581   5.209  13.925  0.0174 -0.0877  0.2025
 2202W        W15616  10.023   7.259  15.769 -0.2021  0.0001  0.1707
 2203W        W15617   5.967   7.865   2.515  0.1301  0.0379  0.1046
 2204W        W15618   3.688  12.153   3.521 -0.0448  0.0974 -0.1214
 2205W        W15619   2.518  14.019  10.448 -0.1150  0.0571  0.1756
 2206W        W15620   8.055   8.251   0.891  0.1657  0.1584  0.0638
 2207W        W15621  11.867   3.255   5.430 -0.1337  0.2041  0.0021
 2208W        W15622   4.605   5.327  12.512  0.2737  0.0776 -0.1804
 2209W        W15623   3.078   4.434   4.187  0.0525  0.0949 -0.1592
 2210W        W15624   0.929   8.221  14.608  0.1075 -0.0921 -0.2373
 2211W        W15625   2.532   3.571  10.385  0.2349 -0.1008  0.2079
 2212W        W15626   3.825  15.624  10.789 -0.0073  0.0947  0.0726
 2213W        W15627   7.070  10.826   3.724  0.1270 -0.0127 -0.0012
 2214W        W15628   0.116  10.537  11.582  0.2564  0.3621 -0.0416
 2215W        W15629  15.413  12.721   2.052 -0.1709  0.1038 -0.0952
 2216W        W15630   7.775  10.088   3.746 -0.0761  0.1030 -0.2087
 2217W        W15631  10.685  13.363  15.931  0.2185  0.0941 -0.3622
 2218W        W15632   5.794   3.742  13.967  0.2024 -0.3476  0.1359
 2219W        W15633  12.092   0.136  11.861  0.0121  0.2299  0.0330
 2220W        W15634  13.916   6.817   2.201  0.1405  0.3314  0.1115
 2221W        W15635  15.386   8.118  16.415  0.0562 -0.1514  0.0632
 2222W        W15636  11.269  10.123   4.416 -0.0343 -0.1147 -0.0861
 2223W        W15637   1.171  16.703   5.422  0.0777 -0.0828  0.0140
 2224W        W15638  15.263   6.431  12.064 -0.1260  0.1108  0.4526
 2225W        W15639   7.145  12.710  13.066  0.2474 -0.0002  0.2003
 2226W        W15640  11.650  11.871  11.981 -0.1264  0.0026 -0.0117
 2227W        W15641   4.575   6.824  13.664 -0.0289  0.3123  0.0155
 2228W        W15642   1.401  12.215   5.289  0.2061  0.1636 -0.0671
 2229W        W15643  15.780   6.793   3.783 -0.0236 -0.1673  0.0717
 2230W        W15644   0.298   6.365   3.553 -0.1386  0.0527 -0.0322
 2231W        W15645   9.592   7.535  12.295 -0.0333  0.0943  0.0721
 2232W        W15646  11.560   0.441   1.781 -0.3527 -0.0243 -0.0130
 2233W        W15647   8.990  14.713   2.844 -0.1138 -0.1174 -0.0633
 2234W        W15648  10.107  13.868   2.758 -0.2155 -0.0088 -0.0856
 2235W        W15649  15.904   6.126   0.559 -0.2606  0.3194  0.0744
 2236W        W15650  15.171   9.231   4.670  0.3050  0.0398  0.1681
 2237W        W15651  13.751  10.770   0.613 -0.1086 -0.2292  0.2398
 2238W        W15652  15.696   3.559   3.112  0.1113 -0.2292 -0.0977
 2239W        W15653  13.667  16.936  16.271 -0.0474 -0.2216 -0.0690
 2240W        W15654   1.086   6.065   3.815  0.0994  0.0677  0.1191
 2241W        W15655  17.919   7.114   2.280  0.0290  0.1024  0.0137
 2242W        W15656  12.266   8.758  13.790  0.0022  0.1703  0.0082
 2243W        W15657  11.864   8.208   3.162  0.0989  0.0140  0.0222
 2244W        W15658  17.577  15.985  15.316  0.1040 -0.0297  0.0880
 2245W        W15659  16.509   4.562   0.103  0.1193 -0.3986  0.0330
 2246W        W15660   1.664   2.273   2.207 -0.0577  0.1220  0.1745
 2247W        W15661  15.282  14.795   4.209  0.1653 -0.2874 -0.0455
 2248W        W15662   1.531  14.804  11.266  0.0989  0.0249 -0.1084
 2249W        W15663  16.641  11.225  16.600 -0.0891 -0.2082  0.0011
 2250W        W15664   1.583   3.957  15.636  0.1979 -0.0046 -0.0183
 2251W        W15665  16.404   5.314  13.467  0.1595  0.0550 -0.0781
 2252W        W15666   3.385  10.386  14.298  0.0672 -0.1627  0.0788
 2253W        W15667   3.888  15.931   4.613  0.0805 -0.5447 -0.4048
 2254W        W15668  15.163   2.058   0.947 -0.4064 -0.0851  0.1724
 2255W        W15669   5.515   2.915   3.554 -0.0336  0.3679  0.1071
 2256W        W15670   0.383  17.434  16.711 -0.2029  0.1658 -0.2173
 2257W        W15671  15.993   5.867  11.431 -0.4328  0.0807  0.0248
 2258W        W15672  10.241   3.942   5.592  0.1395 -0.0795  0.1669
 2259W        W15673  13.167  14.631   4.651  0.1531  0.3951  0.1450
 2260W        W15674   0.887  17.727  12.174 -0.3807 -0.1827  0.0180
 2261W        W15675  16.638   6.220   1.579  0.1382 -0.0903  0.1465
 2262W        W15676  17.459   3.146   0.799  0.0127 -0.0337 -0.2174
 2263W        W15677   0.349  11.188   3.039 -0.1991  0.2185 -0.1674
 2264W        W15678   6.834  15.243   4.564 -0.0618 -0.1362 -0.1052
 2265W        W15679   4.092  13.652  13.181 -0.0456  0.1823 -0.1522
 2266W        W15680  16.555   7.282   6.469 -0.0114 -0.0188 -0.1593
 2267W        W15681  14.255   6.856  15.959 -0.0075  0.2130  0.0869
 2268W        W15682   8.726   0.787   3.883 -0.0929  0.0624 -0.2122
 2269W        W15683   8.317  15.745  10.459  0.0663 -0.1467  0.2942
 2270W        W15684   4.428  16.071   0.416 -0.1586 -0.2947  0.2153
 2271W        W15685   6.956   3.055  15.132  0.1061 -0.1691  0.1380
 2272W        W15686  17.058   3.824  11.772 -0.1899  0.0149 -0.0900
 2273W        W15687  15.404   6.441   3.859 -0.1010 -0.2779  0.2724
 2274W        W15688  17.099   5.289   2.408  0.2229  0.0989 -0.0318
 2275W        W15689  15.620   3.724  14.258 -0.1676  0.1448 -0.1534
 2276W        W15690   2.522  12.387  16.252  0.1857  0.2517  0.0836
 2277W        W15691  13.426   2.956  13.492 -0.0321 -0.2684  0.2081
 2278W        W15692   8.934  11.853  13.425 -0.1128 -0.3658  0.2520
 2279W        W15693  14.183  16.197   3.645 -0.0562 -0.1041  0.0382
 2280W        W15694  17.995   2.725   2.707 -0.3584 -0.0315 -0.0703
 2281W        W15695   4.925   4.384  13.376  0.1166  0.1092  0.0104
 2282W        W15696  12.122  12.804   4.227  0.0074  0.0606  0.2621
 2283W        W15697   0.432   2.766   1.791 -0.0741 -0.0780  0.4953
 2284W        W15698   3.821  13.272   4.276 -0.0393  0.0940 -0.1438
 2285W        W15699   2.902  13.351  11.973 -0.0729  0.3231  0.1259
 2286W        W15700   8.709  11.566   4.359 -0.0762 -0.1449  0.1306
 2287W        W15701  13.818  10.894  12.011  0.0200  0.2352 -0.5106
 2288W        W15702  12.661   3.227  14.392 -0.2666  0.2082  0.0300
 2289W        W15703   2.060   4.552   3.992  0.1797 -0.0417 -0.0067
 2290W        W15704   1.108   8.806   9.910 -0.0352  0.0387  0.1462
 2291W        W15705   4.364   2.958  16.464  0.0818 -0.0429 -0.0146
 2292W        W15706   8.331   9.750  16.578 -0.1554  0.3103  0.1402
 2293W        W15707  14.217  10.087   6.079 -0.2621  0.0281  0.3233
 2294W        W15708  16.984  13.389   0.070  0.2147  0.1811 -0.0708
 2295W        W15709  14.185   1.957  11.295  0.2361  0.0394 -0.1195
 2296W        W15710   2.115  10.254   0.323 -0.1987 -0.1055 -0.0566
 2297W        W15711  17.250   1.360   0.307  0.2655  0.2297 -0.1760
 2298W        W15712  11.366   1.309  15.126 -0.0808  0.0521  0.0945
 2299W        W15713   2.218  11.610  13.863  0.3222  0.0187  0.0356
 2300W        W15714   0.563   9.820   3.636 -0.1063  0.0426  0.0787
 2301W        W15715   7.707   3.436   0.134  0.3030 -0.3148 -0.1236
 2302W        W15716  13.817   3.343  16.389 -0.1273  0.2247  0.0164
 2303W        W15717   3.581   6.309  16.305 -0.0031 -0.0082  0.2149
 2304W        W15718   8.137   6.466  14.049 -0.0718 -0.0144  0.0402
 2305W        W15719   7.453  14.235   0.923 -0.0234  0.2881 -0.3600
 2306W        W15720   8.569   0.630  11.829  0.0756 -0.0016 -0.1119
 2307W        W15721   5.153   4.457  11.920  0.2153  0.1166  0.0752
 2308W        W15722  11.344  10.230  15.526  0.1541  0.0560 -0.0556
 2309W        W15723   8.039  12.633  16.300  0.0382 -0.3183  0.1440
 2310W        W15724  16.501   0.960   4.707 -0.2074 -0.1412  0.0011
 2311W        W15725   4.576  12.870  12.492  0.0145 -0.0776 -0.2323
 2312W        W15726   8.998  15.206   4.485  0.0566 -0.2527  0.0379
 2313W        W15727  13.535   4.680  14.900 -0.0381 -0.2564 -0.0183
 2314W        W15728  17.747  17.150  10.255  0.3468  0.0547  0.1066
 2315W        W15729  11.888   4.376   3.397 -0.0722 -0.1200  0.1339
 2316W        W15730   9.103  17.498   0.176 -0.0568 -0.0519  0.1314
 2317W        W15731  16.316   1.320  12.918 -0.0729  0.2383 -0.0625
 2318W        W15732  11.794  11.325   4.188 -0.1793 -0.1711  0.0898
 2319W        W15733   1.290   7.217   0.784  0.4292 -0.2499 -0.1792
 2320W        W15734  17.738   0.465  11.479 -0.0474 -0.3075 -0.0584
 2321W        W15735   0.589  14.647  11.726 -0.0439 -0.0438  0.0934
 2322W        W15736   4.916  14.093  13.072  0.2494 -0.0900 -0.1240
 2323W        W15737   8.207   3.888   5.871  0.1168  0.0521 -0.0215
 2324W        W15738  15.089  14.440   0.713 -0.2308  0.1895  0.1608
 2325W        W15739   3.777   9.103   1.496 -0.2731 -0.1483  0.0736
 2326W        W15740  14.497   5.221   5.689  0.2305 -0.0598  0.1442
 2327W        W15741   9.507   4.547  16.574  0.2002  0.1913 -0.1684
 2328W        W15742  10.333  14.306  15.923 -0.1523  0.0875 -0.0559
 2329W        W15743   1.928   9.980  16.104 -0.0239 -0.4166 -0.1315
 2330W        W15744   8.565   9.405  11.447  0.0324 -0.1990 -0.2251
 2331W        W15745  16.500   1.642   1.418 -0.2313 -0.0254  0.2626
 2332W        W15746  14.838  16.455   2.063 -0.0046 -0.2159  0.1678
 2333W        W15747   4.437   5.245   4.681  0.2182 -0.1614 -0.2240
 2334W        W15748   3.200  12.285  10.565  0.0145 -0.0306 -0.2692
 2335W        W15749   6.437   6.536   1.585  0.0995 -0.1420 -0.0544
 2336W        W15750   2.372  10.132   0.824 -0.1010 -0.0059 -0.0604
 2337W        W15751   7.990  17.698   2.597  0.1199 -0.1764  0.0714
 2338W        W15752   8.789  14.082   3.490  0.1513  0.2928 -0.0628
 2339W        W15753   0.282  16.585   5.535  0.2270 -0.1796 -0.0971
 2340W        W15754   5.220  14.433  11.937 -0.0293 -0.0279 -0.0928
 2341W        W15755   4.987   0.981  16.598 -0.0664 -0.3124 -0.0978
 2342W        W15756   3.545   5.866   3.633 -0.1492 -0.2857  0.3460
 2343W        W15757  17.704   2.086  10.744 -0.1371 -0.1103  0.0987
 2344W        W15758   4.978   3.509   2.072 -0.1022  0.1548  0.0767
 2345W        W15759  14.130   0.003   2.887  0.0126  0.1212 -0.1017
 2346W        W15760  11.986   9.334  16.628 -0.1276 -0.3713  0.2375
 2347W        W15761   5.565   8.693  16.293  0.0903 -0.2532  0.1325
 2348W        W15762   3.998   7.149  11.879  0.1498  0.0812  0.0585
 2349W        W15763  12.163  10.922   6.270  0.3374 -0.2195 -0.1847
 2350W        W15764  10.517   1.179  11.589  0.2058 -0.0997  0.1287
 2351W        W15765   4.789   9.026   4.100 -0.1420  0.0548 -0.0162
 2352W        W15766  12.469   6.770  12.221 -0.1127  0.0000  0.2781
 2353W        W15767   1.392   4.443   3.273 -0.0875  0.1157  0.1798
 2354W        W15768   7.814  15.357   3.550  0.1050 -0.0921  0.1372
 2355W        W15769   3.665  17.068  12.984 -0.1756  0.2320  0.0919
 2356W        W15770   0.738   2.934  11.853  0.0250  0.1321  0.1652
 2357W        W15771   5.686  12.226  13.022 -0.0185 -0.1306  0.0320
 2358W        W15772   1.793  15.198  12.778  0.1441  0.4119  0.3141
 2359W        W15773   9.103   2.595   4.465  0.0218 -0.1536  0.2438
 2360W        W15774   1.740   4.483  15.604  0.2312  0.2481 -0.0815
 2361W        W15775  10.925  10.277   5.770  0.0712 -0.1663 -0.3485
 2362W        W15776   4.440  12.810   0.127  0.0626 -0.1570 -0.2712
 2363W        W15777  14.214  17.418   5.681 -0.0532 -0.0234  0.1982
 2364W        W15778   1.707  10.635  12.306 -0.1618  0.3108  0.0316
 2365W        W15779  16.012   9.318   4.929 -0.0966 -0.0699 -0.0533
 2366W        W15780   4.219   4.319  15.380  0.0369  0.0878  0.0835
 2367W        W15781  15.593  16.995  14.239  0.0819  0.0617  0.2561
 2368W        W15782  14.584  13.836  16.464 -0.1776 -0.1535 -0.0986
 2369W        W15783  13.727   4.484  13.391  0.3591 -0.0093  0.0257
 2370W        W15784   5.359   5.493  15.850 -0.1054  0.0327 -0.0160
 2371W        W15785   7.455   1.075  11.339 -0.1331 -0.2034  0.1702
 2372W        W15786  16.186   4.711  16.030 -0.0678  0.0617  0.1677
 2373W        W15787   7.282  13.827   3.778 -0.3648 -0.1535  0.2667
 2374W        W15788  12.644   0.306  13.452 -0.0692  0.1508 -0.0192
 2375W        W15789   2.846   1.648   2.807 -0.2033 -0.2512 -0.0150
 2376W        W15790  11.818   8.992  12.337 -0.0036 -0.2199 -0.1771
 2377W        W15791   8.126   7.050  16.727  0.0658  0.0725 -0.2296
 2378W        W15792  16.444   5.184   5.415  0.3104  0.3943  0.3043
 2379W        W15793   0.429   7.687  12.538  0.3436  0.1109  0.0079
 2380W        W15794   1.862  13.510  16.090  0.1285 -0.0098 -0.2220
 2381W        W15795   5.903  10.153   1.745  0.3947 -0.0035  0.0886
 2382W        W15796  17.776  15.949  10.578  0.3055  0.1295 -0.0178
 2383W        W15797   4.740  17.804   2.724 -0.1149 -0.0070 -0.0609
 2384W        W15798  15.081  15.167  12.158  0.0805 -0.0157  0.4299
 2385W        W15799  11.766   7.525  11.410 -0.1748 -0.0159 -0.1721
 2386W        W15800   2.419  11.613   5.052 -0.3323 -0.0268 -0.1861
 2387W        W15801  11.200  12.185  13.596 -0.0821 -0.2920  0.0696
 2388W        W15802  10.559   1.528  13.914  0.1318 -0.2145  0.1765
 2389W        W15803   8.300  15.478  10.878 -0.3436 -0.1890  0.0281
 2390W        W15804   7.681  11.294   0.555  0.0924 -0.1803  0.0785
 2391W        W15805   4.990   8.216   2.466 -0.1643 -0.0055 -0.0159
 2392W        W15806  16.872   6.063  13.438  0.1128  0.2507 -0.0048
 2393W        W15807   9.123   9.247  16.635 -0.0285 -0.2369 -0.2175
 2394W        W15808  13.136   3.079  14.300 -0.0562  0.1215 -0.1118
 2395W        W15809  12.009  14.087   3.400  0.1464 -0.2143 -0.0232
 2396W        W15810   0.953  15.591  11.867 -0.0624  0.1685  0.0928
 2397W        W15811  11.187  12.235   4.655 -0.1377  0.0069  0.1287
 2398W        W15812   6.088   0.650  12.096  0.3173  0.2203  0.0622
 2399W        W15813   2.600   1.153   4.600  0.1013  0.0433  0.1493
 2400W        W15814   1.623   2.171  16.393 -0.0960 -0.0710 -0.3452
 2401W        W15815   0.283   6.239   0.897 -0.3118 -0.1245  0.2646
 2402W        W15816   8.457   6.222  14.345 -0.0039 -0.0212 -0.1403
 2403W        W15817  11.092  11.345  13.661 -0.4173  0.0445  0.2762
 2404W        W15818   8.941  13.814  11.535 -0.0863 -0.2542 -0.2455
 2405W        W15819   5.947  11.379  15.378  0.1316  0.0914  0.3885
 2406W        W15820  13.311  11.324   0.065  0.1192  0.1694  0.0482
 2407W        W15821  17.714  15.764   2.454 -0.0120 -0.0066 -0.3498
 2408W        W15822   4.514  11.126   4.331  0.1524 -0.1105  0.1245
 2409W        W15823   4.615   5.347   1.807  0.0057 -0.0148  0.1098
 2410W        W15824   5.905  14.619   0.818  0.3273 -0.0989 -0.4810
 2411W        W15825   7.174  14.837   4.595 -0.1317 -0.0415 -0.1627
 2412W        W15826   6.633  17.267  16.633 -0.0219 -0.0955  0.1872
 2413W        W15827  12.271   2.566   1.605 -0.3937 -0.0746  0.2928
 2414W        W15828   2.013   8.966   4.742  0.2671 -0.1842  0.1536
 2415W        W15829   3.991  15.988   0.844  0.0857  0.3923  0.0790
 2416W        W15830  11.945  10.320   0.626  0.0290  0.2286  0.0719
 2417W        W15831   2.872   3.377   2.781  0.1491  0.0491  0.1005
 2418W        W15832   8.000  15.303  15.968 -0.0213 -0.0145 -0.0747
 2419W        W15833  15.491   2.421  13.730 -0.1033 -0.2302 -0.0580
 2420W        W15834  13.127   0.715   3.896 -0.2424 -0.0412 -0.1409
 2421W        W15835  17.989   8.012  12.671  0.2883 -0.0096  0.0159
 2422W        W15836   8.775   1.218  14.765 -0.2171  0.0655  0.1133
 2423W        W15837   2.294   4.532   0.892 -0.1312  0.1747 -0.0423
 2424W        W15838  10.092   8.936   3.230  0.0549  0.2479 -0.1425
 2425W        W15839   4.470  13.368  15.280  0.2159 -0.1653  0.0734
 2426W        W15840  17.856   9.575  13.556 -0.0807 -0.3610 -0.1082
 2427W        W15841   7.673   2.479   4.029  0.0091  0.1303 -0.1411
 2428W        W15842   7.243   3.689  13.646 -0.1560 -0.0276  0.0774
 2429W        W15843  17.393   6.519  15.346  0.2644 -0.0647  0.1605
 2430W        W15844  16.335   4.830  14.746  0.3234 -0.2653 -0.3593
 2431W        W15845  10.032   4.537   1.129 -0.2069 -0.0924 -0.1820
 2432W        W15846  11.875  11.621   4.625 -0.0270  0.1792  0.0311
 2433W        W15847  15.620   6.517   5.823  0.1338  0.0135  0.0062
 2434W        W15848  16.989  17.353  14.360 -0.0928 -0.1106  0.0357
 2435W        W15849   3.425   1.761  16.173  0.0390 -0.1055 -0.0480
 2436W        W15850   8.089   0.363  13.147  0.1299 -0.1713 -0.1472
 2437W        W15851   1.377  13.041  13.684  0.1985 -0.1312 -0.0177
 2438W        W15852   1.580  11.571  11.391  0.1175 -0.3472  0.2103
 2439W        W15853  11.776   0.190   5.779 -0.1576  0.0862 -0.1556
 2440W        W15854   2.655   4.218  15.993 -0.0838  0.1076 -0.0055
 2441W        W15855  16.711   3.134  13.507 -0.1140 -0.1182  0.2826
 2442W        W15856  16.828   3.276   0.182 -0.0750  0.2744 -0.0643
 2443W        W15857  13.849   4.036  13.501  0.2343  0.1118 -0.1317
 2444W        W15858   3.272   3.875   5.217 -0.2862 -0.1569 -0.0905
 2445W        W15859   1.088  10.873  13.761  0.0727  0.0090 -0.0863
 2446W        W15860  13.459   5.151  12.234  0.2786  0.0367  0.0412
 2447W        W15861  14.697   5.704   4.532 -0.1682  0.0428  0.0109
 2448W        W15862   9.048   4.774   1.033  0.6474  0.0516  0.2189
 2449W        W15863  13.999  14.609  12.332  0.1384  0.0389  0.0532
 2450W        W15864  15.498  16.021   4.110  0.1170 -0.2729 -0.0189
 2451W        W15865   1.697   1.901  10.671 -0.0911 -0.3836 -0.3097
 2452W        W15866   2.520  15.784  14.067 -0.1695 -0.0534 -0.1790
 2453W        W15867   5.561  15.522   0.564 -0.1660  0.0389  0.3926
 2454W        W15868  14.752  15.070  10.851 -0.2102 -0.2079 -0.0312
 2455W        W15869   9.975   3.688   5.934 -0.0471  0.2797 -0.1668
 2456W        W15870  10.402  15.262  15.826  0.0026 -0.2035 -0.1139
 2457W        W15871  12.870   1.282  11.432  0.0725  0.3635  0.0067
 2458W        W15872   4.245   3.968   4.510  0.0894  0.0349  0.0631
 2459W        W15873  12.358   8.330   1.850 -0.1647 -0.1644  0.0267
 2460W        W15874   3.868   7.135  15.252 -0.0366 -0.2214 -0.2998
 2461W        W15875  14.289   0.166  16.603 -0.0721  0.2701 -0.4489
 2462W        W15876   3.634  16.434  11.785 -0.1629  0.1426 -0.2122
 2463W        W15877   8.566   8.628  11.623  0.2375 -0.1038  0.1449
 2464W        W15878  12.900  17.265  12.728 -0.2538  0.1335 -0.1361
 2465W        W15879  16.477   5.400   1.072 -0.0974 -0.1626 -0.0332
 2466W        W15880   4.438   9.832   1.872  0.0143  0.1352 -0.1040
 2467W        W15881  13.783   8.808   0.937 -0.1608 -0.0932  0.1868
 2468W        W15882  17.118   6.764   5.901  0.2897 -0.1834 -0.0044
 2469W        W15883  17.672   8.527   2.833 -0.1312 -0.0615 -0.0728
 2470W        W15884   7.889  17.710  15.242  0.2878 -0.0689  0.2689
 2471W        W15885  12.780   5.652  12.281 -0.0949 -0.0060  0.0748
 2472W        W15886   4.302   2.049   5.288  0.2032 -0.1053 -0.0292
 2473W        W15887   2.252  12.232   3.553 -0.0012 -0.1302 -0.0396
 2474W        W15888  15.483   0.692   1.375  0.0533  0.1983 -0.1568
 2475W        W15889  15.246   2.561   0.085 -0.1740 -0.0178  0.2067
 2476W        W15890   9.627  10.707  12.987  0.2087  0.1169 -0.0138
 2477W        W15891   3.519   9.396   0.244  0.2462  0.0691 -0.0380
 2478W        W15892  11.963  17.315   0.216  0.3354  0.0086  0.0123
 2479W        W15893  16.439   1.029  10.075  0.2073  0.2136  0.0150
 2480W        W15894   5.860   1.889  12.648 -0.2236 -0.2260 -0.2538
 2481W        W15895   6.075   2.366   5.436  0.1842  0.1415  0.0376
 2482W        W15896  10.655   5.200   3.305 -0.2346 -0.0853  0.0998
 2483W        W15897  17.347   7.777   4.249  0.0527  0.1147  0.0405
 2484W        W15898  17.601   1.417  13.673 -0.0547  0.2055  0.1836
 2485W        W15899   2.515   6.319  16.036  0.2580 -0.2995 -0.1177
 2486W        W15900   8.089   2.865   5.128  0.1783 -0.1755 -0.0133
 2487W        W15901  14.211  12.989  13.426 -0.0829  0.1989  0.0324
 2488W        W15902   5.024   2.039   2.391  0.0975  0.1885 -0.0117
 2489W        W15903  17.051  17.603  16.229  0.1337  0.1887 -0.1441
 2490W        W15904  11.857  15.855   4.403  0.3697  0.2285 -0.3105
 2491W        W15905  16.529  13.383   5.579 -0.1112 -0.1604  0.0334
 2492W        W15906  10.258   1.080   3.541  0.2589  0.2528 -0.2813
 2493W        W15907   3.931  15.706  15.369  0.0919  0.0027  0.0249
 2494W        W15908   6.983  14.967   2.434 -0.2258  0.2762  0.0132
 2495W        W15909   8.762   3.914   5.826 -0.0232  0.1936 -0.0288
 2496W        W15910  11.877  11.529  15.656 -0.2380  0.1567 -0.1564
 2497W        W15911  14.243   9.345   0.135  0.0112 -0.1127  0.2096
 2498W        W15912  14.306  17.301   1.506  0.1365 -0.0150  0.0761
 2499W        W15913   1.238   0.859  14.989 -0.0632 -0.0112  0.5462
 2500W        W15914   2.453   6.160   3.008 -0.1090 -0.1024 -0.0791
 2501W        W15915   3.362   8.996  16.738  0.0782 -0.0960  0.0364
 2502W        W15916   4.516   5.888  14.961 -0.0021  0.2115  0.2078
 2503W        W15917   7.102   5.052  15.392  0.1697 -0.2612 -0.1812
 2504W        W15918   2.755   8.800  10.484  0.0013  0.1897 -0.0913
 2505W        W15919   1.669   9.325  14.793  0.1745  0.1419 -0.0989
 2506W        W15920   2.342   4.481  14.991  0.0668  0.0724  0.1085
 2507W        W15921  11.801  12.295   2.106 -0.0246 -0.1257 -0.3130
 2508W        W15922   0.546   0.780   5.327  0.3364  0.1976  0.3583
 2509W        W15923   6.127  16.933  12.374  0.1619 -0.1734 -0.1897
 2510W        W15924  17.057  16.976  13.061 -0.1054 -0.0770 -0.0024
 2511W        W15925   6.084  14.767  11.183  0.0048 -0.0841 -0.0006
 2512W        W15926   0.069  16.603  16.182 -0.0394  0.2673 -0.1084
 2513W        W15927   1.042  14.056   3.282 -0.0170 -0.0592 -0.4226
 2514W        W15928   1.473   8.604  16.472  0.0779  0.1796 -0.2911
 2515W        W15929  15.869  12.025  11.642 -0.0232  0.0516 -0.1652
 2516W        W15930  13.964   8.405   3.158 -0.1177  0.0032 -0.4232
 2517W        W15931   1.678   9.814  11.927 -0.2011 -0.0770 -0.3552
 2518W        W15932   3.896   0.542  13.331 -0.2339 -0.1752  0.1965
 2519W        W15933  16.123   4.902   0.390 -0.0250  0.0199  0.2287
 2520W        W15934  17.134  11.492   5.754  0.0189  0.1417  0.1690
 2521W        W15935  14.469   5.994  12.747  0.0448  0.2143 -0.0396
 2522W        W15936   9.245   8.786  13.003 -0.1583  0.1240 -0.0094
 2523W        W15937  12.945  12.359  13.823  0.1281  0.1156  0.0139
 2524W        W15938  14.542   2.347  12.904  0.2341 -0.0998 -0.0481
 2525W        W15939   3.694  17.326  14.202  0.2988 -0.0633  0.3374
 2526W        W15940   5.732   1.642  14.444  0.2598  0.1783 -0.0423
 2527W        W15941   6.329  16.932   0.669  0.0081  0.1930  0.0697
 2528W        W15942   9.596   4.498   5.548 -0.1709  0.0986 -0.2692
 2529W        W15943   5.112  17.798  16.125 -0.3017 -0.1571  0.0721
 2530W        W15944   6.107  16.189  13.236 -0.0731 -0.0138  0.0793
 2531W        W15945   2.796  15.731   4.100  0.0541  0.3263 -0.0769
 2532W        W15946   8.317   5.480   4.965 -0.1805 -0.3151 -0.1630
 2533W        W15947   7.965  13.104   1.337 -0.0636 -0.0266 -0.0907
 2534W        W15948   2.700   5.968   1.347 -0.0194 -0.0441 -0.0033
 2535W        W15949  14.789   3.344   4.888  0.1859 -0.1551  0.0230
 2536W        W15950  15.871   5.474   2.220 -0.0959  0.2846 -0.1684
 2537W        W15951  16.530  12.604  16.071 -0.0988  0.0185  0.1223
 2538W        W15952  12.009   1.589  12.146 -0.1893 -0.1985  0.0358
 2539W        W15953   6.896   6.915   5.387 -0.1242 -0.5456 -0.1543
 2540W        W15954  17.236   6.434   5.542  0.0541  0.1120  0.0795
 2541W        W15955  13.047   2.079   0.001  0.0054 -0.0774  0.1740
 2542W        W15956  11.997   1.313   5.639  0.0076 -0.1289 -0.2156
 2543W        W15957   3.763   8.528  15.228 -0.2487  0.2322 -0.1193
 2544W        W15958  15.920   7.129   3.126  0.1728  0.1864 -0.1753
 2545W        W15959  17.370  15.322   2.623 -0.1431  0.0428 -0.1157
 2546W        W15960   4.866   3.364  12.933  0.0607 -0.1877 -0.1965
 2547W        W15961   7.903  11.672   0.742  0.1528 -0.2624  0.0871
 2548W        W15962   1.573   9.810   1.867  0.0399  0.1970 -0.1445
 2549W        W15963   6.790   7.402   0.586  0.0980  0.2658 -0.1508
 2550W        W15964   8.735  17.744  11.896  0.2292 -0.4542  0.0463
 2551W        W15965  11.975   7.498   1.563  0.0858  0.2674 -0.0334
 2552W        W15966  10.571   6.869   0.298  0.1962 -0.2041  0.2235
 2553W        W15967  16.710   1.327   3.267 -0.1194  0.1633  0.0751
 2554W        W15968   0.846  12.862  11.769 -0.1926 -0.2404 -0.1221
 2555W        W15969   7.749  14.609   4.623  0.0068 -0.1648  0.2675
 2556W        W15970  15.752  11.427   2.879 -0.6473  0.3307  0.1383
 2557W        W15971   5.544  15.824   4.109  0.1836  0.0842  0.1034
 2558W        W15972  17.748  11.891  11.044 -0.1575  0.2375 -0.1429
 2559W        W15973   0.345   2.668  11.569 -0.0598  0.1016  0.1530
 2560W        W15974   9.977  14.710  16.629 -0.0122  0.3469  0.1121
 2561W        W15975  17.086   0.938   3.165 -0.1573  0.0670  0.0698
 2562W        W15976   5.972  14.904   1.542 -0.2179 -0.3985 -0.0034
 2563W        W15977  14.143   7.336   3.511 -0.0114  0.0486  0.1101
 2564W        W15978   9.727   7.951  14.975 -0.2792 -0.1068  0.1443
 2565W        W15979  13.161  11.084   2.311 -0.3490 -0.0244 -0.1468
 2566W        W15980   2.583   7.207   1.365  0.2039 -0.0780  0.1569
 2567W        W15981  10.122  11.352  14.944  0.2499 -0.2393 -0.2137
 2568W        W15982  15.386   9.892  15.242 -0.3659 -0.2188 -0.2180
 2569W        W15983  15.856  14.955  11.503  0.1005  0.2707  0.1929
 2570W        W15984  17.696  10.913   0.171  0.2707  0.3121 -0.0730
 2571W        W15985   6.517   7.950   0.635  0.1138 -0.0671  0.0356
 2572W        W15986  12.157   0.901  14.079  0.0162 -0.0614  0.0717
 2573W        W15987   7.043   2.920   1.287  0.2111  0.1367 -0.2342
 2574W        W15988   9.203   8.274  11.933  0.2179  0.3492  0.0394
 2575W        W15989  11.442   5.937  12.192 -0.0328  0.0206 -0.1468
 2576W        W15990   4.129   4.315   1.555  0.1476 -0.0788 -0.2304
 2577W        W15991   4.845   8.965  16.747 -0.0193  0.0570 -0.1164
 2578W        W15992   8.211   2.530   2.557  0.1982  0.0143  0.0134
 2579W        W15993  10.764   3.175   4.367  0.1529 -0.0843  0.0512
 2580W        W15994  15.232  16.904  10.868  0.1523  0.1584  0.4151
 2581W        W15995  17.399  15.619   1.823 -0.4695 -0.3410  0.2200
 2582W        W15996   4.485  13.828  15.625 -0.0334  0.1337 -0.2826
 2583W        W15997  13.321  11.637  14.441 -0.0068  0.0760  0.1272
 2584W        W15998  13.831  10.628  15.864 -0.0868 -0.1517  0.2300
 2585W        W15999   9.667  10.184   5.011 -0.0685 -0.1221 -0.0173
 2586W        W16000  17.086  14.017   1.698 -0.3517  0.2598  0.0771
 2587W        W16001   2.459   4.431   2.678  0.1630 -0.0450  0.1223
 2588W        W16002  15.115   1.158  11.962  0.3092  0.3264 -0.0346
 2589W        W16003   5.066   1.289   0.198 -0.1726  0.0792 -0.2036
 2590W        W16004  12.230  12.888   2.805 -0.3305  0.1382 -0.0840
 2591W        W16005   8.937  14.635   5.098 -0.1858  0.0368 -0.1393
 2592W        W16006   0.437   0.758   4.470  0.2670 -0.0173 -0.0546
 2593W        W16007   6.293   8.668   5.082 -0.2891 -0.1917  0.0563
 2594W        W16008  13.625   6.799   5.797 -0.0253  0.1447  0.1129
 2595W        W16009  15.014   1.435  15.384  0.3581  0.1646 -0.1248
 2596W        W16010   1.139  17.805   0.549  0.3765 -0.3118 -0.1172
 2597W        W16011   5.104   8.894   0.458  0.1426 -0.0575 -0.0524
 2598W        W16012   6.134   3.571   2.407  0.3782 -0.1505 -0.0260
 2599W        W16013   8.692   1.338  11.268 -0.2853 -0.1733 -0.3141
 2600W        W16014   0.197  17.399  13.363 -0.1906 -0.0864  0.4652
 2601W        W16015   6.122   3.022  13.317 -0.0373  0.1295 -0.1906
 2602W        W16016  11.317   4.595  12.838 -0.2673 -0.1299  0.0256
 2603W        W16017   8.495   8.246  16.328 -0.0432 -0.2494 -0.1666
 2604W        W16018  15.376   9.062   0.478 -0.2630  0.0248  0.0874
 2605W        W16019   8.515   1.886   0.467 -0.0475  0.2642  0.2142
 2606W        W16020  14.515   9.945  11.002 -0.2884 -0.1012 -0.1068
 2607W        W16021   1.368  11.585   4.206  0.0341 -0.1382  0.0566
 2608W        W16022   7.019   4.206   5.283 -0.0552 -0.0079 -0.2000
 2609W        W16023  17.224   7.540  14.524  0.0232  0.0348  0.1899
 2610W        W16024  13.727   7.058   3.436  0.1653 -0.0620  0.0626
 2611W        W16025   4.053   1.649  16.778  0.2162 -0.3370  0.1117
 2612W        W16026   2.846  10.592   5.020 -0.0262 -0.0574  0.4433
 2613W        W16027   2.536   9.146  14.154  0.3096  0.1697 -0.1557
 2614W        W16028  13.421   7.722  13.191  0.1776 -0.0066 -0.1249
 2615W        W16029  15.555  17.227   0.387  0.1179  0.1584  0.1217
 2616W        W16030   3.983   8.038  13.828 -0.0218  0.0809  0.1871
 2617W        W16031  11.627  12.922   4.286 -0.1196 -0.1625  0.2187
 2618W        W16032   8.552   1.608  10.302 -0.0352 -0.0103  0.0444
 2619W        W16033   9.263  16.766   4.050  0.2786  0.0848  0.0362
 2620W        W16034  13.094  11.921   6.038 -0.0869 -0.0937 -0.1641
 2621W        W16035  13.582   7.637  16.458  0.1841 -0.3302 -0.1661
 2622W        W16036  10.710  12.326   4.947  0.0393 -0.0831 -0.2670
 2623W        W16037   4.830   0.482  16.748 -0.2660  0.0276 -0.1838
 2624W        W16038   5.568   9.038  13.364 -0.1007  0.0895 -0.0737
 2625W        W16039   1.603  16.938  13.433 -0.0348  0.1127 -0.1437
 2626W        W16040   1.782   5.777   4.472  0.0587 -0.1495 -0.0400
 2627W        W16041  14.474  11.391  16.122 -0.1441 -0.1096 -0.1822
 2628W        W16042   7.753  11.618   3.136  0.0552 -0.0254  0.0665
 2629W        W16043  10.240   1.752  14.252  0.1815 -0.0099 -0.0613
 2630W        W16044  10.163  12.233   3.305  0.0218 -0.3975 -0.1585
 2631W        W16045   0.113   6.452   1.574 -0.2019 -0.0373  0.0493
 2632W        W16046   1.578  11.066  15.370 -0.0371 -0.1599  0.2046
 2633W        W16047   6.307  14.490  12.648 -0.2076  0.0785  0.0496
 2634W        W16048  13.032  17.886   4.912 -0.0450  0.1694 -0.1730
 2635W        W16049   9.445  17.737  16.311 -0.1315 -0.0946 -0.2239
 2636W        W16050   7.672   7.732   2.568  0.0065  0.0209 -0.1850
 2637W        W16051   2.677   1.187   1.628 -0.3025  0.0713 -0.0714
 2638W        W16052   5.757  12.296  11.199 -0.0949  0.0600  0.1084
 2639W        W16053   3.608   5.425   2.052  0.2134 -0.2055  0.0387
 2640W        W16054  13.768   1.958  13.590  0.0185 -0.3107 -0.1243
 2641W        W16055   6.517  15.870   3.162  0.0044  0.0483  0.1215
 2642W        W16056   0.634  12.411   2.872 -0.2858 -0.1264  0.0095
 2643W        W16057   0.522   4.459  12.381  0.1482  0.0752 -0.2529
 2644W        W16058   4.804   0.780   3.020  0.4730  0.1331  0.0232
 2645W        W16059   1.593  11.972  16.431 -0.0440  0.1849  0.0932
 2646W        W16060   0.790   4.580  10.784  0.0553  0.1057 -0.1957
 2647W        W16061   1.063  17.217  15.441  0.2349 -0.1880 -0.0592
 2648W        W16062   9.648  14.982   3.274 -0.1866  0.0075 -0.0018
 2649W        W16063   2.440  17.669  14.419  0.0577 -0.1604  0.2952
 2650W        W16064  16.917  15.484   1.979 -0.1537 -0.0560 -0.2252
 2651W        W16065   1.151   5.083  12.510  0.1572 -0.3512 -0.0044
 2652W        W16066   8.575  13.739  14.501  0.1955 -0.0919  0.1353
 2653W        W16067   9.664  13.072  12.230 -0.2307 -0.0489 -0.0514
 2654W        W16068   9.001   2.792   0.256 -0.2975  0.0630  0.0790
 2655W        W16069   3.709  15.782  11.484  0.0512  0.0701 -0.0185
 2656W        W16070   9.107   7.508   2.103  0.0025 -0.0769  0.1884
 2657W        W16071  15.228   0.140   2.207  0.1647  0.1274  0.3827
 2658W        W16072   8.701   2.779   5.391 -0.2204 -0.0005  0.0180
 2659W        W16073  17.917  16.074   4.817 -0.0892 -0.1911 -0.0380
 2660W        W16074   5.581   0.655  15.807  0.2196 -0.3484 -0.0641
 2661W        W16075   7.684  10.347  13.998  0.0327  0.1198  0.2364
 2662W        W16076  12.410   7.690   4.806  0.2252  0.0452 -0.2571
 2663W        W16077   2.784  16.274   2.240  0.0395 -0.0746 -0.0150
 2664W        W16078   0.403  14.050  13.542  0.1247  0.0002  0.0112
 2665W        W16079  13.719  16.566   3.788  0.1202  0.1282  0.0063
 2666W        W16080  14.136  17.082  13.837 -0.0695  0.2276  0.3091
 2667W        W16081   8.476   8.789   2.454 -0.0322  0.0181  0.2613
 2668W        W16082   0.545   9.938  16.153 -0.2371 -0.1299  0.2944
 2669W        W16083  12.617  10.807  16.372  0.0770  0.2360  0.2145
 2670W        W16084   3.058  14.300  11.969 -0.0515 -0.1552  0.3212
 2671W        W16085   6.418  12.265  15.029  0.2165  0.5529  0.1347
 2672W        W16086  11.809   4.935   2.152  0.3725  0.0220  0.0812
 2673W        W16087  16.013   8.231  10.465  0.1408 -0.0014 -0.1212
 2674W        W16088   0.291  13.787  15.944 -0.4244  0.0427 -0.1139
 2675W        W16089  10.657   3.176  11.703  0.1389  0.4397 -0.0951
 2676W        W16090   6.082   0.860   2.985  0.2462  0.4055  0.0022
 2677W        W16091   7.586   0.299  13.238 -0.0496 -0.1516  0.0863
 2678W        W16092   2.831  14.228  16.711  0.0446  0.2823 -0.0914
 2679W        W16093  10.256   1.768  12.971 -0.2925 -0.2133  0.2395
 2680W        W16094   0.715   4.111   5.300 -0.2160 -0.0987 -0.2791
 2681W        W16095  12.452  15.953  15.037  0.1102 -0.2314  0.1600
 2682W        W16096  16.911  13.959   4.890  0.0135  0.4883  0.1273
 2683W        W16097   4.643   8.586  13.438 -0.0495  0.0433  0.1900
 2684W        W16098  15.814  14.737   5.160 -0.0379  0.1291 -0.1461
 2685W        W16099   4.517   0.550   1.316 -0.1287  0.2150 -0.0238
 2686W        W16100   4.061  14.759  12.413 -0.2585 -0.1272 -0.0279
 2687W        W16101   7.840  16.962   5.893 -0.0225  0.3262  0.1179
 2688W        W16102  10.693  11.705  16.469 -0.2757 -0.0559 -0.0585
 2689W        W16103   2.006  10.729   4.119  0.2289  0.1772  0.0639
 2690W        W16104   4.621  17.619   0.734 -0.0127  0.0423  0.2938
 2691W        W16105  11.272  13.127   2.459  0.0594  0.0315 -0.2676
 2692W        W16106   2.052   9.764  14.752  0.2365  0.1133 -0.1310
 2693W        W16107   1.925  10.789  14.969  0.1502 -0.0158 -0.4866
 2694W        W16108   9.350   8.629  12.270 -0.0145 -0.0925  0.1958
 2695W        W16109  14.036   9.044   4.889  0.0837 -0.2227 -0.0834
 2696W        W16110  13.934  12.802   5.736  0.2298  0.1543 -0.0704
 2697W        W16111   7.522  17.352  16.112  0.1820  0.1506  0.0849
 2698W        W16112   7.885  12.146  11.537  0.0468 -0.0336 -0.4833
 2699W        W16113   6.514   2.531   3.258 -0.2661  0.3388 -0.3586
 2700W        W16114   8.180   6.465   1.092  0.3140 -0.1431 -0.1208
 2701W        W16115  10.127  14.256   3.626 -0.1483 -0.0434  0.3394
 2702W        W16116   7.268  15.686   0.639 -0.0297 -0.0018  0.1283
 2703W        W16117   4.041  16.601  13.748  0.1968  0.3857 -0.1625
 2704W        W16118  12.592   9.297   4.740 -0.2124  0.3478 -0.1658
 2705W        W16119   4.610   9.083  13.316  0.2664  0.0256  0.0909
 2706W        W16120  15.514   4.053   0.674  0.0912  0.0451 -0.1177
 2707W        W16121  12.565  12.028  12.653  0.0556  0.0296  0.1064
 2708W        W16122   7.362   3.294  15.972  0.2205  0.2979  0.0245
 2709W        W16123  17.041   6.592  12.735 -0.2304  0.5186 -0.0992
 2710W        W16124   0.691   0.789  10.129 -0.0512 -0.0297 -0.2024
 2711W        W16125   6.435   8.062   5.591  0.2410 -0.0551  0.3700
 2712W        W16126   0.535   6.227  13.015 -0.1073  0.0627  0.2771
 2713W        W16127   1.555   0.113  10.842  0.0306  0.1155  0.0782
 2714W        W16128   4.967  14.077  14.296  0.1330 -0.1308  0.1071
 2715W        W16129   2.829  16.773  12.606  0.1016  0.0196  0.1453
 2716W        W16130  11.370   9.254   0.560  0.1236  0.1813 -0.1186
 2717W        W16131   8.305   4.060   3.627  0.0522 -0.3777  0.0956
 2718W        W16132  17.947   7.580   4.154 -0.1755  0.1464  0.1824
 2719W        W16133  13.407  16.239   4.015  0.1997 -0.0430  0.0446
 2720W        W16134  14.733  15.242  16.133  0.2929 -0.1702 -0.0055
 2721W        W16135   7.183   0.427   5.865  0.1271 -0.0567 -0.0932
 2722W        W16136   0.565  17.034  10.751  0.0450  0.1672  0.0930
 2723W        W16137   8.099   1.072   0.085 -0.0345 -0.0387 -0.0131
 2724W        W16138  12.280   6.253  12.839 -0.0529 -0.1754 -0.1731
 2725W        W16139  16.537  15.477  13.999  0.2421  0.0232 -0.0564
 2726W        W16140  14.636   7.193  15.791 -0.1236 -0.1168 -0.0250
 2727W        W16141  16.597   7.799   1.870  0.0034 -0.2905  0.0359
 2728W        W16142   1.915  16.547  15.170  0.2209 -0.1756  0.3221
 2729W        W16143   7.882  17.166   4.159  0.0303  0.2009  0.1642
 2730W        W16144  13.680   7.139  14.148  0.2112 -0.0028 -0.0467
 2731W        W16145  13.497  15.918  15.074  0.1042 -0.0574 -0.0936
 2732W        W16146   3.468  14.254   1.681  0.0192 -0.0750 -0.1977
 2733W        W16147   8.541  16.914   3.430  0.3890 -0.2737 -0.3355
 2734W        W16148   0.660  15.366  15.733 -0.2875 -0.0712 -0.0627
 2735W        W16149   3.819  11.422  14.182 -0.0751 -0.1600 -0.0269
 2736W        W16150   0.623  13.839   1.870  0.0343 -0.0716  0.1394
 2737W        W16151   8.542   2.314  15.730  0.1338 -0.0623  0.1589
 2738W        W16152  15.180   5.952  11.854 -0.0075  0.3084 -0.1304
 2739W        W16153   7.606   8.573  15.462 -0.1806  0.0208 -0.0792
 2740W        W16154   8.472   3.878  13.658  0.0272 -0.2256  0.2238
 2741W        W16155  12.565   3.676  15.697 -0.1967 -0.1642  0.2059
 2742W        W16156   3.079   1.283   4.663  0.0543  0.0422 -0.2950
 2743W        W16157  11.231   1.841   3.689  0.1266  0.2327 -0.1499
 2744W        W16158   6.114  11.187   1.333  0.0761 -0.0070  0.0273
 2745W        W16159   2.706  15.150   4.600 -0.0991 -0.0793 -0.1357
 2746W        W16160   6.877  10.238   4.957  0.2275  0.0268  0.2747
 2747W        W16161  11.923  16.912   4.352 -0.1391  0.2737 -0.0994
 2748W        W16162   9.430   7.810  11.794  0.1582 -0.0460 -0.4138
 2749W        W16163   3.221   7.559  15.565 -0.0854 -0.0568 -0.2059
 2750W        W16164  16.319   0.035   0.541 -0.2418  0.0362 -0.0769
 2751W        W16165  16.733   7.259  11.452 -0.0122  0.0599 -0.0462
 2752W        W16166   4.364   8.702  12.911  0.1803 -0.0299 -0.0228
 2753W        W16167   4.934  10.319   2.959 -0.0007 -0.1596  0.0123
 2754W        W16168  13.675   2.286   4.949 -0.0258 -0.0006 -0.1677
 2755W        W16169   4.667  15.730   0.146  0.0275  0.1935  0.0341
 2756W        W16170   3.592   1.237  16.442  0.0194  0.3116 -0.3262
 2757W        W16171  12.747   1.149  13.503 -0.0232 -0.2222  0.0373
 2758W        W16172   3.208  17.708   2.040 -0.1379  0.3592  0.0952
 2759W        W16173  16.634  15.247   4.951 -0.0619  0.1893 -0.2319
 2760W        W16174  13.590   1.095  16.465 -0.1582 -0.0456 -0.0501
 2761W        W16175   3.487   4.586   1.318 -0.1099 -0.0657 -0.0624
 2762W        W16176  16.679   8.164   5.746  0.0478  0.2449  0.0606
 2763W        W16177  17.255  17.840   4.599  0.1100  0.1592 -0.1010
 2764W        W16178   9.877   3.420   3.206  0.0042  0.0486 -0.0485
 2765W        W16179  11.546   2.821  12.355  0.2998  0.1156  0.3939
 2766W        W16180  17.762  14.840  15.917 -0.2242  0.2041  0.1147
 2767W        W16181   9.798   6.546  14.669 -0.3267  0.1051 -0.1467
 2768W        W16182  17.834   7.564  12.532 -0.4739 -0.1963 -0.0533
 2769W        W16183   8.340  11.980  13.577 -0.3172 -0.2010  0.2827
 2770W        W16184  11.597   3.105   2.115  0.2663  0.4829 -0.1423
 2771W        W16185   8.188   1.050  10.820 -0.2773 -0.0478  0.1146
 2772W        W16186   2.214  13.737   5.969  0.3555  0.0454 -0.0666
 2773W        W16187   5.688  11.077   4.721  0.0434  0.1440 -0.1357
 2774W        W16188   1.983  15.733  10.209  0.2058 -0.0419 -0.0704
 2775W        W16189  12.497  13.622  14.053  0.2290  0.1883 -0.0443
 2776W        W16190   2.473   2.129  11.884 -0.0670 -0.0112 -0.2604
 2777W        W16191  13.860   7.019  15.681  0.0484 -0.1176  0.0939
 2778W        W16192  16.886  14.132  15.304  0.3421  0.0216 -0.1576
 2779W        W16193  12.970  10.395  11.629  0.0263 -0.0558 -0.0775
 2780W        W16194  11.461   3.059  12.882  0.0595  0.0720 -0.1677
 2781W        W16195  15.477  11.712   0.850 -0.0436 -0.0589 -0.2402
 2782W        W16196  11.071  16.016   3.706 -0.2154 -0.0615 -0.3938
 2783W        W16197   4.177  10.047   4.881 -0.0391  0.1051  0.3882
 2784W        W16198   7.776  16.529  12.814 -0.1541 -0.1043  0.1345
 2785W        W16199   6.767  14.350  15.727  0.1639 -0.5878 -0.0854
 2786W        W16200   0.655   3.284   3.070  0.1508  0.0954  0.2142
 2787W        W16201  15.474   4.235   1.611 -0.0843 -0.1612  0.4582
 2788W        W16202  16.777   5.779   1.415 -0.2650 -0.1168 -0.1324
 2789W        W16203   9.254   9.504  14.446  0.1348 -0.1348  0.1421
 2790W        W16204  17.693  13.894   3.436 -0.1290 -0.1333  0.0100
 2791W        W16205  14.868  11.850   7.066  0.4210  0.0384 -0.1328
 2792W        W16206   2.553  17.330  15.969 -0.3383 -0.3184  0.0432
 2793W        W16207  16.651  15.290  12.418 -0.0775 -0.3027  0.0160
 2794W        W16208   2.168   8.288   0.136  0.0159  0.0653  0.1380
 2795W        W16209  16.052   0.077   1.712  0.1557 -0.0698 -0.1195
 2796W        W16210   2.418   9.597  15.024 -0.1993 -0.0457 -0.1829
 2797W        W16211  13.746   2.548   3.030 -0.0686 -0.0806  0.0751
 2798W        W16212  17.635  10.386  14.106  0.0800  0.2503 -0.3751
 2799W        W16213  12.312   1.731   4.429  0.2875  0.0630  0.0200
 2800W        W16214   3.071   0.401  14.566 -0.3531 -0.2139  0.1146
 2801W        W16215   1.500   8.614   4.754 -0.0754  0.0068 -0.0142
 2802W        W16216  12.134  13.095   6.142 -0.0113  0.1986  0.1389
 2803W        W16217   4.664  10.140   6.197  0.2693  0.3794  0.1063
 2804W        W16218  13.860  14.384  16.710 -0.0610  0.0680  0.1316
 2805W        W16219   2.952   4.390   5.090  0.0238  0.2489 -0.0817
 2806W        W16220  11.406   5.215   1.263  0.2011  0.1855 -0.0236
 2807W        W16221   5.930  13.243   3.711 -0.2357  0.2190  0.0833
 2808W        W16222   4.352  14.085   2.350  0.0894 -0.3370  0.0560
 2809W        W16223  13.612   0.620  12.631 -0.0313  0.0312 -0.1341
 2810W        W16224   4.532  10.109   3.091  0.1214 -0.0261 -0.1709
 2811W        W16225  11.335   0.936  14.699 -0.0210  0.0914  0.0854
 2812W        W16226   2.096  10.900   4.656 -0.0996 -0.0950  0.3291
 2813W        W16227   0.130   9.573   0.054 -0.2265  0.0678  0.2699
 2814W        W16228   5.292   4.669   2.168 -0.0191 -0.2869  0.3751
 2815W        W16229  17.874   5.782   4.570 -0.0540  0.0420  0.0362
 2816W        W16230  12.387   3.014  13.214 -0.2135  0.0669 -0.0443
 2817W        W16231  12.656  16.855  12.584 -0.0815  0.0594 -0.0520
 2818W        W16232   2.119   0.713  12.080  0.2777 -0.1127  0.0441
 2819W        W16233  17.558   2.636   5.349  0.1510  0.3200 -0.2450
 2820W        W16234   4.970  15.919  14.772 -0.4484 -0.1137 -0.0955
 2821W        W16235   0.561   0.640  13.270  0.2035  0.0113  0.3302
 2822W        W16236  14.858  16.846  14.926  0.2453 -0.1074 -0.1272
 2823W        W16237   6.161   4.313   3.868 -0.0098 -0.0640 -0.1259
 2824W        W16238   1.684   4.211  11.641  0.2576 -0.1843  0.2100
 2825W        W16239  11.313   7.865  12.032 -0.4260 -0.2112 -0.0124
 2826W        W16240  17.477  14.086  15.085 -0.1320 -0.2096  0.1794
 2827W        W16241  13.081   8.629  13.521  0.0033  0.0329  0.1103
 2828W        W16242  10.583  10.396  11.429  0.2516  0.2089  0.0021
 2829W        W16243  14.459   3.210   2.684 -0.0703 -0.2176  0.0987
 2830W        W16244   1.303  13.257  13.161  0.0019  0.1071 -0.0221
 2831W        W16245   7.871  13.725  16.138 -0.0780 -0.0824  0.1122
 2832W        W16246  15.705  14.298  13.886  0.2183  0.0855 -0.0212
 2833W        W16247   4.867   8.639   2.121  0.0314  0.1287  0.1335
 2834W        W16248   7.318   9.287  12.613  0.1850 -0.0129 -0.1784
 2835W        W16249   4.624  12.930  11.110 -0.0265 -0.0053  0.3700
 2836W        W16250   7.557  15.098  16.177 -0.0737  0.3207  0.0752
 2837W        W16251  13.950   1.679   2.320  0.0484 -0.3477  0.2578
 2838W        W16252  10.790  16.107   5.278  0.1078  0.2625 -0.2728
 2839W        W16253   2.675   4.106  12.253 -0.3324  0.0304 -0.1323
 2840W        W16254  16.018  14.578  13.390 -0.1023  0.2923 -0.0904
 2841W        W16255   4.814   5.470   1.333  0.0106  0.0648 -0.0703
 2842W        W16256  13.782  13.454   0.551 -0.1929 -0.0432 -0.1718
 2843W        W16257  11.828  17.405  16.522 -0.0282 -0.1603  0.0670
 2844W        W16258  15.419  10.503  15.846  0.0289 -0.0736 -0.1475
 2845W        W16259  16.698   3.739   3.804 -0.1228 -0.0436  0.0920
 2846W        W16260   8.565   4.840   0.875 -0.0113 -0.0683  0.0090
 2847W        W16261   0.221  14.540   0.338  0.1220 -0.0710 -0.0664
 2848W        W16262  15.691   1.903  12.267  0.1658  0.2586 -0.0524
 2849W        W16263   0.745  13.992  13.096 -0.0890 -0.0746 -0.2044
 2850W        W16264  17.071  15.342  16.610 -0.1230  0.1899 -0.1378
 2851W        W16265   1.933  17.989  14.112 -0.0029 -0.0073  0.0854
 2852W        W16266  17.125   2.846   1.874 -0.0132  0.0974 -0.1682
 2853W        W16267  10.375   7.433   2.527  0.1440  0.3846  0.1102
 2854W        W16268   6.216  15.483   3.009 -0.1448 -0.2458  0.0680
 2855W        W16269   0.573  13.253   3.405 -0.0676  0.3640 -0.0016
 2856W        W16270   8.529   8.520  16.733 -0.0072  0.0215 -0.1856
 2857W        W16271   4.223  17.810  12.689 -0.1713 -0.0869  0.1823
 2858W        W16272  11.473  10.645   1.959 -0.4556  0.1553 -0.0709
 2859W        W16273   5.006   7.639   1.902 -0.2516  0.2158  0.1458
 2860W        W16274   7.746   4.355   4.796  0.0238 -0.0096  0.1768
 2861W        W16275   9.016   7.270  13.090 -0.3662 -0.1235 -0.0994
 2862W        W16276  15.186  17.883  16.029  0.3542 -0.0022  0.1794
 2863W        W16277  11.482   5.499  15.799  0.3062 -0.0901 -0.0023
 2864W        W16278  11.771  10.310   5.365  0.3545  0.0630 -0.1330
 2865W        W16279   8.541   9.474   5.252  0.0974 -0.2002  0.0953
 2866W        W16280  16.249  12.962   3.548 -0.0160  0.0597  0.2310
 2867W        W16281  17.822  11.664  14.515 -0.1872  0.2668  0.0136
 2868W        W16282   8.262   8.163  12.895  0.4926 -0.0762  0.0470
 2869W        W16283  11.462   3.312  16.710  0.1730  0.0279 -0.0318
 2870W        W16284   9.668   7.380  14.794  0.1530 -0.0327 -0.4013
 2871W        W16285   4.259   1.754   0.955 -0.0012  0.0536 -0.3814
 2872W        W16286  13.181  17.151  11.906  0.1622 -0.0324 -0.0933
 2873W        W16287   3.179   9.271   5.405 -0.2256  0.0010 -0.1395
 2874W        W16288  10.959  10.424  13.489  0.0746 -0.1612 -0.0885
 2875W        W16289   4.494   3.949  15.101 -0.1132 -0.1016  0.0360
 2876W        W16290  16.160  15.442  16.115  0.0010 -0.4093  0.0170
 2877W        W16291   1.791   5.654  10.224  0.3566  0.0098 -0.1864
 2878W        W16292   3.159   7.483   3.302  0.2708 -0.0120  0.3099
 2879W        W16293   0.741   7.583  16.656  0.3182 -0.2208  0.1561
 2880W        W16294  13.268   3.078  14.864 -0.0696 -0.2411 -0.2525
 2881W        W16295  17.380   9.640   2.321 -0.1502 -0.2853 -0.2235
 2882W        W16296  13.613  10.345   3.057  0.2107 -0.0622 -0.1888
 2883W        W16297   6.904   7.847   2.747 -0.1117 -0.1433 -0.2384
 2884W        W16298  10.796   5.022  10.775  0.3785  0.3787  0.3330
 2885W        W16299   5.032   4.254   2.361 -0.0009 -0.1569 -0.0397
 2886W        W16300  11.427   8.370   6.249 -0.0029  0.1718 -0.0381
 2887W        W16301   1.790   1.587   1.826  0.1098 -0.0453 -0.1771
 2888W        W16302   0.955   2.521  14.902 -0.2439  0.2007  0.4891
 2889W        W16303   0.058   1.327   2.183 -0.1540 -0.0216  0.1236
 2890W        W16304  15.189   9.421   6.121 -0.1512  0.0425  0.4416
 2891W        W16305  17.414  13.507  15.979 -0.1501 -0.4222 -0.0890
 2892W        W16306  10.828  10.042   5.258 -0.0411 -0.1769  0.0226
 2893W        W16307  11.198   7.413  15.810  0.1678  0.1439  0.2797
 2894W        W16308   8.128   1.387   1.786 -0.0613  0.0436  0.1251
 2895W        W16309   3.182   8.846  14.850 -0.0321 -0.0759  0.0962
 2896W        W16310   4.716  14.164   4.159 -0.1695  0.2735  0.0172
 2897W        W16311   2.645   5.473  10.818 -0.1718  0.0233 -0.0949
 2898W        W16312  13.869  17.251   2.270  0.0216  0.1785  0.1782
 2899W        W16313   5.954   5.843  16.712  0.0439  0.0233  0.0059
 2900W        W16314   9.365   9.804   0.620 -0.2295 -0.0022 -0.0595
 2901W        W16315  13.910  15.295   6.243 -0.3086  0.0807  0.1019
 2902W        W16316  11.290  14.513  13.806  0.2537 -0.0016  0.1925
 2903W        W16317  11.227  11.104   4.961  0.0395  0.0924 -0.0291
 2904W        W16318   9.090  17.430  15.163  0.0651 -0.1463 -0.3067
 2905W        W16319   7.191  16.450   3.160 -0.1000  0.0096  0.0683
 2906W        W16320   2.959  13.882  13.495  0.0228  0.0827 -0.1332
 2907W        W16321   3.776  17.764   0.401  0.1899  0.3072 -0.0824
 2908W        W16322   0.233   8.905   2.082 -0.0097  0.0575  0.2745
 2909W        W16323   3.302   0.257  11.178 -0.1977  0.0734  0.0598
 2910W        W16324  10.930  11.481  15.844 -0.0092 -0.4626  0.3939
 2911W        W16325   3.395   0.237   2.278  0.2095  0.1645 -0.0085
 2912W        W16326  16.484   7.491   5.445 -0.1893  0.1434 -0.0127
 2913W        W16327  11.864   7.771  14.754  0.0358  0.2441  0.0284
 2914W        W16328  13.097   4.863  15.073 -0.1697 -0.0720  0.0173
 2915W        W16329  16.456  11.289  14.018  0.2613  0.0238 -0.0527
 2916W        W16330   3.009  14.761   3.889 -0.3796  0.1357 -0.0619
 2917W        W16331   8.810   5.124  13.504  0.1263  0.3130 -0.0060
 2918W        W16332   4.810   7.685  16.048  0.3224  0.0195 -0.1326
 2919W        W16333   8.006   3.301   1.420  0.1741  0.1498 -0.2476
 2920W        W16334  17.513  10.504  11.387  0.0308  0.1383  0.2038
 2921W        W16335  15.158   7.807   5.744  0.0080 -0.0247  0.1977
 2922W        W16336  13.336  17.654   0.324 -0.0634 -0.0198 -0.1483
 2923W        W16337   3.299  15.043  10.122  0.2187  0.0338  0.0964
 2924W        W16338  12.339  10.334  11.427  0.0179 -0.2237 -0.2910
 2925W        W16339   0.986  16.685  12.336  0.0988  0.1284  0.0626
 2926W        W16340  11.027  11.686   0.724 -0.1211  0.2318  0.2101
 2927W        W16341   1.132   9.407  10.701 -0.0643 -0.1443  0.1262
 2928W        W16342   0.239   0.200  10.476 -0.1587 -0.1009 -0.1478
 2929W        W16343   6.236  13.524   4.878  0.2599 -0.1555 -0.1158
 2930W        W16344   8.348   1.102   4.732  0.2431 -0.0300 -0.1033
 2931W        W16345   0.174  10.052  10.552  0.0115  0.2255  0.0154
 2932W        W16346   9.001   8.649  14.807  0.0491 -0.0711  0.0533
 2933W        W16347  16.576   0.104  14.000 -0.1838 -0.1119 -0.1893
 2934W        W16348   6.046   0.688   3.514  0.1096 -0.0116 -0.0414
 2935W        W16349  12.182   5.996  14.783  0.1424 -0.1609  0.1199
 2936W        W16350  16.581   7.106   3.299 -0.1589 -0.1066 -0.1716
 2937W        W16351   1.422   0.619  11.273  0.0079 -0.1166 -0.1526
 2938W        W16352   8.432   8.776   2.999  0.0101 -0.1276  0.0647
 2939W        W16353   1.820   0.251  10.118 -0.0486 -0.1034 -0.1761
 2940W        W16354   2.385   4.230  13.312  0.1036 -0.2421  0.2751
 2941W        W16355   7.785   6.144   1.218  0.2252  0.0052 -0.4184
 2942W        W16356  17.984  17.312   1.327 -0.0883  0.3099  0.2729
 2943W        W16357  12.953   2.833   0.728  0.3015  0.2224 -0.0516
 2944W        W16358  11.983   8.041   4.519  0.3310  0.0641  0.2709
 2945W        W16359   8.143   6.006  16.349 -0.1626 -0.4241 -0.4751
 2946W        W16360   9.624  16.103  12.474  0.1610  0.2147 -0.0045
 2947W        W16361   8.390   7.383   3.880  0.1293 -0.0609  0.0367
 2948W        W16362  12.413   4.658   0.567 -0.2203 -0.0241 -0.3371
 2949W        W16363   7.456   3.669  11.531 -0.1320 -0.0522 -0.1856
 2950W        W16364  15.086   8.636  11.794  0.0248 -0.0347  0.0278
 2951W        W16365  10.693  17.322   4.393 -0.0733 -0.1864 -0.0194
 2952W        W16366   1.600  16.989   3.793  0.0365  0.4193  0.1251
 2953W        W16367  16.004   3.396   1.605 -0.0973  0.0096 -0.0547
 2954W        W16368   3.785   9.355  11.581  0.1017  0.0044 -0.0514
 2955W        W16369  17.503   7.857   1.729  0.0918  0.0870  0.0839
 2956W        W16370  13.473  11.048   1.042 -0.0998  0.1454  0.1255
 2957W        W16371   1.738   3.045  14.186  0.3576 -0.0994 -0.0257
 2958W        W16372   9.904   6.363  11.931 -0.0414 -0.0153  0.1383
 2959W        W16373   7.825   3.032   0.872 -0.0983 -0.0790 -0.0085
 2960W        W16374   2.248  14.150  11.425  0.1719 -0.2231  0.0052
 2961W        W16375   5.121  10.689   5.071 -0.1537  0.0424 -0.0073
 2962W        W16376  15.735   0.949   5.248  0.2891  0.2420 -0.2046
 2963W        W16377   6.556  13.169  11.359 -0.1533  0.2188 -0.0039
 2964W        W16378  13.539   1.624   4.822  0.0640 -0.0508 -0.0947
 2965W        W16379  14.712   2.587  16.782 -0.1717 -0.0742 -0.2311
 2966W        W16380  11.232  15.901   5.193  0.1716 -0.0557 -0.1315
 2967W        W16381   6.222   2.087   4.140 -0.2654  0.1401  0.3133
 2968W        W16382  11.719   7.335  13.691 -0.3303  0.0265  0.1414
 2969W        W16383  16.609   8.180   0.269 -0.3720  0.1653  0.3285
 2970W        W16384  14.882  10.178  11.986  0.2153  0.0424 -0.0301
 2971W        W16385  16.120   4.510  10.020 -0.0082 -0.1465 -0.2895
 2972W        W16386   7.662   5.306  15.402 -0.1190  0.0502 -0.2015
 2973W        W16387   3.911  17.740  12.316  0.1568 -0.1356  0.2605
 2974W        W16388   9.299  14.931   0.942 -0.1822  0.0235  0.0554
 2975W        W16389  10.330   9.227  13.325  0.1672  0.2176 -0.2243
 2976W        W16390  13.120   5.501   5.828 -0.0545  0.1524  0.2329
 2977W        W16391   8.516   1.589  12.110 -0.1846  0.0078 -0.1059
 2978W        W16392   7.082  14.833   5.640 -0.1282 -0.1128 -0.0357
 2979W        W16393  10.126   2.367  13.360 -0.1589 -0.0021  0.0214
 2980W        W16394   3.129  13.482  13.275  0.0365 -0.1604  0.1364
 2981W        W16395  12.226  16.282   0.877 -0.0059  0.0259  0.2338
 2982W        W16396   0.331   2.683   3.083 -0.0325  0.0129 -0.0645
 2983W        W16397  12.197  16.161   0.259  0.2158  0.4086  0.0143
 2984W        W16398   4.420   3.560   2.899  0.4676 -0.3022 -0.0626
 2985W        W16399  15.829  13.270   3.355  0.2008 -0.1041  0.3681
 2986W        W16400   7.435   6.570  16.431  0.2550  0.1296 -0.3400
 2987W        W16401   0.375   7.865  16.429  0.1664  0.2700  0.2569
 2988W        W16402   2.853  16.449  13.924 -0.1321 -0.0733  0.0114
 2989W        W16403  11.930  11.716  11.220  0.0034  0.0543 -0.3215
 2990W        W16404   4.473   4.242   0.591 -0.3306 -0.1987  0.2189
 2991W        W16405  16.333   8.959   0.525  0.0507  0.0307  0.0187
 2992W        W16406   3.633  10.647   0.559 -0.3261 -0.5663  0.0387
 2993W        W16407   2.391   8.982  15.333  0.0138 -0.3367 -0.1980
 2994W        W16408   5.782   3.829  13.101  0.3750 -0.0436 -0.2206
 2995W        W16409  16.211  15.230   1.767 -0.2330  0.0054  0.1728
 2996W        W16410  12.849   8.619  16.238  0.1131 -0.0242  0.0289
 2997W        W16411   1.896   4.245   4.729  0.1151 -0.0946  0.1078
 2998W        W16412   4.895   1.183  12.683  0.0326 -0.0188 -0.1903
 2999W        W16413  13.037  10.302  15.030  0.0719  0.0309 -0.1003
 3000W        W16414   2.380   0.301  12.224  0.1321  0.2420  0.0637
 3001W        W16415   5.115   1.869   0.213  0.1914  0.1882 -0.0268
 3002W        W16416  12.708   0.710  11.223  0.0402  0.2065 -0.1818
 3003W        W16417  17.012   7.396  10.762 -0.2383  0.0011 -0.2407
 3004W        W16418   2.965  12.443  14.979  0.1822  0.1175 -0.0267
 3005W        W16419   5.031  13.575  14.288 -0.1053  0.0062  0.2405
 3006W        W16420  16.437   2.981   3.436  0.0810 -0.0502  0.1986
 3007W        W16421   9.572  11.226  12.809 -0.0032  0.0590  0.0602
 3008W        W16422  17.408   7.162  14.811 -0.1342 -0.2435  0.0109
 3009W        W16423   5.942   2.537  14.646  0.1062 -0.1729  0.2754
 3010W        W16424  16.631  12.717  11.135 -0.0302 -0.0107  0.0562
 3011W        W16425  12.920  12.252   3.800 -0.3340 -0.2637  0.1168
 3012W        W16426   9.917   1.501  11.916  0.0841 -0.0342  0.2062
 3013W        W16427   6.587   9.546  13.321  0.0939  0.1670 -0.0587
 3014W        W16428   2.116   3.802   4.763 -0.1914 -0.3814  0.0531
 3015W        W16429  16.517   7.553  15.434  0.0087  0.1315  0.2631
 3016W        W16430   8.255  12.240   5.126 -0.0728  0.0761  0.3222
 3017W        W16431  14.464  11.698   5.485 -0.0966 -0.0812 -0.1426
 3018W        W16432  13.410  17.801  13.544  0.1334  0.1581  0.1179
 3019W        W16433  11.114  16.449  14.622  0.2867  0.1267  0.1064
 3020W        W16434  17.057  17.580   1.375  0.0014 -0.1561  0.0559
 3021W        W16435   1.621   2.038  11.599 -0.2100 -0.1257 -0.3151
 3022W        W16436  15.518   8.222  11.357 -0.0141 -0.1565  0.1012
 3023W        W16437  15.707  17.908  16.496  0.1021  0.0126 -0.4822
 3024W        W16438  15.790   5.468  16.186 -0.2186 -0.2155 -0.0108
 3025W        W16439   7.711  16.304  13.317  0.2920 -0.1591  0.0844
 3026W        W16440   5.718   4.868   1.288 -0.2224 -0.1459 -0.0365
 3027W        W16441  12.613   9.599  15.242  0.1858 -0.3783 -0.1488
 3028W        W16442  14.695   6.127  11.104 -0.2607  0.1053  0.1739
 3029W        W16443   5.730  14.860   5.825  0.1591 -0.2056 -0.0246
 3030W        W16444  14.798  15.745   0.820 -0.0979 -0.1099  0.1056
 3031W        W16445   8.631  10.700  15.207 -0.0258 -0.1650  0.0815
 3032W        W16446   7.272  12.274   2.245 -0.2651 -0.3922  0.1184
 3033W        W16447  17.536   8.108  13.083  0.0268  0.1341 -0.0682
 3034W        W16448   4.326  16.940   0.012  0.2504  0.1374  0.0901
 3035W        W16449  16.989   3.259  12.992 -0.2603  0.1696 -0.1639
 3036W        W16450   2.230  16.546  10.808 -0.0917 -0.0876 -0.2748
 3037W        W16451  16.395   1.656   0.557 -0.0908  0.4681 -0.0894
 3038W        W16452   9.304   2.692  12.205  0.0023  0.0587  0.0827
 3039W        W16453   7.013  15.940   5.527  0.1455 -0.4829 -0.0474
 3040W        W16454  10.719   0.867   0.063 -0.2779 -0.0723 -0.2179
 3041W        W16455   6.569  11.153   1.019 -0.2093  0.0190  0.0030
 3042W        W16456   0.068   5.669   6.416  0.2666 -0.2020 -0.0706
 3043W        W16457   7.095  14.346  11.655  0.2508  0.0153 -0.0978
 3044W        W16458  17.291  15.467  10.840 -0.1310 -0.2841  0.2314
 3045W        W16459   3.563   7.356  16.469  0.0165 -0.0898 -0.2179
 3046W        W16460  15.410  10.778  16.720  0.0097 -0.0885 -0.0484
 3047W        W16461   4.579  11.035   2.496 -0.0065  0.1668 -0.0428
 3048W        W16462   0.316   9.183   2.515 -0.1464  0.0990 -0.2905
 3049W        W16463  13.132   2.678   2.055  0.0290  0.3470  0.2218
 3050W        W16464   3.214   9.483   1.680 -0.0221 -0.0241 -0.2490
 3051W        W16465   6.364   5.191   5.402 -0.1475 -0.2443  0.1170
 3052W        W16466   0.216   2.321  13.693 -0.0891 -0.3443  0.0835
 3053W        W16467   6.176  12.009   0.121  0.1656  0.1820 -0.1303
 3054W        W16468  11.043   6.121   3.383 -0.0618  0.0570 -0.1159
 3055W        W16469   8.860   6.592  14.416  0.0968 -0.1392  0.3524
 3056W        W16470   1.683   8.624   0.535  0.0369  0.0827 -0.3269
 3057W        W16471  11.879  11.287  16.141  0.0133  0.1070  0.0691
 3058W        W16472   2.701  12.407  15.711  0.0362  0.3817 -0.2521
 3059W        W16473   4.949  12.281   0.539  0.0643 -0.0125  0.1330
 3060W        W16474  17.681   9.269  11.959  0.0817 -0.0558 -0.2352
 3061W        W16475  10.810  15.641   5.040 -0.0898  0.2168 -0.1279
 3062W        W16476  11.474   5.428  14.812  0.0147  0.0151  0.0546
 3063W        W16477   7.582   8.478   3.904  0.0130  0.1577 -0.1685
 3064W        W16478  16.840   7.842   4.369 -0.0877  0.2208 -0.1275
 3065W        W16479   1.728  11.032   2.676  0.0142  0.0281  0.3017
 3066W        W16480   2.643   7.420   3.115 -0.1854  0.2300  0.1477
 3067W        W16481   3.954   7.740  11.219  0.0970  0.0863  0.1133
 3068W        W16482   6.105   5.344   1.995 -0.0169 -0.2370  0.0058
 3069W        W16483  13.824   7.837   4.790 -0.0563  0.0498  0.1501
 3070W        W16484  15.573   1.491   2.466 -0.1170  0.1353 -0.5425
 3071W        W16485  16.099  16.765  11.403 -0.1383  0.0328  0.1700
 3072W        W16486   1.140   9.880   2.685 -0.0204 -0.1151  0.1227
 3073W        W16487   7.130   9.430   6.390  0.1140  0.2372 -0.0146
 3074W        W16488   6.836   1.409  12.693 -0.2800  0.1414 -0.0765
 3075W        W16489   9.401  16.140   1.802  0.1553 -0.0671  0.0622
 3076W        W16490  13.189   5.955   2.061 -0.0359 -0.0975 -0.0382
 3077W        W16491  16.042   5.579   5.546  0.1621 -0.4649  0.1344
 3078W        W16492   1.927   6.309  16.047 -0.0146 -0.0129 -0.0090
 3079W        W16493   8.295  14.495  12.344 -0.0319  0.0421  0.1459
 3080W        W16494   2.776  10.021   2.585 -0.0180  0.0030 -0.0809
 3081W        W16495  15.755   7.674   4.234  0.0735  0.1523 -0.0693
 3082W        W16496   1.443   7.988   6.450  0.1577  0.0252  0.0738
 3083W        W16497  14.658  10.554  11.708 -0.0516 -0.0221  0.3633
 3084W        W16498   6.058  13.996   4.694  0.1617  0.2154 -0.2369
 3085W        W16499   9.322   7.301  11.863 -0.0779  0.1646  0.1981
 3086W        W16500   9.343  10.346  14.683  0.1049  0.0057  0.1508
 3087W        W16501   2.817  12.720   0.683 -0.0836 -0.1237 -0.0815
 3088W        W16502   5.094  10.249  13.222 -0.3000 -0.4375  0.1376
 3089W        W16503  16.592   2.005   0.230  0.0878 -0.0091 -0.2245
 3090W        W16504   2.279   7.521  14.676  0.0752 -0.0787  0.3089
 3091W        W16505   3.445  15.491  11.097  0.1429 -0.0015 -0.0599
 3092W        W16506  13.188   7.164  11.927 -0.0727  0.1879 -0.1211
 3093W        W16507   8.853  14.003   5.775  0.1301  0.2048  0.4818
 3094W        W16508  11.708   4.599   1.720 -0.0415 -0.2846  0.3773
 3095W        W16509  11.355  17.880   5.935  0.1321 -0.3587  0.1184
 3096W        W16510   1.897   4.291   1.015 -0.0218  0.1925 -0.2795
 3097W        W16511   8.302  11.894   4.597  0.1332 -0.1943 -0.4982
 3098W        W16512   9.679  10.690   1.458 -0.0712  0.2786  0.1010
 3099W        W16513   3.358  11.942   5.723 -0.1257  0.0452  0.0761
 3100W        W16514   7.867  15.868   3.395  0.1761  0.0336  0.0039
 3101W        W16515  16.333   0.755  13.366  0.2014 -0.0852  0.0745
 3102W        W16516  16.300   3.672  11.099  0.0098 -0.0246 -0.2543
 3103W        W16517  14.354   0.438   0.641  0.0168 -0.1887  0.1277
 3104W        W16518   7.917   8.476  16.227 -0.1715 -0.0247 -0.1926
 3105W        W16519  16.896  16.346  14.246 -0.3056 -0.2644 -0.1050
 3106W        W16520  16.874  14.607  13.436  0.3026 -0.0046  0.0977
 3107W        W16521  17.629  11.795   1.477 -0.0897 -0.0784  0.0976
 3108W        W16522  11.176   3.886   2.059 -0.0653  0.2476 -0.2005
 3109W        W16523  12.639  16.983   3.175 -0.0119 -0.1995 -0.0602
 3110W        W16524   7.718   9.480   1.109  0.1387  0.2970 -0.1104
 3111W        W16525   2.675   8.593   2.640 -0.0921 -0.2174  0.0374
 3112W        W16526   2.024   8.938  10.850 -0.2272  0.2066 -0.0811
 3113W        W16527  15.148   3.430  16.258 -0.1128  0.0541 -0.0096
 3114W        W16528   5.185  16.236   3.278 -0.0539  0.0976 -0.5573
 3115W        W16529  14.070   5.151   4.421 -0.0042 -0.0377  0.0018
 3116W        W16530  17.193   4.746   0.197  0.1403 -0.0181 -0.0749
 3117W        W16531   9.205   4.263   0.963 -0.1775  0.1321 -0.0886
 3118W        W16532  13.863  14.605   2.951  0.4499  0.1353 -0.2360
 3119W        W16533   2.744   0.243  13.642 -0.0683  0.3144  0.1564
 3120W        W16534  11.093  16.647  14.149  0.1766 -0.0060  0.1368
 3121W        W16535   6.124   0.995   0.056  0.1193  0.0439  0.1631
 3122W        W16536  13.659  15.851  13.379 -0.2989 -0.0503  0.0741
 3123W        W16537   8.021  13.532   3.286  0.2174  0.3251 -0.0897
 3124W        W16538   3.113  13.667  11.667 -0.2123  0.0287  0.0754
 3125W        W16539  14.271  14.085   0.032  0.1848 -0.0484 -0.0916
 3126W        W16540  14.817  17.838  13.497 -0.1021 -0.0995  0.0413
 3127W        W16541  17.709  10.826   2.305  0.1534  0.3069  0.0784
 3128W        W16542   7.811   1.723   1.059  0.0516 -0.1530  0.1360
 3129W        W16543   0.909   4.185  15.302  0.1628 -0.3429  0.3433
 3130W        W16544   8.476  10.262  15.353  0.0649  0.0025 -0.0194
 3131W        W16545   2.548   0.297  10.183 -0.2250 -0.2026 -0.3841
 3132W        W16546   1.569  12.147   2.526  0.0963 -0.1073 -0.1828
 3133W        W16547  16.473  13.719  16.711 -0.1940 -0.2022 -0.2219
 3134W        W16548  13.743   1.552  16.770  0.3018  0.2100 -0.1190
 3135W        W16549  10.730  14.745   2.684  0.2314 -0.1973  0.1079
 3136W        W16550   7.054   8.567   0.184 -0.2534 -0.0592 -0.2037
 3137W        W16551   3.941  11.000   0.696 -0.1450  0.0127 -0.0357
 3138W        W16552   9.222   8.309   4.199  0.0436 -0.3689 -0.1010
 3139W        W16553   8.041  15.913   5.796  0.2349 -0.0087 -0.0108
 3140W        W16554   4.470  17.385  12.577 -0.0970 -0.2553 -0.1331
 3141W        W16555   9.877  12.969  15.789 -0.3653  0.2018  0.0303
 3142W        W16556   8.016   2.141  11.873  0.0533  0.2174  0.2843
 3143W        W16557   9.120  15.976  10.997 -0.0277  0.1029 -0.2714
 3144W        W16558  11.829   0.146  16.056  0.1005 -0.0729 -0.1953
 3145W        W16559   2.575   5.352   4.381  0.0219 -0.0994  0.1237
 3146W        W16560   3.450   7.049  15.518  0.1273 -0.1641  0.1451
 3147W        W16561   5.472   3.756  11.729 -0.2496  0.0579  0.1841
 3148W        W16562  13.356  12.753   6.621 -0.1978  0.3191  0.1718
 3149W        W16563   1.529   8.700   5.240 -0.1321 -0.3524 -0.1160
 3150W        W16564  11.559   5.403  12.221 -0.0604 -0.2430 -0.1604
 3151W        W16565  10.615  16.991   5.433  0.0425  0.1515 -0.0803
 3152W        W16566   9.590   3.736   3.051  0.0813  0.0439  0.4036
 3153W        W16567  11.844   6.877   4.034  0.0502  0.2175  0.2729
 3154W        W16568  16.083  16.956  14.404  0.0219 -0.0203 -0.1217
 3155W        W16569  11.131   2.105  15.505 -0.1010 -0.0403  0.0760
 3156W        W16570   9.503  14.741   2.819 -0.1699  0.2771 -0.2714
 3157W        W16571   8.706   9.832  15.130 -0.0356  0.0785 -0.0341
 3158W        W16572  15.696   3.548   4.636  0.0849  0.1941  0.0803
 3159W        W16573   0.746   4.782  13.171  0.1195 -0.1176  0.1099
 3160W        W16574   1.332   0.907   0.830 -0.1724 -0.2714  0.1047
 3161W        W16575   3.158   8.334  12.188 -0.5354  0.0700  0.1213
 3162W        W16576   7.305   2.352  16.426  0.1301  0.1249  0.2297
 3163W        W16577  17.976  12.327  16.123 -0.1312  0.2171 -0.2683
 3164W        W16578  10.703  14.211   4.138  0.0189 -0.0755  0.3449
 3165W        W16579  17.655   8.446  14.566 -0.0477  0.0622 -0.0528
 3166W        W16580   6.411   5.189  14.997  0.0370 -0.0326  0.0584
 3167W        W16581   0.299   1.604  14.541 -0.1729  0.0020 -0.1453
 3168W        W16582  16.008   6.800  11.642 -0.1738 -0.1755 -0.1251
 3169W        W16583   2.588   9.582   1.727 -0.1701  0.1075  0.0204
 3170W        W16584   8.162   9.316  15.728 -0.0447 -0.0097  0.3796
 3171W        W16585  16.015   9.180  12.428  0.0579 -0.0947  0.1036
 3172W        W16586   8.826  14.873   4.091 -0.0976  0.0146 -0.0880
 3173W        W16587  12.542  14.708   4.480  0.0615  0.0654  0.2923
 3174W        W16588  11.403   7.526  14.055 -0.0096 -0.4125  0.2056
 3175W        W16589  15.764  14.954  16.480  0.0204 -0.0912 -0.0453
 3176W        W16590   4.778  16.587   4.663  0.0738 -0.2986 -0.2001
 3177W        W16591  15.946   9.473  15.562  0.0340 -0.1421 -0.0901
 3178W        W16592   7.400   1.922   5.202 -0.1557 -0.2445  0.0644
 3179W        W16593  16.783  12.271   3.240  0.0151 -0.0175 -0.3245
 3180W        W16594   5.731  12.462   4.623 -0.3366 -0.0355  0.3650
 3181W        W16595   7.335  11.626  13.735 -0.0955  0.0618 -0.2535
 3182W        W16596   6.830   6.345  16.540  0.2826 -0.2434  0.1271
 3183W        W16597   0.312  14.468   2.205  0.0712 -0.1546  0.2290
 3184W        W16598   0.195   3.215   6.048  0.4781  0.0574 -0.2043
 3185W        W16599  12.649   0.778   3.794 -0.0801 -0.3529  0.0965
 3186W        W16600  10.689   4.259   5.561  0.1212 -0.0601 -0.0055
 3187W        W16601   8.594   4.919   4.427 -0.1445 -0.0591  0.1974
 3188W        W16602  13.634  14.474   4.786 -0.1131 -0.0836  0.0114
 3189W        W16603  11.918  16.112  14.211 -0.0991 -0.2506 -0.3107
 3190W        W16604   4.041   7.850   1.309 -0.3711  0.1746  0.2463
 3191W        W16605   9.971   5.739   0.510 -0.2691  0.3330 -0.0429
 3192W        W16606  12.418  15.635   0.219 -0.2826 -0.1109  0.0646
 3193W        W16607   0.432   6.736   0.871 -0.1432  0.0901  0.0103
 3194W        W16608   9.025   5.194   5.575  0.0062 -0.2318 -0.0985
 3195W        W16609   2.603   9.937   3.847 -0.0677 -0.0580 -0.1650
 3196W        W16610   7.294  11.939  14.111 -0.0371  0.0182  0.0490
 3197W        W16611  14.326  11.294   1.342  0.1933  0.0146 -0.1536
 3198W        W16612   1.449   9.125   5.622  0.1250  0.0024 -0.1223
 3199W        W16613   4.652  12.635   2.823 -0.4197 -0.1841 -0.0884
 3200W        W16614  13.645   3.589  10.096 -0.2575 -0.0737  0.2633
 3201W        W16615  11.534   2.824   3.895 -0.3048  0.1569  0.2209
 3202W        W16616  10.757  17.024  13.797  0.3720  0.1091  0.1313
 3203W        W16617   9.592  10.371   6.821 -0.0733 -0.2605 -0.1175
 3204W        W16618   0.634  16.967   1.411 -0.1920  0.2260 -0.2003
 3205W        W16619   5.450   2.922  16.553 -0.2091  0.1593 -0.0150
 3206W        W16620  11.396   7.761  12.979 -0.0102  0.2800  0.0107
 3207W        W16621  10.095  17.779   3.412  0.0831 -0.0902 -0.0817
 3208W        W16622  17.844   9.114  10.468 -0.2723 -0.0688 -0.3364
 3209W        W16623  16.731   1.154  13.266 -0.2320  0.0335 -0.1816
 3210W        W16624  10.951  17.380  10.792 -0.1707 -0.0804 -0.3234
 3211W        W16625   5.249   8.415   0.368  0.0310 -0.0377 -0.3622
 3212W        W16626   2.919   9.951   0.716  0.0706 -0.0467 -0.1117
 3213W        W16627  10.031  17.523  11.921  0.0144  0.3038  0.1289
 3214W        W16628   4.247   5.466   6.596 -0.0128  0.0811 -0.1211
 3215W        W16629  15.699  16.937   3.484 -0.1885  0.2708  0.0196
 3216W        W16630   3.447  15.007   5.625  0.1682  0.0365  0.0867
 3217W        W16631  13.384   1.215   1.157 -0.2208 -0.1794 -0.0727
 3218W        W16632  16.523   0.850  12.763 -0.2031 -0.1632 -0.1217
 3219W        W16633   1.821  12.308  15.385  0.0884 -0.3080  0.2478
 3220W        W16634   6.599   1.957   4.963  0.0713 -0.1909 -0.0962
 3221W        W16635  16.970   7.533  15.010 -0.3254  0.0113 -0.1013
 3222W        W16636  10.583   5.595  10.383  0.0248  0.0435 -0.2716
 3223W        W16637   5.759   6.664  11.736  0.0256  0.2872  0.2781
 3224W        W16638  17.871  15.467   0.267 -0.1244 -0.0273 -0.0142
 3225W        W16639   1.122   8.240  12.867  0.3339 -0.2061 -0.0213
 3226W        W16640   7.547  10.109  12.083  0.0287  0.1319  0.0957
 3227W        W16641  15.351  17.746  11.872  0.0937 -0.0788 -0.0822
 3228W        W16642  12.443  10.909  10.885  0.0471 -0.0959 -0.0850
 3229W        W16643  17.935   1.055   0.664  0.0256 -0.2996  0.3053
 3230W        W16644   7.843   5.673  16.124 -0.1221  0.0321  0.1042
 3231W        W16645   1.164  14.781  12.015  0.0704 -0.1504  0.0661
 3232W        W16646   1.992   5.150   2.721  0.1882 -0.2352  0.2779
 3233W        W16647  13.464   8.315  14.415 -0.1687  0.2031  0.1184
 3234W        W16648   7.749   2.169   2.359 -0.4519 -0.1762 -0.2189
 3235W        W16649   2.210  10.403   4.455 -0.1688  0.1595 -0.0159
 3236W        W16650  14.264  12.142   2.262  0.0891  0.0881  0.0988
 3237W        W16651   4.555  11.500   2.560  0.1973 -0.1775 -0.2154
 3238W        W16652  10.508   7.603  14.662 -0.1545  0.0611 -0.0367
 3239W        W16653   5.317  10.896   3.811  0.0718  0.3319 -0.2920
 3240W        W16654   8.842   7.483  12.190 -0.0937 -0.2143  0.0493
 3241W        W16655  10.550   9.621   5.388 -0.1246 -0.2139 -0.0564
 3242W        W16656  15.038   0.425  14.516 -0.0348  0.0176  0.0147
 3243W        W16657  17.704   8.713   1.555  0.4546  0.1198 -0.0752
 3244W        W16658  13.874   2.041   6.275  0.2569 -0.2309  0.1310
 3245W        W16659  17.889   4.947   4.243 -0.0479 -0.1433 -0.2332
 3246W        W16660  11.353  13.947   6.131 -0.1981 -0.2983  0.1013
 3247W        W16661  16.406   9.822  16.457 -0.1022 -0.3126 -0.0186
 3248W        W16662  15.198  13.799  11.719  0.0709 -0.1320 -0.0305
 3249W        W16663  10.018   4.348   4.187 -0.0325  0.2437 -0.0336
 3250W        W16664  15.169   1.676  15.847 -0.0020 -0.0125  0.2223
 3251W        W16665  17.326   2.769  14.199 -0.0223  0.0147  0.1510
 3252W        W16666   5.326   3.198  12.833  0.1368  0.2917  0.0225
 3253W        W16667  11.611   1.329   2.947  0.0137 -0.2107  0.1371
 3254W        W16668  11.047   8.575   5.490 -0.0684  0.0473  0.3901
 3255W        W16669   3.272   2.434   0.114  0.0356  0.0068 -0.0138
 3256W        W16670  10.421  17.601   0.483  0.1083  0.3189  0.1369
 3257W        W16671  15.027   8.357  11.305 -0.1939 -0.2699 -0.3062
 3258W        W16672  13.567   9.438  12.463 -0.1006  0.2052 -0.2148
 3259W        W16673   5.760   7.621  13.140 -0.0502 -0.2297  0.0772
 3260W        W16674   5.465   2.410   2.382  0.1453 -0.3355  0.1713
 3261W        W16675  14.120   8.970  15.414  0.1225 -0.0324  0.1190
 3262W        W16676   3.589  15.492   0.816  0.3070  0.2234  0.2907
 3263W        W16677  17.934   4.189  16.512  0.4955 -0.1243 -0.0483
 3264W        W16678   5.242   0.613   2.813 -0.1537 -0.0841  0.1834
 3265W        W16679   9.537   7.821  12.681  0.0707 -0.0756 -0.1445
 3266W        W16680  16.285  12.701  12.952 -0.0968  0.3554  0.2527
 3267W        W16681  14.929  12.991  16.154 -0.0055  0.3181  0.1323
 3268W        W16682  15.775   4.694  11.942  0.1077 -0.1529 -0.2289
 3269W        W16683   3.850   9.397   1.067 -0.0044  0.0286 -0.2089
 3270W        W16684   3.838  13.772   0.977 -0.0740 -0.1191 -0.3465
 3271W        W16685  11.830  12.607   6.910 -0.4220 -0.1886 -0.1750
 3272W        W16686   0.650  10.617  11.232 -0.0913  0.0002 -0.2395
 3273W        W16687   8.776  16.220  12.723 -0.0624 -0.4961  0.0683
 3274W        W16688   9.290  14.942  14.829  0.2274 -0.0357  0.2108
 3275W        W16689  16.704   1.095  11.357  0.3422 -0.0886  0.0131
 3276W        W16690   5.253   7.872   6.371 -0.1190  0.3535  0.0040
 3277W        W16691   0.242   4.901   3.393 -0.1570 -0.0067 -0.0001
 3278W        W16692  10.829   1.591   3.479  0.0904 -0.2490  0.0224
 3279W        W16693   2.873   8.083   5.855 -0.2419  0.4492  0.0045
 3280W        W16694   0.522   7.887   0.975 -0.2288 -0.2741 -0.0101
 3281W        W16695  13.290   4.397  10.284 -0.1153 -0.1497  0.0003
 3282W        W16696  17.715   9.398  15.282 -0.1712 -0.1740  0.0800
 3283W        W16697  11.888   6.986   6.154 -0.1262  0.0210  0.1498
 3284W        W16698  17.950   8.887  11.599  0.1664 -0.1575  0.0531
 3285W        W16699   3.098  14.936  12.522 -0.2642 -0.1045 -0.3025
 3286W        W16700  15.659   8.780  13.877 -0.0568 -0.1489 -0.4461
 3287W        W16701  15.203  17.889   4.532 -0.4063  0.2058  0.5151
 3288W        W16702  14.757  16.933  11.189  0.1314  0.1297  0.1270
 3289W        W16703   9.962   2.508   2.892 -0.0396 -0.1694  0.0189
 3290W        W16704   0.327   9.743  14.920  0.0286  0.0205 -0.2113
 3291W        W16705   9.891  17.491   6.935 -0.0613 -0.0721  0.0251
 3292W        W16706   2.146   0.227   3.404  0.1012  0.0050  0.2862
 3293W        W16707  12.150   7.928  14.376  0.0750 -0.0815 -0.1760
 3294W        W16708  15.229   7.800  14.963  0.1148 -0.2581  0.0184
 3295W        W16709   6.316   0.564   0.199  0.0188 -0.3521 -0.0646
 3296W        W16710   8.472   6.622   5.029 -0.0406  0.3112 -0.1737
 3297W        W16711  12.664   3.591   5.809  0.2928  0.2160 -0.0018
 3298W        W16712  10.199   7.261  11.503  0.1839  0.0255 -0.1334
 3299W        W16713  10.211  16.097  15.909 -0.0640  0.0448 -0.1271
 3300W        W16714  17.859  12.249  12.696 -0.0045  0.0985  0.2155
 3301W        W16715   8.575   5.456  13.829  0.0486  0.3304  0.1162
 3302W        W16716   5.557   3.076  13.468 -0.0563  0.1846 -0.1110
 3303W        W16717   7.461   2.723  13.688 -0.0181 -0.0419  0.1761
 3304W        W16718  11.558   1.948   2.697 -0.0277 -0.0502 -0.1156
 3305W        W16719   5.638   4.860   4.313  0.2213 -0.0094  0.3920
 3306W        W16720   5.734  11.865   4.548 -0.1163 -0.0592 -0.0069
 3307W        W16721   0.830  11.683   2.374  0.1911  0.0794 -0.1643
 3308W        W16722   5.962   0.443   1.868 -0.1231 -0.0365 -0.0218
 3309W        W16723  10.269   8.931   1.893  0.0558  0.1133 -0.2284
 3310W        W16724   8.661   9.622   3.079 -0.0749  0.2942  0.0049
 3311W        W16725   6.852   6.089   2.945 -0.0401  0.1893 -0.0374
 3312W        W16726   1.628   9.244   4.882  0.2236 -0.0553 -0.0846
 3313W        W16727  16.639  11.509   3.047  0.0337 -0.1532  0.0016
 3314W        W16728  15.850   5.159  12.678 -0.0957 -0.2190 -0.2292
 3315W        W16729   1.998  14.383  10.594 -0.1595 -0.0098  0.0753
 3316W        W16730   0.136   2.117   3.229 -0.0749  0.0905  0.0211
 3317W        W16731  12.246   2.997   5.972 -0.0168  0.0869  0.3760
 3318W        W16732  17.928   6.124   2.404  0.0940  0.2378 -0.3132
 3319W        W16733  12.486   8.138   4.522  0.0100  0.0153  0.2869
 3320W        W16734  13.028   5.823  10.671 -0.1269 -0.0738 -0.2718
 3321W        W16735   7.611   0.410   3.658 -0.2660 -0.0815 -0.0048
 3322W        W16736   4.429  17.037  15.525  0.4684 -0.3908  0.1799
 3323W        W16737   4.969  12.638   4.596  0.0259  0.0403 -0.1608
 3324W        W16738   1.515   7.937   1.274  0.0630  0.1733 -0.2092
 3325W        W16739  13.315   7.567   3.786  0.1189 -0.0664  0.0892
 3326W        W16740  15.129  13.887  10.438  0.1026 -0.0518  0.4660
 3327W        W16741   8.749  11.453  14.135 -0.0410  0.1089  0.0272
 3328W        W16742   1.199   7.862  12.547 -0.0643  0.0003 -0.1942
 3329W        W16743   0.839  17.734  12.809  0.2097 -0.0160  0.3273
 3330W        W16744  10.086  12.649   6.283 -0.0389 -0.0698 -0.4001
 3331W        W16745   1.852   2.098   4.964  0.0460  0.1719 -0.0317
 3332W        W16746   3.624  17.889  14.941 -0.0981  0.0160  0.0915
 3333W        W16747  15.980  11.220   1.360  0.2695  0.0483 -0.0550
 3334W        W16748   9.622   8.192  14.552 -0.1948  0.1584  0.1079
 3335W        W16749   7.295  16.153   0.121 -0.0857 -0.0167  0.1495
 3336W        W16750   6.731  17.443  16.092  0.1337 -0.0437 -0.1434
 3337W        W16751   7.465   5.823  12.664  0.2374  0.0516  0.0261
 3338W        W16752  10.088  16.576   0.337  0.2588 -0.2230 -0.1297
 3339W        W16753   4.618  10.887  11.535 -0.1693 -0.0264 -0.1820
 3340W        W16754   0.410   3.362   4.245 -0.0685 -0.0433 -0.2552
 3341W        W16755  12.077  16.887  14.286 -0.0925 -0.2405  0.3668
 3342W        W16756  11.658  16.502  13.915 -0.2545 -0.2276  0.1680
 3343W        W16757  11.795   2.785   5.279 -0.1411 -0.0599 -0.0806
 3344W        W16758  17.169   3.109   4.541  0.0031 -0.1395  0.1644
 3345W        W16759  11.114  17.606   1.827  0.1210 -0.0090  0.2291
 3346W        W16760  12.257  12.679  14.366  0.0556 -0.0557 -0.0473
 3347W        W16761   7.200   7.337  14.652  0.1777  0.1611 -0.0078
 3348W        W16762  12.900  11.609   0.034 -0.1494 -0.1272 -0.1601
 3349W        W16763   5.648   5.570  13.903  0.0552  0.1513  0.3238
 3350W        W16764   2.084   1.941   5.482 -0.0977 -0.1979 -0.0672
 3351W        W16765   6.354   4.854  13.908  0.0522  0.5075 -0.3270
 3352W        W16766   5.447   3.603  13.484 -0.0924  0.2105  0.2140
 3353W        W16767  13.870  11.495   3.982  0.0305  0.1583 -0.3056
 3354W        W16768  10.370  15.655   5.849 -0.0242  0.0665 -0.0409
 3355W        W16769   8.257   0.275  14.045  0.0633 -0.2302  0.2869
 3356W        W16770   2.685   7.207  13.223 -0.0550  0.0062 -0.0372
 3357W        W16771  17.434   2.743  15.722 -0.1045  0.1907  0.0114
 3358W        W16772  14.719  11.233  12.960  0.1489  0.0116 -0.0617
 3359W        W16773   7.767  10.829  12.854 -0.0847  0.3033 -0.1147
 3360W        W16774  10.817   7.119  12.822 -0.1728 -0.0851  0.0825
 3361W        W16775   7.605   4.170  14.025 -0.2058 -0.1200 -0.0959
 3362W        W16776   9.025  13.886  16.252  0.2781 -0.1590 -0.0303
 3363W        W16777  10.626  17.233   2.543  0.2105  0.0169 -0.0065
 3364W        W16778  14.981  13.543   5.355  0.2123 -0.4937 -0.4230
 3365W        W16779  13.569  11.355   2.958  0.2104 -0.3165  0.0097
 3366W        W16780  17.419  11.447   3.100 -0.0517  0.1509  0.0708
 3367W        W16781  11.303  17.570  13.269 -0.3235 -0.0374  0.4598
 3368W        W16782  14.617   4.548   6.241 -0.1220 -0.1623  0.0933
 3369W        W16783  13.062   5.058   0.559  0.0927 -0.2065  0.1511
 3370W        W16784  11.530   1.435  12.223  0.2646 -0.0014  0.0724
 3371W        W16785   9.319   8.997  11.226  0.1519 -0.4045 -0.0595
 3372W        W16786  14.637   9.893   1.631 -0.0781  0.2651 -0.0261
 3373W        W16787   7.397   0.639  12.558 -0.2543  0.1892 -0.0512
 3374W        W16788   9.349   7.750   2.908  0.1102  0.0475  0.0194
 3375W        W16789   7.938   7.331  15.325 -0.0476  0.1131  0.1170
 3376W        W16790   7.861  15.268   4.040  0.0718 -0.0102  0.1253
 3377W        W16791  11.336   6.876  15.588  0.0619  0.1761 -0.2045
 3378W        W16792  17.855  11.800   2.471  0.0321 -0.0416  0.1151
 3379W        W16793  11.709   0.099  12.134 -0.0633  0.0607 -0.0726
 3380W        W16794   4.627   0.425  10.488 -0.1305  0.1566  0.1429
 3381W        W16795  13.704  13.636   6.708  0.1045  0.1571 -0.3911
 3382W        W16796   8.306  11.247   4.857  0.1871  0.0835 -0.1324
 3383W        W16797  16.975   2.341   1.578  0.1492  0.0477 -0.0204
 3384W        W16798   8.095   3.462   1.956  0.1575  0.1071  0.2728
 3385W        W16799   2.708   5.754   4.730 -0.0302  0.0572 -0.2314
 3386W        W16800  14.362   1.088   3.052 -0.1685 -0.1605 -0.0100
 3387W        W16801  11.899  12.480   5.563  0.0284  0.2705 -0.0327
 3388W        W16802   9.229   9.732  12.660 -0.3009 -0.1775 -0.2014
 3389W        W16803   8.239   9.261   6.558 -0.0123  0.2416  0.2716
 3390W        W16804   5.439   7.889  14.885 -0.2520  0.4277  0.1688
 3391W        W16805  11.129  16.218  16.281 -0.1319 -0.2341  0.1712
 3392W        W16806  10.182   2.570   4.474  0.2319  0.3375  0.1031
 3393W        W16807  14.469  15.856  13.417  0.2231 -0.2650  0.2658
 3394W        W16808   2.219  15.424   0.406  0.0487  0.0912 -0.1021
 3395W        W16809   5.133   7.083   0.413 -0.1422 -0.2138  0.0604
 3396W        W16810  11.614   2.412  16.384 -0.0422 -0.3034 -0.0437
 3397W        W16811   2.784  17.930   1.539 -0.2068  0.2386  0.0799
 3398W        W16812  15.698  12.737   3.436 -0.2314 -0.1525 -0.0695
 3399W        W16813   8.876  17.898  13.685  0.1504 -0.1909  0.3803
 3400W        W16814  11.485   8.792   2.730 -0.1904 -0.1038  0.0047
 3401W        W16815  17.238  10.015   1.063  0.2606 -0.0366  0.0344
 3402W        W16816  10.670  16.946  12.825 -0.0408  0.3157  0.1780
 3403W        W16817   2.842   7.157  15.428  0.0895 -0.0072 -0.2315
 3404W        W16818  15.535   1.649  16.388 -0.0784  0.0534  0.1972
 3405W        W16819   6.533   7.681  13.375 -0.1112 -0.1847  0.2735
 3406W        W16820   6.239  12.416   3.958  0.1487  0.0218  0.0549
 3407W        W16821   7.602   5.009   4.077  0.1329 -0.1421  0.1026
 3408W        W16822  17.065   7.149  15.886  0.1540  0.0620 -0.0187
 3409W        W16823   2.893   6.817   1.183 -0.0636  0.1265 -0.2447
 3410W        W16824   7.054   9.842   4.588  0.3398  0.2203  0.0933
 3411W        W16825   5.563  17.586  14.807 -0.1095 -0.0046 -0.3460
 3412W        W16826   9.386   1.510  15.364 -0.3932 -0.0374 -0.1238
 3413W        W16827   2.471  15.513  11.204  0.0332 -0.1374 -0.0446
 3414W        W16828   1.040  16.256  10.450  0.0748  0.1589  0.2261
 3415W        W16829   0.162   0.797   1.347 -0.0598 -0.3233 -0.2074
 3416W        W16830   5.499   9.031  11.407 -0.2349  0.1245 -0.0301
 3417W        W16831  14.569  13.245   0.248 -0.0763 -0.0734 -0.0977
 3418W        W16832  13.174   6.469  14.535  0.0212  0.2437  0.1679
 3419W        W16833   2.059  14.109  13.793 -0.1342 -0.1143  0.0710
 3420W        W16834  16.180  15.179   5.219  0.4051  0.0275  0.0891
 3421W        W16835  15.733  17.858   3.984 -0.1154  0.0963  0.0570
 3422W        W16836  11.130  10.908   2.241 -0.0292  0.0535 -0.0236
 3423W        W16837   1.152  14.153  12.631  0.0463 -0.0773  0.3217
 3424W        W16838  15.760   6.003  13.407  0.1169 -0.0180 -0.1722
 3425W        W16839  14.528  10.915   2.528 -0.0002  0.0774 -0.1687
 3426W        W16840  17.050  15.090  11.159  0.0838 -0.0182 -0.1532
 3427W        W16841  16.187  17.091  11.815 -0.1339 -0.0164  0.4208
 3428W        W16842  16.174   8.795   5.794  0.0353  0.1624 -0.1396
 3429W        W16843  17.250  14.731  16.681  0.0482 -0.2067 -0.1207
 3430W        W16844   7.364  16.309  15.599  0.1722  0.0465 -0.1023
 3431W        W16845   7.211  15.321   5.776 -0.2836 -0.2453 -0.0148
 3432W        W16846  12.496  17.324   0.230 -0.1236  0.1002  0.2077
 3433W        W16847   7.907   0.887  11.210 -0.2890  0.1272  0.1057
 3434W        W16848   8.308   0.223  16.629  0.0399  0.0792  0.0052
 3435W        W16849   9.453  10.636  11.945 -0.1318 -0.0097 -0.0232
 3436W        W16850  16.759  15.934  12.254 -0.1416 -0.1247  0.0245
 3437W        W16851   0.601  16.107  16.145  0.1321  0.1033  0.0615
 3438W        W16852   9.605  15.309  15.308  0.2607 -0.1474  0.2729
 3439W        W16853   3.326   9.540   3.687  0.0568  0.1192 -0.0279
 3440W        W16854   6.456  17.558  11.657  0.0855 -0.0576  0.1299
 3441W        W16855   2.767   1.283   1.156  0.1356  0.1775 -0.0744
 3442W        W16856   2.122  17.428   0.021 -0.1274 -0.1071 -0.1133
 3443W        W16857  12.405   1.110   0.342 -0.0432  0.3465 -0.0872
 3444W        W16858  14.955  13.748   3.633  0.2800  0.1844  0.1030
 3445W        W16859  17.219   7.909   0.732  0.0045 -0.4291  0.0082
 3446W        W16860  16.139  11.708   3.253 -0.0353  0.4264  0.2625
 3447W        W16861   8.611   1.330  14.090 -0.2150 -0.2048  0.1692
 3448W        W16862   6.756   2.437  10.228 -0.0860  0.0959  0.2350
 3449W        W16863  14.272  11.880   3.103  0.0447  0.3577 -0.1115
 3450W        W16864  16.049  10.282   0.471 -0.1159 -0.1759 -0.2285
 3451W        W16865   1.823  15.990   4.421 -0.0626 -0.0100 -0.0335
 3452W        W16866   1.171  16.132   2.464  0.1519 -0.0970  0.1261
 3453W        W16867   5.319  16.769   2.161 -0.2330  0.3030  0.2009
 3454W        W16868  16.425   0.486   0.678  0.2850 -0.3314 -0.3359
 3455W        W16869  17.303  11.203   0.273  0.0375  0.3024 -0.1935
 3456W        W16870   1.372  10.238  15.867 -0.1044 -0.1441  0.0445
 3457W        W16871   0.903   1.826   3.353  0.1646 -0.2045  0.1715
 3458W        W16872  13.092   0.119  13.236  0.2307 -0.0253  0.0452
 3459W        W16873   1.068  10.855   4.678 -0.0576  0.0617 -0.1609
 3460W        W16874  12.250   7.945  13.177  0.0085  0.3180 -0.0370
 3461W        W16875  15.852  15.513  12.671  0.2262  0.1589 -0.0214
 3462W        W16876   7.869   6.658   4.953  0.2074  0.2276 -0.0508
 3463W        W16877   7.469  16.039   1.967  0.0705 -0.1149  0.1351
 3464W        W16878  15.460   1.783  13.079  0.0256  0.1271  0.2269
 3465W        W16879   6.623  17.320   1.594 -0.0313  0.1422 -0.0052
 3466W        W16880  11.431  16.914   4.268 -0.1805  0.0471  0.0691
 3467W        W16881   8.316   8.869   0.621 -0.0468 -0.3267  0.0784
 3468W        W16882   2.057   4.714  13.435 -0.1130  0.2029 -0.1834
 3469W        W16883   2.132  14.728  14.870  0.2160 -0.1500  0.3225
 3470W        W16884  16.962   1.395   2.819  0.1465  0.0584  0.1315
 3471W        W16885   2.188  11.270  13.240  0.1009 -0.0385  0.0641
 3472W        W16886   5.580  13.183  16.355 -0.1733 -0.0294 -0.1454
 3473W        W16887   8.749  10.890   3.150 -0.0461  0.1713  0.3091
 3474W        W16888   7.365   7.651  16.683 -0.3218 -0.1051  0.1933
 3475W        W16889  14.945   6.988  11.502 -0.1788 -0.1851  0.0654
 3476W        W16890  17.219   1.734  14.235 -0.1073 -0.3725 -0.2126
 3477W        W16891   1.506  10.193   2.842  0.2497 -0.2114 -0.0986
 3478W        W16892   9.518   2.647   2.742  0.4050 -0.3922 -0.3040
 3479W        W16893   9.514  13.427   1.087  0.2133 -0.0535  0.0964
 3480W        W16894   8.554   2.871   2.798 -0.1241 -0.1063 -0.3900
 3481W        W16895  11.991   7.726  13.826  0.0386 -0.1576 -0.0557
 3482W        W16896   6.181  17.573   2.509 -0.0378  0.1258  0.0539
 3483W        W16897   0.162   0.913  12.059 -0.0671  0.0321  0.0356
 3484W        W16898   2.699   2.031  10.500  0.1250  0.0680  0.1844
 3485W        W16899  16.003  13.946  11.491  0.0496 -0.1263 -0.1952
 3486W        W16900   9.999  16.153   3.870  0.2314  0.2026 -0.0539
 3487W        W16901  16.292   8.646  10.421  0.0132 -0.0390 -0.2085
 3488W        W16902   8.184   7.283  11.560 -0.0875 -0.0500 -0.2745
 3489W        W16903   0.611   3.525  13.512  0.1832 -0.0489 -0.0059
 3490W        W16904   3.041  17.471   1.591 -0.3685 -0.0200 -0.0297
 3491W        W16905  10.218   2.779   2.097 -0.2094 -0.1552 -0.0000
 3492W        W16906   9.367   6.411  11.162  0.1339  0.1131 -0.2856
 3493W        W16907   9.451   3.026   0.344 -0.1768  0.2041  0.3142
 3494W        W16908   1.111  13.595  15.410  0.2124  0.0739 -0.1906
 3495W        W16909   1.406   4.900  11.673 -0.0270 -0.1456  0.0957
 3496W        W16910   3.916  11.278   4.795  0.0765 -0.0442 -0.0268
 3497W        W16911  16.856   1.881  15.418 -0.0274  0.0244 -0.0633
 3498W        W16912   2.401   3.317  16.546 -0.3344 -0.0250  0.1648
 3499W        W16913   8.699  10.859   1.966 -0.0573  0.1066 -0.0311
 3500W        W16914  11.669   0.811  16.614 -0.4230 -0.1089 -0.0913
 3501W        W16915   2.917   9.172   2.939 -0.3169  0.0090 -0.0112
 3502W        W16916  12.504  13.119  15.784  0.0158  0.0324 -0.1315
 3503W        W16917  17.197  14.046   3.636  0.0671  0.1013 -0.0753
 3504W        W16918  13.108  17.164   6.341 -0.2065 -0.3574 -0.1452
 3505W        W16919   3.707   3.345   1.180 -0.0253  0.2071  0.2664
 3506W        W16920  13.042   4.950   1.673  0.1080 -0.0129  0.0335
 3507W        W16921   8.383  16.667   2.917 -0.0657 -0.2296  0.1343
 3508W        W16922  14.079   5.758  10.579 -0.1857  0.0531  0.1331
 3509W        W16923   6.211   0.365  16.361  0.1040  0.2296  0.3471
 3510W        W16924   3.207   7.700  13.592 -0.0274 -0.0769 -0.3154
 3511W        W16925  14.379  11.537  13.147 -0.0432  0.1720 -0.0434
 3512W        W16926   6.882   5.080   2.961 -0.0063  0.1284  0.1175
 3513W        W16927  17.892  15.612   5.481 -0.1049 -0.1063 -0.3854
 3514W        W16928   0.989   2.517  14.290 -0.2287  0.0816 -0.1355
 3515W        W16929  15.291   6.634   5.459 -0.1294 -0.2227 -0.0713
 3516W        W16930  12.878   1.807   6.143  0.2804  0.0214  0.0185
 3517W        W16931  14.485  17.513  11.804  0.2671 -0.2863 -0.1887
 3518W        W16932   0.322   6.008  10.747 -0.0668 -0.4770  0.2339
 3519W        W16933   9.530  12.718   2.946  0.1991  0.2354 -0.1731
 3520W        W16934  12.305   7.568  14.979 -0.1547 -0.3302 -0.0690
 3521W        W16935  14.624   3.141   3.951  0.0027 -0.1782  0.2414
 3522W        W16936   4.033   1.666   5.463 -0.2527  0.0342  0.2514
 3523W        W16937  10.386   0.208   1.284  0.1348  0.0778 -0.1203
 3524W        W16938  13.120   2.745  11.130  0.2500 -0.1606  0.2589
 3525W        W16939  11.624   4.482   5.047 -0.2084  0.0426  0.1141
 3526W        W16940   9.816   9.871  12.603 -0.0777  0.0891 -0.1574
 3527W        W16941  17.430   4.128   2.684 -0.2591  0.3698 -0.1593
 3528W        W16942  11.532  17.305   0.485 -0.1157 -0.0454  0.1228
 3529W        W16943   5.752  16.881   5.501  0.1735 -0.0409 -0.1846
 3530W        W16944  11.393   2.559   5.096  0.0494  0.2127 -0.0767
 3531W        W16945  16.038  10.273  11.475 -0.1163 -0.0108 -0.1191
 3532W        W16946   2.104   3.575  13.849  0.0658 -0.1205 -0.1239
 3533W        W16947   7.259   0.127  12.007 -0.0066  0.3817  0.2624
 3534W        W16948  14.726   5.681   3.094  0.1085 -0.0749  0.0234
 3535W        W16949   0.237   8.616   1.604 -0.3815 -0.1227  0.2706
 3536W        W16950   6.434   9.643   2.165  0.0953 -0.1031  0.5208
 3537W        W16951   2.938  11.964  10.346  0.1191  0.1756 -0.1352
 3538W        W16952   8.083   9.705   3.618  0.1395  0.3561 -0.0747
 3539W        W16953  13.929   3.670  14.246  0.0949  0.1132 -0.1088
 3540W        W16954   4.684  15.541  16.483  0.1762 -0.0593 -0.0487
 3541W        W16955  11.895   6.868  15.088 -0.0206 -0.0297  0.0088
 3542W        W16956   9.332  13.130   5.468  0.0141  0.1952  0.2009
 3543W        W16957  17.357   7.536   5.292  0.0830 -0.1732  0.0914
 3544W        W16958  17.237   3.139  16.584 -0.0452 -0.0416  0.0800
 3545W        W16959  10.090  12.448  15.853  0.2855  0.1082 -0.2293
 3546W        W16960  11.255   8.291   2.571 -0.1138 -0.1198  0.4425
 3547W        W16961   6.239  11.834   2.861 -0.4396 -0.3066 -0.4090
 3548W        W16962   2.010   6.713  12.577 -0.5531 -0.0490  0.1691
 3549W        W16963   5.298   7.621   0.430 -0.2130 -0.0068 -0.0460
 3550W        W16964  14.615  15.361  14.030 -0.1917  0.2129 -0.2738
 3551W        W16965   2.789  11.517   1.916 -0.0602  0.1372  0.2579
 3552W        W16966   8.606   2.350   2.801 -0.0147  0.1332 -0.0270
 3553W        W16967   1.276   3.845   2.210 -0.2083  0.3907 -0.2290
 3554W        W16968  11.929  14.499   4.964 -0.0786  0.2547 -0.0513
 3555W        W16969  15.861   2.443   3.972 -0.0928 -0.0388 -0.1056
 3556W        W16970  12.573  16.488   0.124 -0.2608  0.0748 -0.1235
 3557W        W16971  10.489   0.284   5.849  0.0275 -0.4380 -0.2061
 3558W        W16972   8.814   4.510   1.810 -0.1484  0.0782  0.0224
 3559W        W16973   7.550   7.734  14.917 -0.0587  0.0126 -0.0325
 3560W        W16974  13.153  15.974   1.837  0.1151  0.0171  0.2082
 3561W        W16975   6.814   9.974  14.639 -0.0106 -0.1095  0.1626
 3562W        W16976   7.994   1.036  15.747 -0.0338  0.2861  0.1523
 3563W        W16977  17.154  13.594   1.468  0.1257  0.0975 -0.0928
 3564W        W16978  13.201   8.198   3.152  0.1383 -0.0129 -0.1585
 3565W        W16979  14.627  11.899  15.248  0.2249 -0.0675 -0.4614
 3566W        W16980   3.578   5.577  14.722  0.0949 -0.0526  0.1479
 3567W        W16981  14.327   1.199  12.408 -0.0307  0.1411  0.0381
 3568W        W16982  11.611  16.106  11.055 -0.0642 -0.1109  0.2216
 3569W        W16983  15.385  16.469  13.616 -0.1417  0.0204  0.1539
 3570W        W16984  17.889   4.545   5.649 -0.1994 -0.0685  0.0992
 3571W        W16985  12.512   1.859  12.047 -0.0812 -0.1187 -0.2250
 3572W        W16986   5.964   8.180  14.968 -0.1724  0.0681 -0.2957
 3573W        W16987   3.639  11.668   2.031  0.4463 -0.1877  0.3604
 3574W        W16988  15.077   6.301  13.702 -0.0492  0.0926  0.0778
 3575W        W16989   3.179   2.791  10.857  0.1303  0.1542  0.0139
 3576W        W16990   3.902  10.664   3.644  0.3446  0.0696 -0.0411
 3577W        W16991  14.736   0.991  15.404  0.0886 -0.2626 -0.0818
 3578W        W16992  10.011   1.054   4.821  0.0671  0.0214 -0.1352
 3579W        W16993   0.693  12.195  15.579 -0.4115 -0.0472  0.0119
 3580W        W16994   3.438  15.014   1.324  0.0936  0.1424 -0.2720
 3581W        W16995   2.134   4.816  11.128  0.0502  0.2911 -0.5604
 3582W        W16996   8.428  12.509   2.559 -0.1641 -0.0027  0.0230
 3583W        W16997  13.581  16.956   2.509  0.2478  0.0507 -0.0766
 3584W        W16998  12.550  16.648   2.284 -0.2389  0.2620  0.0968
 3585W        W16999  11.235  17.640   3.677 -0.0677 -0.2429 -0.0348
 3586W        W17000   9.218  14.227  16.653  0.0985  0.2123 -0.1988
 3587W        W17001  15.904  17.231   2.446  0.5938 -0.1941 -0.0746
 3588W        W17002  15.646   9.300  10.516 -0.1666  0.0448 -0.0432
 3589W        W17003  14.928   2.251  14.178  0.2775 -0.1707  0.0296
 3590W        W17004   3.034   6.667  15.436  0.1547 -0.1184  0.4301
 3591W        W17005  10.634   6.466  14.592  0.3004  0.4200 -0.1286
 3592W        W17006   9.231   4.830   2.654  0.2265  0.0720  0.0093
 3593W        W17007   9.852   9.219   5.819  0.1847 -0.3987  0.1304
 3594W        W17008   7.749  17.158  16.562  0.0122 -0.3654 -0.0555
 3595W        W17009  13.870   4.361  11.469  0.2259 -0.2448  0.0652
 3596W        W17010   2.807  15.079   9.961 -0.0692 -0.0731 -0.0791
 3597W        W17011  17.252   9.693   5.436  0.2385 -0.2803  0.0011
 3598W        W17012  15.695  10.030   4.417  0.0779  0.2469  0.1310
 3599W        W17013  14.364   9.219   7.161  0.1174 -0.0589  0.0698
 3600W        W17014   8.278   6.436  10.801  0.1400 -0.0101 -0.0708
 3601W        W17015   7.909  17.179  12.441 -0.0555  0.2137  0.0022
 3602W        W17016   3.182  13.825   1.887  0.0589 -0.0104 -0.0001
 3603W        W17017   6.512  15.899   2.137  0.3416  0.3333 -0.0477
 3604W        W17018   1.828   4.985  15.383 -0.2628 -0.3435 -0.0369
 3605W        W17019   4.238  17.747   4.499 -0.0039 -0.2837 -0.2569
 3606W        W17020  13.637   4.363  16.131 -0.1765 -0.1663  0.3735
 3607W        W17021   8.224   4.398  10.654 -0.3396  0.1222  0.1715
 3608W        W17022   3.060  17.326   3.642  0.0075  0.0573 -0.0202
 3609W        W17023  14.466  14.870  15.113  0.0359  0.1317  0.0203
 3610W        W17024  12.300  17.959   0.682 -0.1323 -0.0400  0.0598
 3611W        W17025  14.651   6.746  11.895  0.0998  0.0470 -0.0665
 3612W        W17026   8.795   0.435  12.383  0.2123 -0.3271  0.0876
 3613W        W17027  13.540   0.739   4.818  0.1824 -0.0529  0.1595
 3614W        W17028   4.318  17.259  10.194 -0.0800  0.2607  0.1524
 3615W        W17029  10.467  15.362   4.714  0.1070 -0.3186  0.0294
 3616W        W17030  10.220   3.606   3.594  0.0438  0.1688  0.2122
 3617W        W17031  17.645  17.009   1.116 -0.1272 -0.2910 -0.2423
 3618W        W17032   8.175   0.971  11.965 -0.0295  0.1217 -0.0463
 3619W        W17033   8.638  14.315   0.593  0.0817  0.0751  0.0409
 3620W        W17034   5.588   7.209  14.892  0.0872  0.0316  0.3295
 3621W        W17035   8.973  16.490  12.227 -0.2533 -0.3099 -0.1151
 3622W        W17036   7.930   2.422  10.986  0.3278 -0.0092  0.2179
 3623W        W17037   9.069   2.768  11.666 -0.2290  0.0424  0.1372
 3624W        W17038   9.305  15.351  14.433 -0.1538 -0.2226 -0.1269
 3625W        W17039   8.530   3.337  14.555  0.0821 -0.0087 -0.0835
 3626W        W17040  15.150   5.104   1.687 -0.4246  0.0635  0.0206
 3627W        W17041   2.547  13.480   0.756 -0.2371 -0.1639 -0.0287
 3628W        W17042  11.303   1.995  12.249  0.0929  0.1576 -0.0570
 3629W        W17043   3.628  14.142   3.692  0.0200 -0.2605 -0.1232
 3630W        W17044  12.812  10.127   5.958  0.1717 -0.0801  0.4840
 3631W        W17045  10.997  16.202   3.173 -0.3327 -0.0018  0.1264
 3632W        W17046  17.369   7.811  16.662 -0.1392  0.1497  0.2243
 3633W        W17047   4.006  17.417  13.438  0.2240  0.1950 -0.0149
 3634W        W17048  17.449   7.029   0.520 -0.0093 -0.0199 -0.0825
 3635W        W17049  17.713  16.009   0.054 -0.1501  0.0520  0.2536
 3636W        W17050   3.958  11.663  16.673  0.0334 -0.2424  0.3375
 3637W        W17051   9.134   8.609   5.686 -0.2310 -0.1270 -0.1604
 3638W        W17052   9.314   6.713  14.277  0.3957  0.3262 -0.1909
 3639W        W17053   3.711  10.114   0.537  0.0173  0.0596 -0.0305
 3640W        W17054   0.515  13.025   2.413 -0.1514  0.1183  0.1926
 3641W        W17055  10.925   5.006   5.376  0.1507 -0.0863 -0.2933
 3642W        W17056  12.683  11.319  15.280 -0.2277  0.0894 -0.0422
 3643W        W17057  15.524   3.776  16.407 -0.1244  0.2714  0.5462
 3644W        W17058   9.816  11.999  15.891  0.1236  0.1328  0.0472
 3645W        W17059   7.508  10.809   3.340  0.2435  0.1234  0.1936
 3646W        W17060   3.623   6.848  16.318 -0.0663  0.3329 -0.3968
 3647W        W17061   0.920  16.145   0.824  0.2099  0.0660 -0.1110
 3648W        W17062  11.755  17.036  13.856 -0.0716  0.0588 -0.0454
 3649W        W17063  13.038   6.941  13.417 -0.1942 -0.0639  0.1346
 3650W        W17064   1.031  11.751  16.700 -0.2408 -0.0010 -0.0297
 3651W        W17065   5.641   5.185  14.240  0.1458 -0.0434 -0.1981
 3652W        W17066   2.169  12.428  11.508 -0.0264  0.2157  0.2154
 3653W        W17067   0.729   3.693   1.494  0.0244  0.2493  0.1448
 3654W        W17068  15.093   7.224   1.953 -0.0035 -0.2635  0.0377
 3655W        W17069   3.445  11.120  11.739 -0.3882  0.0397 -0.1420
 3656W        W17070   8.589   0.787  14.562  0.2092 -0.4112 -0.1533
 3657W        W17071   5.357   4.531   2.640 -0.0733 -0.0686  0.3890
 3658W        W17072   0.248   2.715   0.826 -0.3483  0.0925 -0.5402
 3659W        W17073  10.833  10.235   4.700 -0.0907  0.1134 -0.1312
 3660W        W17074   0.255   5.383   4.547 -0.3310  0.1984 -0.1653
 3661W        W17075  11.508   8.726  11.525  0.1986  0.1282  0.1137
 3662W        W17076  17.118  10.279  15.944 -0.1337  0.0777  0.1474
 3663W        W17077   2.617   7.570   1.021 -0.2730 -0.1446 -0.1252
 3664W        W17078   0.832   2.817   3.067 -0.0804  0.1148  0.0857
 3665W        W17079   2.715   3.148  10.150 -0.1426  0.4773 -0.0094
 3666W        W17080  10.048   4.795   1.966 -0.3061  0.0368  0.2318
 3667W        W17081   3.710   3.832  13.647 -0.1389  0.1248 -0.0154
 3668W        W17082   3.352   1.066   3.430  0.1123  0.2152 -0.2470
 3669W        W17083  16.411   4.758  10.385  0.0770 -0.4220  0.0050
 3670W        W17084   6.564  15.804  10.998 -0.0468 -0.0216 -0.0588
 3671W        W17085   4.991   8.292   4.081 -0.1549  0.0873 -0.1445
 3672W        W17086   9.643   5.960   5.163 -0.1797 -0.1068 -0.0665
 3673W        W17087   5.583  17.184   4.813  0.0174  0.1525  0.1630
 3674W        W17088   5.079   2.202   1.506  0.2379 -0.2579  0.3819
 3675W        W17089   5.888   4.635  14.051 -0.0456 -0.0108  0.0889
 3676W        W17090  11.860  12.896  15.227  0.0942  0.2441  0.2165
 3677W        W17091  12.929  17.364  16.402  0.1143  0.1308 -0.1536
 3678W        W17092  11.018  10.368  15.047  0.3084 -0.1521  0.2511
 3679W        W17093  17.850  10.104  11.430  0.2471  0.0735 -0.0206
 3680W        W17094   2.393  15.084  13.687 -0.0410  0.0579  0.1346
 3681W        W17095  13.643  13.167  14.982 -0.1364 -0.0435  0.3280
 3682W        W17096  16.615   7.642  12.021  0.1652 -0.0872 -0.1901
 3683W        W17097  11.831  17.856  10.385 -0.2900  0.0009 -0.2517
 3684W        W17098  14.564  16.492  16.416  0.1591  0.4064 -0.1265
 3685W        W17099   5.786  16.957  11.420  0.0039 -0.2934 -0.2025
 3686W        W17100  14.031   2.842  11.223  0.1335  0.4332  0.0055
 3687W        W17101  17.722   3.192  16.555  0.2269 -0.2976 -0.3254
 3688W        W17102  13.734   3.597   3.886  0.0085 -0.1794 -0.0942
 3689W        W17103  11.120  12.692   2.728  0.2448  0.1339  0.3312
 3690W        W17104  10.632   0.850  12.839  0.1511  0.0047 -0.1024
 3691W        W17105   6.203   7.391  15.885  0.0939 -0.2378 -0.1815
 3692W        W17106  11.423  10.465  12.989  0.1514 -0.3807  0.2626
 3693W        W17107  12.310   5.435  15.368 -0.0041 -0.0101 -0.0700
 3694W        W17108   2.329  15.461  14.443  0.1766  0.2713  0.0363
 3695W        W17109   2.640  11.697   1.096  0.0457 -0.1122  0.2005
 3696W        W17110  14.028   0.681   6.052  0.0887  0.1120  0.1335
 3697W        W17111  16.113   1.704   5.885  0.0772 -0.1671 -0.4763
 3698W        W17112   0.398   0.234  14.994 -0.3039 -0.1355  0.0187
 3699W        W17113  10.225   2.900  11.615  0.0866  0.1922 -0.1044
 3700W        W17114  10.112  16.645   4.240 -0.1856  0.0174 -0.1359
 3701W        W17115  17.523   1.363   0.885  0.0330 -0.2753 -0.2173
 3702W        W17116   4.637  14.529  13.153 -0.0411  0.0815  0.0777
 3703W        W17117   1.044  12.058  16.312  0.4613  0.3486  0.0536
 3704W        W17118  12.282  15.750  16.064 -0.2263 -0.1163  0.1292
 3705W        W17119   8.136   3.128   0.467 -0.2134 -0.0084  0.1630
 3706W        W17120   1.168   1.836  10.816 -0.2308  0.0510  0.1179
 3707W        W17121   9.536  15.362  11.998  0.1435 -0.2252 -0.2790
 3708W        W17122  11.251   1.536  15.577 -0.1272 -0.0260  0.1491
 3709W        W17123  17.896   4.574  13.241  0.4175  0.1705 -0.1347
 3710W        W17124  11.684   1.017  13.747 -0.0037 -0.0254 -0.1663
 3711W        W17125  11.035  17.556  13.640  0.1249  0.0217 -0.1256
 3712W        W17126   8.183  16.221  13.420  0.0189  0.2202  0.2235
 3713W        W17127   4.349  13.596  16.139 -0.0750 -0.0181  0.2788
 3714W        W17128  15.649   7.515  14.394  0.1366 -0.2385  0.0877
 3715W        W17129  13.917   5.725  14.022  0.0161  0.2187 -0.2580
 3716W        W17130   3.668  14.555  12.715  0.0623 -0.1683  0.1060
 3717W        W17131   0.090   7.834  12.177  0.1630 -0.1301 -0.3093
 3718W        W17132   4.350   7.524   3.097 -0.1098  0.0334  0.0887
 3719W        W17133   8.616  13.680  12.646  0.2861  0.0216  0.0064
 3720W        W17134   4.537   4.150  13.628  0.0268  0.1587  0.3521
 3721W        W17135  14.540   1.840  11.584  0.1270  0.0724 -0.3768
 3722W        W17136   5.362   3.236   0.676  0.2163  0.0178 -0.0908
 3723W        W17137  13.515   7.826   5.564  0.0799 -0.2161 -0.0281
 3724W        W17138   6.926   9.901  13.130  0.1758 -0.5746 -0.1430
 3725W        W17139  16.822  13.474   1.831 -0.0045 -0.1821 -0.0982
 3726W        W17140  16.177  11.649  11.542  0.1240  0.1548 -0.2165
 3727W        W17141  14.499   8.804  12.473 -0.0932  0.2134  0.0381
 3728W        W17142   5.156   3.320  11.614  0.0936 -0.2243 -0.0097
 3729W        W17143   1.258   0.129  11.338  0.0496  0.0904 -0.0308
 3730W        W17144   9.034  14.176   2.984  0.2681  0.2439  0.1712
 3731W        W17145  16.546  12.643   6.470 -0.0612 -0.1597 -0.0798
 3732W        W17146  14.314  13.558  13.259 -0.1626  0.1767 -0.0405
 3733W        W17147  15.915  10.949   1.852 -0.2205  0.1429 -0.2039
 3734W        W17148  11.568  13.528   3.328  0.1086  0.0881 -0.0461
 3735W        W17149  11.880  11.555   2.218 -0.1630 -0.0122  0.3088
 3736W        W17150  11.851   4.926   1.358  0.0469 -0.0105  0.0871
 3737W        W17151  10.818  16.194  13.244  0.2377  0.1233  0.1926
 3738W        W17152  17.094   5.405   4.209 -0.2852  0.2232  0.0072
 3739W        W17153  12.453   8.082  16.390 -0.1653 -0.0442 -0.1878
 3740W        W17154  11.634   0.704  10.682 -0.1630 -0.0109  0.0997
 3741W        W17155   8.643  13.744   0.683  0.5098 -0.1578  0.1072
 3742W        W17156   7.132   1.091   1.054 -0.3043 -0.2046  0.3783
 3743W        W17157   2.377   6.594  15.305 -0.0716  0.0818 -0.1966
 3744W        W17158  17.375   7.432   5.763 -0.1011  0.0648 -0.0825
 3745W        W17159  13.790  14.719  14.882 -0.4037 -0.0468 -0.2427
 3746W        W17160   0.565  10.334   3.070  0.0810 -0.3004 -0.0631
 3747W        W17161   1.876  12.066  15.834 -0.0131  0.0460  0.0503
 3748W        W17162   4.138  12.749   0.577 -0.0911  0.2633  0.0231
 3749W        W17163   2.572   9.231   0.986 -0.1703  0.1248  0.1046
 3750W        W17164  15.664  17.939  12.247 -0.0239 -0.0718  0.0596
 3751W        W17165   9.338   1.713  12.665 -0.1201 -0.0504  0.3798
 3752W        W17166  10.467  14.839  14.117  0.0689 -0.2104  0.0657
 3753W        W17167  15.011   2.643  14.490 -0.0241  0.0228 -0.1126
 3754W        W17168  17.830   0.537  15.979 -0.2294 -0.0548  0.1075
 3755W        W17169  12.300  14.351   5.457  0.2769 -0.2679 -0.0882
 3756W        W17170  12.457   8.055   0.890  0.2565 -0.0296  0.1679
 3757W        W17171  17.527   0.336  14.583  0.0294  0.3151  0.0933
 3758W        W17172   8.081   1.509   3.029 -0.2268 -0.1599  0.0706
 3759W        W17173   4.769  10.051   5.666  0.0278  0.2769  0.2091
 3760W        W17174  17.290  13.929   1.118  0.1969 -0.0308 -0.2326
 3761W        W17175  14.147  10.708  16.395  0.1476  0.0046 -0.4280
 3762W        W17176  16.348   2.612  10.994  0.1677  0.2097  0.3012
 3763W        W17177  16.924   9.579   4.014 -0.3677 -0.0182 -0.2067
 3764W        W17178  11.624  14.940   2.211 -0.1852  0.0135  0.0807
 3765W        W17179  14.949   3.832  13.639  0.0922  0.0597 -0.0964
 3766W        W17180  15.090   0.907  11.509 -0.0182 -0.1223 -0.0079
 3767W        W17181  17.456   3.129  11.383 -0.1888  0.0953 -0.3480
 3768W        W17182  13.676   9.855  16.019  0.1403 -0.1268  0.4441
 3769W        W17183   4.896  12.574   0.017  0.0303 -0.0836  0.2527
 3770W        W17184   2.183   4.817   2.991  0.1012 -0.1570 -0.3563
 3771W        W17185  14.285   3.737  16.492  0.1845  0.0683  0.2172
 3772W        W17186   4.624   1.753  10.572 -0.1919 -0.1761 -0.1319
 3773W        W17187   0.207  18.011  10.955  0.2734  0.0307  0.0041
 3774W        W17188  10.939  12.008  14.604 -0.2009  0.2165 -0.3937
 3775W        W17189   6.423  10.821  15.500  0.0043  0.0003 -0.0907
 3776W        W17190   9.298   4.683   3.191 -0.0050  0.0898  0.2268
 3777W        W17191   1.581   4.432   1.359  0.1330 -0.2261 -0.0565
 3778W        W17192  15.580  15.701   4.634 -0.1789  0.1700 -0.1547
 3779W        W17193  10.620   5.399   1.603 -0.0042 -0.1386  0.0676
 3780W        W17194  17.293  13.147   4.834  0.1400  0.0566 -0.0991
 3781W        W17195  17.433   8.751   0.137  0.1656 -0.1432  0.0439
 3782W        W17196  17.608   8.691   4.231 -0.1019  0.3474 -0.0248
 3783W        W17197   8.038   5.031   0.184  0.1332  0.3435  0.0881
 3784W        W17198   4.610   7.135   6.101  0.1973 -0.3599 -0.1479
 3785W        W17199   7.194  12.420   3.237  0.0925  0.0292 -0.3174
 3786W        W17200  12.816   6.282   5.278  0.2523  0.3278  0.0363
 3787W        W17201  12.522   6.325  11.844 -0.0403 -0.1326 -0.2115
 3788W        W17202  12.674   3.790   3.622 -0.3148 -0.0906  0.1088
 3789W        W17203  15.547  16.325   1.347  0.2492  0.2386 -0.1342
 3790W        W17204   7.397   3.205  10.818  0.0318 -0.3210 -0.0604
 3791W        W17205   3.311   4.084  14.747 -0.2814 -0.0649  0.0055
 3792W        W17206  15.483  16.701  15.937 -0.1085  0.1812 -0.0413
 3793W        W17207   8.395   9.482  13.801  0.0659 -0.2193 -0.0471
 3794W        W17208  15.178   7.220   5.391 -0.3200 -0.0850  0.1506
 3795W        W17209   3.168  10.997  12.632 -0.1660 -0.1522  0.2214
 3796W        W17210  15.537   3.246  15.476 -0.2190  0.1471  0.1605
 3797W        W17211  14.918   3.824  15.912  0.1986  0.0348  0.1276
 3798W        W17212  10.458  11.856   2.016 -0.0681 -0.0457 -0.1340
 3799W        W17213  17.284  16.646   4.388  0.2060 -0.1270  0.2932
 3800W        W17214  11.203   6.382   1.748 -0.1345 -0.1559  0.0218
 3801W        W17215   6.024   1.596  14.031  0.0316 -0.1516  0.1523
 3802W        W17216   0.830   5.611  15.883  0.0400  0.3151  0.1984
 3803W        W17217  12.325  17.256   2.894  0.2589  0.1116  0.0456
 3804W        W17218   4.643  16.338  10.669 -0.0601  0.3747  0.2129
 3805W        W17219   3.242   3.903  10.131 -0.2511  0.1492  0.0340
 3806W        W17220   7.992  10.974   4.220 -0.1659  0.0944 -0.1772
 3807W        W17221   0.061   7.298  15.334  0.3736  0.2501  0.3486
 3808W        W17222   9.726  14.020   4.417  0.4390 -0.4192  0.2390
 3809W        W17223   0.599  10.744  14.104 -0.0085 -0.1858  0.2865
 3810W        W17224   5.713   2.359  15.185 -0.0194 -0.4007 -0.1519
 3811W        W17225  16.363   4.480  14.009 -0.2679  0.1234  0.2502
 3812W        W17226  16.503  10.680   0.801 -0.1411 -0.1038  0.1032
 3813W        W17227  11.722   0.142   2.603  0.1452  0.1351  0.1183
 3814W        W17228  11.364   0.913  11.487 -0.0674 -0.1481  0.0473
 3815W        W17229   5.621   4.344  10.970  0.2089  0.0147  0.1175
 3816W        W17230   7.507   7.679  15.427 -0.1285  0.0068 -0.1018
 3817W        W17231  12.192   1.839   3.543  0.0144 -0.2960  0.0019
 3818W        W17232   1.053   8.957  11.833 -0.1647  0.0362  0.2696
 3819W        W17233   0.891  15.572   3.267 -0.1217  0.1372  0.1025
 3820W        W17234  12.664   8.850  13.503 -0.0320  0.0118 -0.0521
 3821W        W17235  12.413   2.230   4.334 -0.2671 -0.0297  0.0676
 3822W        W17236   5.794  16.997   3.861  0.0188 -0.0519  0.1207
 3823W        W17237   6.387  15.430  16.645  0.0302 -0.0950  0.0275
 3824W        W17238   0.158  10.693   3.159 -0.0862  0.0737 -0.0116
 3825W        W17239   4.752  12.925  14.092 -0.2657  0.1503 -0.1579
 3826W        W17240   0.358  11.059   5.240  0.3966  0.3249  0.2012
 3827W        W17241   6.074  13.830   1.480 -0.2045  0.0956  0.1483
 3828W        W17242  13.602  16.279  15.661  0.0278 -0.2457 -0.0752
 3829W        W17243  16.060   7.752  16.392 -0.0076  0.2373  0.0783
 3830W        W17244   0.833  16.473   5.102 -0.1232 -0.0282 -0.1470
 3831W        W17245   0.736   5.447  15.398  0.1261 -0.1911  0.0663
 3832W        W17246  11.877   2.849   6.279  0.0898 -0.1514  0.1577
 3833W        W17247   6.290   9.896  12.365  0.1961  0.0302  0.0594
 3834W        W17248   0.302   4.524   2.610 -0.0625  0.0218 -0.2808
 3835W        W17249  17.852   8.242   3.296  0.2354  0.0834 -0.0257
 3836W        W17250   5.597  16.949   6.040  0.0072 -0.1520 -0.1433
 3837W        W17251   2.672   7.454  11.874  0.0161 -0.1253  0.0223
 3838W        W17252   9.390   7.529   5.654  0.1687 -0.2402  0.0405
 3839W        W17253   7.330   2.817   3.657  0.1570  0.0762 -0.1384
 3840W        W17254   9.278   4.205  14.562 -0.1409  0.0399  0.0412
 3841W        W17255  16.403  16.419  13.179  0.0375  0.1105  0.2824
 3842W        W17256   8.336   8.054   2.139 -0.1755 -0.2454  0.0602
 3843W        W17257   2.233   4.358  11.052 -0.0348  0.2100  0.1516
 3844W        W17258   7.323   8.077   2.516  0.1206  0.0048  0.1171
 3845W        W17259   9.964  13.903  14.770  0.2450 -0.1226 -0.0037
 3846W        W17260   1.249  12.920   4.546 -0.0887  0.2368 -0.1581
 3847W        W17261  16.783  11.623  13.004 -0.0114  0.0549  0.0738
 3848W        W17262   9.539  14.806   7.227 -0.1086 -0.2055  0.0870
 3849W        W17263   8.388   3.524  10.745  0.0232 -0.0330  0.2446
 3850W        W17264  16.836  10.784  14.774  0.0682 -0.0282 -0.0099
 3851W        W17265   5.746   5.155  11.440 -0.1773 -0.0630  0.0489
 3852W        W17266  13.921   1.030  12.611 -0.0018 -0.1089 -0.1201
 3853W        W17267   5.748  14.669  15.826  0.1973  0.0420 -0.1186
 3854W        W17268   0.887   0.630   1.543  0.1198 -0.1318 -0.2294
 3855W        W17269  17.624  14.793   3.193 -0.2148  0.0315 -0.1979
 3856W        W17270  10.899   9.302   3.152 -0.0501  0.2062 -0.0155
 3857W        W17271   8.498  14.765  14.480  0.0847  0.1273  0.0037
 3858W        W17272  11.950  12.319  14.617  0.2835  0.1087 -0.4823
 3859W        W17273   2.184   1.769  11.034 -0.2828  0.1866 -0.0915
 3860W        W17274  13.717   8.012   3.194  0.1004 -0.0365  0.0370
 3861W        W17275  13.936  13.213   3.279 -0.2435 -0.2124  0.0631
 3862W        W17276  15.100   2.661  15.008 -0.0545 -0.0015  0.2301
 3863W        W17277  14.951   1.366   1.722  0.1126 -0.0734 -0.0216
 3864W        W17278   6.431   4.835   3.187 -0.0456 -0.0558 -0.0826
 3865W        W17279   7.623  14.195  11.727  0.2133 -0.0421  0.2533
 3866W        W17280   9.331   0.096  15.098  0.2892  0.1076 -0.3942
 3867W        W17281  10.688   4.060   2.127 -0.0917 -0.3326 -0.0672
 3868W        W17282   6.168   7.977  15.914 -0.1757 -0.0294  0.0806
 3869W        W17283  13.571  11.539   1.773  0.1593  0.0875  0.3868
 3870W        W17284   2.428   6.592  14.449 -0.0477  0.1690  0.3021
 3871W        W17285  14.898  17.953  14.331  0.1142 -0.1953  0.0644
 3872W        W17286  13.575  11.450  15.191 -0.1958  0.2318  0.1991
 3873W        W17287  13.817  12.214   1.850  0.3237  0.2675  0.0387
 3874W        W17288   8.686  14.874  12.413  0.0511 -0.0043  0.2136
 3875W        W17289  17.475   2.527  15.184  0.0467  0.2581  0.3893
 3876W        W17290   8.633   4.306  11.462 -0.0115  0.0599 -0.0476
 3877W        W17291  14.943  16.157  13.547 -0.1949 -0.0481  0.3696
 3878W        W17292   3.088   5.356  14.685 -0.1891 -0.1629  0.0849
 3879W        W17293   7.761   2.895  15.621  0.1634 -0.2083  0.2401
 3880W        W17294  17.854   2.030  11.296  0.0349  0.3774 -0.1550
 3881W        W17295   5.353  14.136   1.404 -0.2429 -0.0742 -0.0650
 3882W        W17296   9.004   2.118  13.819 -0.0132  0.1229  0.2395
 3883W        W17297   4.748  13.514   4.356 -0.1457 -0.0466  0.0275
 3884W        W17298   4.064   2.590   1.611 -0.0332 -0.0449 -0.0094
 3885W        W17299  11.518   9.482   4.273 -0.3080  0.1221 -0.1041
 3886W        W17300  14.599  13.591   5.041 -0.0347 -0.0533 -0.1117
 3887W        W17301  10.746  11.942   4.629  0.2811 -0.2958  0.2883
 3888W        W17302  15.053   2.143   3.643  0.1010 -0.2518  0.1115
 3889W        W17303   2.452   2.501  14.512 -0.2304  0.0346  0.1603
 3890W        W17304   1.760   3.001  16.120 -0.0928 -0.0578  0.0320
 3891W        W17305  10.840  10.485   0.612  0.1156  0.0249 -0.1519
 3892W        W17306   9.847  13.666  14.142  0.4143 -0.1105 -0.1082
 3893W        W17307   3.607   4.172   0.588 -0.1164  0.1622 -0.0432
 3894W        W17308  17.734  17.415  13.635 -0.1723 -0.1988 -0.4184
 3895W        W17309  13.969  13.552  15.097 -0.4372  0.2153  0.1238
 3896W        W17310   1.859  14.670  16.711 -0.2418 -0.0320 -0.1277
 3897W        W17311   6.294  13.351   1.277 -0.1349  0.1943  0.1736
 3898W        W17312  12.086   0.667   2.609  0.3323  0.0458 -0.1308
 3899W        W17313  10.768  17.980   0.549  0.2151 -0.0179  0.0203
 3900W        W17314   1.725  11.945   1.175 -0.2066 -0.1449  0.0759
 3901W        W17315   1.607  10.095  11.046 -0.0290 -0.1976 -0.0533
 3902W        W17316   8.642  15.383  12.222  0.1615 -0.0007  0.0085
 3903W        W17317  15.043  14.209   1.625  0.1026 -0.0658 -0.1537
 3904W        W17318  15.522   7.106  10.764  0.0646  0.0035 -0.0252
 3905W        W17319   7.382   5.097  16.255 -0.0587  0.0589 -0.1172
 3906W        W17320  13.051  10.208   1.933 -0.1571 -0.0937  0.0234
 3907W        W17321   7.683  10.554  14.532  0.0148  0.2608 -0.5955
 3908W        W17322   7.281   0.348  14.454  0.1314  0.0924  0.0661
 3909W        W17323   5.604  17.450   0.347 -0.0141 -0.3537  0.1780
 3910W        W17324  11.701   4.367  16.330  0.1856  0.2313  0.0297
 3911W        W17325   4.699   7.199   4.876  0.2963  0.1335 -0.1287
 3912W        W17326   6.200  15.143   5.734 -0.4068  0.0664 -0.4362
 3913W        W17327  11.313   8.122   1.495 -0.0583 -0.0555 -0.3863
 3914W        W17328   5.092   6.504   2.402  0.1537 -0.0328  0.2862
 3915W        W17329   0.442  11.589  13.730  0.0127 -0.2879  0.1551
 3916W        W17330   6.000  10.440   5.503  0.2033  0.0687  0.2399
 3917W        W17331  15.032   3.991   2.491  0.1221 -0.0897 -0.0125
 3918W        W17332   3.155  15.685  10.695 -0.0028 -0.1359 -0.0999
 3919W        W17333  17.499   0.129  11.163 -0.2335 -0.1265 -0.1391
 3920W        W17334  12.253  17.695  15.330 -0.0365  0.2636  0.0781
 3921W        W17335  17.045   2.561  12.798 -0.0271  0.1248  0.3144
 3922W        W17336  14.639   6.579  13.547 -0.0067  0.1555 -0.0441
 3923W        W17337   3.532  17.462  13.621  0.1172 -0.1125  0.2980
 3924W        W17338  11.829   3.666  12.333 -0.1632  0.0566  0.0414
 3925W        W17339   3.661   9.672   1.513 -0.0316  0.4013  0.1773
 3926W        W17340   7.332   5.382   2.975  0.0022  0.0694  0.2845
 3927W        W17341  14.078   1.535  16.073  0.1166  0.1292  0.0687
 3928W        W17342   0.534   2.516  12.020  0.1370  0.0352 -0.0819
 3929W        W17343   8.081   3.341  14.157  0.0738  0.1321 -0.0069
 3930W        W17344   3.244   7.540   5.186  0.0543  0.1743  0.2680
 3931W        W17345  12.457   2.752  13.666  0.0461 -0.3099 -0.0710
 3932W        W17346   1.339  11.265   3.849 -0.1148  0.1055 -0.1713
 3933W        W17347   2.866  12.063   3.543 -0.0798  0.1960 -0.1119
 3934W        W17348   5.010  12.017   3.889 -0.1900 -0.1784 -0.0174
 3935W        W17349   6.044  17.650  14.824  0.1163  0.0731  0.0224
 3936W        W17350   5.162  15.000   5.022 -0.0735 -0.0848  0.2066
 3937W        W17351   5.392  11.382   0.919 -0.1179 -0.0201  0.1292
 3938W        W17352   5.441   8.221  12.644 -0.5001  0.1353  0.2282
 3939W        W17353   0.095  11.206   0.079  0.1445 -0.2487  0.1078
 3940W        W17354   8.131   5.060   4.037 -0.0870 -0.1932 -0.0611
 3941W        W17355   3.426   3.679   1.361  0.0685 -0.0975  0.0179
 3942W        W17356  16.931  15.011  11.714 -0.0604  0.0732  0.0107
 3943W        W17357   7.356  16.869   2.862 -0.2638  0.2121  0.0220
 3944W        W17358  13.774  15.469  12.848 -0.2071  0.4705 -0.0126
 3945W        W17359  12.313   5.998  15.784  0.2850 -0.0677  0.0007
 3946W        W17360  17.949   1.458   3.966 -0.2194 -0.0440 -0.2515
 3947W        W17361  14.347  10.926  11.819 -0.4818 -0.0887  0.1688
 3948W        W17362   0.358  14.806   0.733  0.0382 -0.0183 -0.1260
 3949W        W17363   4.548   2.807   5.700 -0.1710 -0.0042  0.2536
 3950W        W17364  16.263   2.983   4.734  0.1375 -0.0713  0.1811
 3951W        W17365  10.040  12.991   2.112 -0.0859  0.0384 -0.0446
 3952W        W17366   8.183  16.811   0.598 -0.1352 -0.0578 -0.0402
 3953W        W17367  11.861  13.955  15.660 -0.0262  0.1664  0.1703
 3954W        W17368  14.808   3.234  15.126 -0.0532  0.1157  0.3501
 3955W        W17369  13.403   9.719   0.831 -0.2203  0.4474  0.0159
 3956W        W17370  17.615  16.227  15.794  0.1317 -0.0566  0.0584
 3957W        W17371   5.548   7.217  15.410 -0.0729  0.0297  0.1093
 3958W        W17372   5.224   7.052  11.553 -0.4064  0.1108 -0.1482
 3959W        W17373  13.612   4.940   4.434  0.1326  0.1815  0.0153
 3960W        W17374   4.953  10.985  11.878 -0.2173 -0.0238  0.0751
 3961W        W17375   9.358   0.742   0.752 -0.0860  0.1053 -0.0675
 3962W        W17376   6.893   2.723  11.398 -0.0492  0.0432 -0.3540
 3963W        W17377   6.239  10.198   2.076  0.2721 -0.0126 -0.0367
 3964W        W17378   8.673   8.813  13.983 -0.0691 -0.1290 -0.3127
 3965W        W17379   0.463  11.864   1.963  0.3224 -0.2476  0.0265
 3966W        W17380   3.040   8.903   1.270 -0.0420 -0.0507  0.3766
 3967W        W17381   5.511   7.716  12.710 -0.0447 -0.0115 -0.0922
 3968W        W17382   4.486   5.141  15.644 -0.0979  0.1143 -0.2806
 3969W        W17383   9.577   6.789  10.866 -0.1743  0.0625 -0.2747
 3970W        W17384  11.667  16.444   3.153  0.1891  0.1147 -0.0856
 3971W        W17385   5.567  14.519  11.111 -0.2311 -0.1924 -0.0650
 3972W        W17386   5.834   6.758   4.580 -0.0236  0.3989  0.0843
 3973W        W17387   8.319   1.883   4.905  0.1765  0.2247 -0.1876
 3974W        W17388   3.485   0.189  12.063  0.0081  0.2045  0.0146
 3975W        W17389   2.870   7.062   1.728 -0.0712 -0.0582 -0.0105
 3976W        W17390   2.606   0.536  14.344  0.0091  0.2518  0.1807
 3977W        W17391   6.251  10.356  13.795 -0.0102 -0.0292  0.2622
 3978W        W17392  16.412   5.781  16.780 -0.3102 -0.0416  0.0164
 3979W        W17393   0.892  14.551   3.147 -0.0350 -0.1509 -0.0341
 3980W        W17394  15.976   1.077  16.123  0.1598  0.3621  0.1332
 3981W        W17395   1.742   7.921   4.569  0.1908  0.0355  0.1736
 3982W        W17396   4.958  12.602   1.647  0.1050  0.1915 -0.3278
 3983W        W17397  11.509  13.540  12.058  0.1479 -0.0527  0.0364
 3984W        W17398   0.380   4.714   5.501  0.2790  0.1501 -0.1255
 3985W        W17399   6.667   8.467  14.341 -0.1622 -0.0023 -0.3879
 3986W        W17400  17.272   6.588   0.323  0.1579  0.0726 -0.0328
 3987W        W17401   8.557   9.389  13.298 -0.0371 -0.1537  0.0479
 3988W        W17402   0.588   7.526   0.604 -0.0878  0.0805 -0.1070
 3989W        W17403   3.191   8.800  13.389  0.0884  0.1962  0.0860
 3990W        W17404   1.099   9.472  15.076  0.2063  0.0073 -0.0796
 3991W        W17405   5.163  13.575  10.662  0.0733  0.2288  0.0880
 3992W        W17406  10.787   2.379   6.482 -0.0536  0.1539 -0.2738
 3993W        W17407  11.910  15.758   0.199  0.1642 -0.1256  0.0133
 3994W        W17408   0.091  10.538  12.206 -0.0765 -0.1343  0.1221
 3995W        W17409  11.106  15.336  15.012  0.1885  0.3090 -0.1240
 3996W        W17410   8.478   3.642  14.078  0.0349 -0.0072 -0.0416
 3997W        W17411   2.316   7.128  12.058  0.1731 -0.0157 -0.0318
 3998W        W17412   9.325  12.235   0.701 -0.0377  0.1157 -0.2796
 3999W        W17413   4.860  15.892   2.306  0.0034  0.1558  0.0800
 4000W        W17414  15.766  14.450  16.106  0.0608 -0.0002  0.0102
 4001W        W17415   9.446  13.395  14.324  0.0197 -0.1104 -0.0236
 4002W        W17416   9.256   0.057  11.202  0.2238  0.0703 -0.5171
 4003W        W17417  16.341  16.706  15.402 -0.3273  0.0062 -0.0953
 4004W        W17418   8.610   2.754  10.277 -0.3319 -0.1346  0.0253
 4005W        W17419   5.460   5.193  11.917  0.0142 -0.1281 -0.1941
 4006W        W17420   7.598   7.567   5.155  0.0107 -0.1011  0.0033
 4007W        W17421   1.591  13.503   4.504  0.1471  0.0022  0.0536
 4008W        W17422  15.660  14.134   0.640 -0.3099  0.0555  0.1665
 4009W        W17423  12.858   9.294  16.669  0.0200  0.0831  0.0447
 4010W        W17424  12.702   2.914  16.766 -0.4461  0.0343  0.3383
 4011W        W17425  13.737  12.918  12.753 -0.0733  0.0418  0.0529
 4012W        W17426   6.941  11.762  16.285 -0.0138 -0.1920 -0.2141
 4013W        W17427  16.989  13.743   3.994 -0.0983 -0.0712 -0.1785
 4014W        W17428  14.730   2.354  11.640  0.0971 -0.0883 -0.2919
 4015W        W17429  13.279   0.095   3.994  0.0726 -0.1760 -0.0078
 4016W        W17430  16.226  14.428   3.853  0.0040 -0.0536 -0.0127
 4017W        W17431  14.002  12.267   0.699 -0.1827 -0.1682  0.1066
 4018W        W17432   5.120  11.863  15.347  0.1254 -0.1128  0.0924
 4019W        W17433   7.416  15.584   3.311  0.1105 -0.0650 -0.2071
 4020W        W17434  15.732   5.636   0.729  0.4753 -0.2215  0.1239
 4021W        W17435   2.857   9.354   1.379  0.0621 -0.0755 -0.1104
 4022W        W17436  13.509  17.670   3.981 -0.0090  0.1339  0.1216
 4023W        W17437   4.867  10.966   4.719  0.2561  0.0709  0.2360
 4024W        W17438  11.954   3.648   5.063  0.0770 -0.2446 -0.0224
 4025W        W17439  10.518   9.273   0.162  0.3018 -0.0951  0.0493
 4026W        W17440   9.322  14.020   3.346  0.0902  0.3103 -0.2204
 4027W        W17441   1.774   7.967   4.047  0.0915 -0.1083 -0.0975
 4028W        W17442  10.862   2.359  15.972  0.0985 -0.0987 -0.0714
 4029W        W17443   6.247  17.629   5.101  0.2236 -0.1019 -0.0677
 4030W        W17444  16.663  10.705  13.468  0.1286  0.2354 -0.1279
 4031W        W17445   2.636  13.574   0.193 -0.2517 -0.1389  0.1233
 4032W        W17446   2.773   6.612   3.822 -0.1391 -0.3109 -0.1005
 4033W        W17447   0.738  14.104   4.523 -0.1143  0.0480  0.1005
 4034W        W17448   5.263   7.091   3.588  0.0468 -0.0184  0.1023
 4035W        W17449  10.557   8.386   5.528  0.0438  0.1013  0.0593
 4036W        W17450   3.325  11.829  10.727  0.0834 -0.0224 -0.0855
 4037W        W17451   3.075   1.713   3.716  0.0695  0.0932 -0.1825
 4038W        W17452  15.129  16.849   1.985  0.1515 -0.0727 -0.0584
 4039W        W17453   3.991   7.346  14.010 -0.2270 -0.1105  0.0285
 4040W        W17454   9.849   0.262  12.483  0.3656 -0.0246 -0.1560
 4041W        W17455  14.964  12.582   2.750  0.2386  0.0462  0.0826
 4042W        W17456   9.773  13.245  16.293  0.3055 -0.0795  0.0028
 4043W        W17457  17.465   6.025  15.543 -0.0494  0.2305 -0.1140
 4044W        W17458   3.748  12.863  15.348  0.1025 -0.2646  0.2352
 4045W        W17459  11.154   2.705  11.591  0.0336  0.1336  0.0736
 4046W        W17460   5.687   5.273   1.710 -0.0446 -0.3295 -0.2040
 4047W        W17461   6.873   8.977  15.170  0.0545  0.1184  0.1235
 4048W        W17462   2.456   2.554   3.647 -0.1813  0.0316  0.0033
 4049W        W17463  15.135   8.545   4.084 -0.0162  0.1095 -0.0437
 4050W        W17464  11.720  15.191  11.054 -0.2053 -0.0760 -0.2969
 4051W        W17465   7.035  15.038   5.037  0.3340  0.1248 -0.0163
 4052W        W17466  17.295  13.107  16.414  0.2264  0.2752 -0.1580
 4053W        W17467   1.941  13.777   2.630 -0.2525  0.2654  0.0038
 4054W        W17468  11.671   8.251  11.853 -0.0140  0.2219  0.2256
 4055W        W17469  16.660   7.817   3.790  0.1332  0.2091 -0.2373
 4056W        W17470   7.901   5.235   2.862  0.2081  0.1700  0.0315
 4057W        W17471   9.479  12.863  16.617 -0.1263 -0.0755  0.1965
 4058W        W17472  17.993   6.015  15.028 -0.1648  0.0024  0.3416
 4059W        W17473  10.679  16.939  11.833  0.0538 -0.0788  0.1982
 4060W        W17474  13.555   5.011   5.472 -0.1074 -0.1790  0.3589
 4061W        W17475  12.166  15.745   3.557  0.2210 -0.1472 -0.1708
 4062W        W17476   0.232   1.875  14.140 -0.0847  0.2095  0.1633
 4063W        W17477   1.847   4.840   1.088 -0.0043  0.0914 -0.1204
 4064W        W17478   5.129   8.965   6.758  0.0409 -0.0172 -0.0553
 4065W        W17479  10.609   8.799   2.964 -0.2146  0.1896  0.0440
 4066W        W17480  12.922   9.785  12.134  0.1049  0.2825 -0.1561
 4067W        W17481   4.895   2.519   0.833 -0.2536 -0.1881 -0.1248
 4068W        W17482  16.750   3.780   4.758 -0.2144 -0.0930 -0.1855
 4069W        W17483  16.710   6.655   4.154 -0.0677 -0.1480  0.1102
 4070W        W17484   6.869  17.530  15.275 -0.1891  0.1561  0.0615
 4071W        W17485  14.971   3.733  12.630  0.2460  0.2204  0.1865
 4072W        W17486  14.552   3.399   4.458  0.1841 -0.1370 -0.1923
 4073W        W17487   9.871   8.420  14.964 -0.0030 -0.1950 -0.0445
 4074W        W17488   9.624  11.532  15.687 -0.1532  0.1224  0.1226
 4075W        W17489  17.077   2.850   2.382  0.1618  0.2332  0.1177
 4076W        W17490   0.602   2.612   2.678 -0.1406  0.0076  0.1764
 4077W        W17491   4.187   8.792  13.436 -0.0076 -0.0020 -0.1595
 4078W        W17492  11.591   6.394  13.801  0.0966 -0.2013 -0.2251
 4079W        W17493  16.191   0.129   1.152  0.0276  0.3102 -0.0307
 4080W        W17494  15.329  12.593  14.213  0.1047  0.0616 -0.2540
 4081W        W17495  11.653   5.633   4.247  0.1074 -0.1463  0.0504
 4082W        W17496   1.510   0.403  16.425 -0.0532 -0.0675  0.0188
 4083W        W17497  10.981   8.929   4.940  0.2376 -0.3317  0.0904
 4084W        W17498  13.348  13.587   1.480  0.3358 -0.1111  0.1468
 4085W        W17499  11.346   0.448   5.278 -0.0522 -0.2078  0.2565
 4086W        W17500   5.024  13.583  16.758  0.1406 -0.0769 -0.2950
 4087W        W17501   2.591   4.184   4.057 -0.0298  0.0881 -0.1218
 4088W        W17502   9.982  10.401  12.549  0.1932 -0.1097 -0.1214
 4089W        W17503   8.090   6.882  11.304 -0.1315 -0.0423 -0.0812
 4090W        W17504  12.345  14.259   3.980  0.2286  0.0801  0.1188
 4091W        W17505  16.298   1.326  13.397  0.0218 -0.1982  0.2272
 4092W        W17506  12.402  16.731   5.235 -0.2087  0.0470  0.2862
 4093W        W17507   4.220  11.833   0.548  0.1447 -0.2246  0.1911
 4094W        W17508  14.006  16.540   3.331 -0.0275 -0.0457 -0.1012
 4095W        W17509  14.056   6.927  14.365 -0.2638  0.1822  0.1200
 4096W        W17510  12.908   4.297   2.835 -0.1192  0.0008  0.1127
 4097W        W17511   6.904  12.801  14.262 -0.2383 -0.1223  0.0204
 4098W        W17512  10.378   3.565  16.066 -0.0766 -0.0601  0.1031
 4099W        W17513   0.064   9.138   1.578  0.3990  0.0179 -0.2312
 4100W        W17514  15.209   1.896   2.106 -0.1430  0.0115 -0.3441
 4101W        W17515   9.263  12.739   3.338  0.0581 -0.1116  0.2470
 4102W        W17516  11.980   1.459  14.863  0.0282 -0.0647  0.0541
 4103W        W17517  15.143  10.612   4.918  0.3678 -0.1564  0.2114
 4104W        W17518   0.526  14.525   1.133 -0.1299 -0.1364  0.0825
 4105W        W17519   9.516  10.346   1.834 -0.3074  0.0449 -0.4277
 4106W        W17520  11.825  16.088   0.651  0.1001  0.0339 -0.0237
 4107W        W17521  10.227   1.674  15.589  0.2634 -0.1099  0.1156
 4108W        W17522  10.482  16.336   0.150  0.0291  0.0226  0.1448
 4109W        W17523  12.529  12.028   5.882 -0.0253 -0.2045 -0.3354
 4110W        W17524  12.309   6.278   2.513  0.1887  0.2643  0.1748
 4111W        W17525  10.348   2.228   3.647 -0.3482  0.0169 -0.0110
 4112W        W17526  10.587  16.012  12.656  0.2758 -0.1224 -0.2255
 4113W        W17527  12.275  10.241   4.930 -0.0753 -0.2103 -0.3227
 4114W        W17528  14.630  15.041  11.395  0.1563  0.0002  0.0488
 4115W        W17529   5.583  17.168   6.475 -0.1200  0.2632  0.1016
 4116W        W17530   5.017   9.041  15.670 -0.0682  0.2068  0.2625
 4117W        W17531  10.357  11.329  14.426  0.3476 -0.2524 -0.0124
 4118W        W17532   4.599  15.329  10.821  0.1785  0.0107  0.2368
 4119W        W17533   4.734   9.983  11.350 -0.4776 -0.0207  0.0989
 4120W        W17534   7.841   8.353   6.517 -0.0992 -0.3271  0.0066
 4121W        W17535   0.144  10.703  16.147 -0.0532  0.1769 -0.0892
 4122W        W17536   9.325   5.912   2.157  0.3664 -0.2168 -0.1152
 4123W        W17537   7.018  11.471   1.796 -0.1712 -0.1030 -0.0812
 4124W        W17538   7.760  11.697   5.972 -0.2230 -0.1168 -0.2626
 4125W        W17539  11.447   1.353   4.203 -0.2109 -0.2041  0.1466
 4126W        W17540  10.535  12.500   6.278  0.0573 -0.0063  0.4564
 4127W        W17541  10.365   9.533  16.061  0.2573  0.0493 -0.0056
 4128W        W17542  10.549   7.673   0.194  0.2787  0.1965 -0.0956
 4129W        W17543  17.576  12.431   1.671 -0.0239  0.0534  0.0121
 4130W        W17544  13.954  17.299  14.272 -0.3030  0.1624 -0.2460
 4131W        W17545  10.925   9.240  12.457 -0.0923  0.1609 -0.0426
 4132W        W17546  11.776  13.586   5.401 -0.0705  0.1727 -0.5274
 4133W        W17547   5.500  12.953  13.588 -0.0588  0.2967  0.0264
 4134W        W17548  11.997   7.951   0.742  0.0466 -0.3116  0.2311
 4135W        W17549  10.359  12.170  16.168  0.1293 -0.0511 -0.0689
 4136W        W17550  13.778   9.950  13.759  0.1931  0.0395  0.0684
 4137W        W17551   1.379   6.848  14.264 -0.0264  0.0694  0.0204
 4138W        W17552   9.806  13.640  15.617  0.1449  0.0419  0.1396
 4139W        W17553  12.112  18.003   3.498  0.1120  0.0634 -0.1860
 4140W        W17554  16.918  12.544  15.150 -0.0139 -0.1998  0.0514
 4141W        W17555  10.343   6.268  12.479 -0.1779  0.0790  0.2433
 4142W        W17556   9.306   6.935   0.548 -0.2031  0.1139  0.1102
 4143W        W17557  17.697  16.791  10.607 -0.2069  0.1133  0.2887
 4144W        W17558  17.692  14.936   1.970 -0.2867  0.1135 -0.1062
 4145W        W17559   6.040  13.951  11.664 -0.3890  0.0245  0.0246
 4146W        W17560  11.869   8.405   1.777  0.2130 -0.2724 -0.0014
 4147W        W17561   0.613  17.277   4.846 -0.3588 -0.0165  0.1552
 4148W        W17562  13.063   6.350   0.566 -0.2029 -0.0994  0.0634
 4149W        W17563  16.342  13.875   3.805  0.2375 -0.1384  0.0307
 4150W        W17564   9.140  17.528   2.963  0.4063 -0.2656 -0.0574
 4151W        W17565  13.741   4.973  13.085  0.1252 -0.0438 -0.0347
 4152W        W17566  15.272   1.728   0.486  0.0687 -0.0914  0.1171
 4153W        W17567   4.083  10.373   4.508  0.0903  0.0285  0.1561
 4154W        W17568   1.418   8.511   4.266 -0.0311  0.2991  0.1039
 4155W        W17569   3.977  14.245  12.468  0.1490 -0.0987  0.1562
 4156W        W17570   1.954   1.205   1.461 -0.1253  0.0645  0.0671
 4157W        W17571   3.306   8.985   4.222  0.0471 -0.0134  0.1274
 4158W        W17572   6.361  10.820   5.368 -0.3148  0.1421  0.2378
 4159W        W17573  12.758  11.917   6.385 -0.0010  0.1363  0.0848
 4160W        W17574   7.736   8.993  11.299 -0.0053  0.0947  0.1797
 4161W        W17575   4.246   6.758   6.030 -0.3054  0.2380 -0.1208
 4162W        W17576   4.056   5.106  11.506  0.0734  0.0198  0.3668
 4163W        W17577  11.557   7.002  10.248 -0.1752  0.0478  0.2678
 4164W        W17578  14.605  10.209   0.330  0.1190  0.1204 -0.0025
 4165W        W17579   0.904   3.366  10.368  0.0059  0.1401 -0.0356
 4166W        W17580   1.115  10.984  16.081 -0.2786 -0.4091  0.0215
 4167W        W17581  11.116  10.117  15.989 -0.2830 -0.0314 -0.1616
 4168W        W17582  17.153  13.992   4.410 -0.0714 -0.0588  0.1324
 4169W        W17583   3.483  10.387  16.440  0.1515  0.0376  0.0186
 4170W        W17584  11.223  10.930   6.181  0.0323 -0.0893  0.1851
 4171W        W17585  11.622  16.648  13.335  0.1669  0.3560  0.1438
 4172W        W17586  14.837   9.296  13.159  0.2816 -0.0315 -0.0534
 4173W        W17587   2.019  16.478  12.485  0.1686  0.0105 -0.0611
 4174W        W17588  15.408  10.704   3.403  0.4571 -0.0860 -0.0402
 4175W        W17589   8.951  15.961   1.535  0.1204  0.0132 -0.1176
 4176W        W17590  11.934   4.171   2.512 -0.2545 -0.0363  0.2338
 4177W        W17591   4.537  10.453   0.634  0.1261  0.0323  0.0984
 4178W        W17592   7.924   9.380   1.840 -0.2451  0.0938 -0.0643
 4179W        W17593   1.212   8.412   1.496  0.1881 -0.1385  0.3479
 4180W        W17594  11.867  16.026  10.587  0.0979 -0.2424  0.0935
 4181W        W17595   1.538   5.075  16.696  0.3367 -0.1205  0.0938
 4182W        W17596   6.737   6.186  14.567 -0.0626 -0.0510 -0.1010
 4183W        W17597  14.071  10.704   3.899  0.1316  0.1141 -0.0694
 4184W        W17598  11.416  15.367  15.583  0.0721  0.0192 -0.0213
 4185W        W17599   8.660   7.640   0.300  0.1494 -0.2837 -0.1915
 4186W        W17600   8.303  16.540  13.777 -0.1126 -0.1416  0.0248
 4187W        W17601  12.340   3.977  13.244 -0.1753  0.2526  0.2105
 4188W        W17602  16.780   9.082   0.273 -0.3340  0.0548 -0.1660
 4189W        W17603   0.651  13.164  15.429 -0.2759  0.0431 -0.5482
 4190W        W17604   1.846   9.031   0.247  0.1811 -0.1708 -0.0681
 4191W        W17605   3.498  16.020   0.683  0.1780 -0.0949  0.1128
 4192W        W17606   0.217  12.621   4.500 -0.1626 -0.0585  0.1072
 4193W        W17607   3.954   5.946  10.728 -0.1755  0.0382  0.1171
 4194W        W17608   7.191  15.342  12.267  0.0890 -0.1317  0.0147
 4195W        W17609   6.270   4.759   4.621  0.4209  0.0581  0.0856
 4196W        W17610   9.139  17.126  16.470 -0.0762  0.0904  0.1893
 4197W        W17611  13.453   9.838  14.151  0.1692  0.3445 -0.1253
 4198W        W17612   2.030   7.025  11.153  0.0165  0.1635  0.1467
 4199W        W17613   5.440   3.350  12.063 -0.0205 -0.2152 -0.2505
 4200W        W17614  10.197   9.516   4.977 -0.1989 -0.2031  0.2182
 4201W        W17615   3.787  10.909  10.817  0.0158  0.1833 -0.0952
 4202W        W17616  11.606  17.957  15.091 -0.3290 -0.0467 -0.2000
 4203W        W17617   8.342   2.535  12.735 -0.0853  0.0974  0.0800
 4204W        W17618  17.765   7.110  12.304  0.0196  0.1427  0.2621
 4205W        W17619   5.726  17.621   2.243 -0.0063  0.2262 -0.1253
 4206W        W17620  11.147   3.197  12.544  0.0115 -0.3376 -0.0554
 4207W        W17621  11.640  16.623  14.812 -0.3838 -0.0822  0.2681
 4208W        W17622  16.741  11.308  10.815  0.2989 -0.0300  0.0807
 4209W        W17623  13.684   7.165   3.971  0.2902  0.1554  0.0478
 4210W        W17624   7.533   9.650   2.080 -0.1837  0.0682 -0.0107
 4211W        W17625   9.400  17.727   5.302 -0.0397 -0.0183  0.1557
 4212W        W17626   6.703   1.699  13.537  0.2351 -0.0060  0.1119
 4213W        W17627   8.009  10.157  13.029 -0.3162  0.1362  0.0404
 4214W        W17628  15.608  13.670  10.516 -0.0996 -0.0498 -0.1369
 4215W        W17629   8.026   5.046   1.999  0.0182  0.0844  0.0969
 4216W        W17630  14.291   2.550   3.460  0.0512 -0.0556 -0.0494
 4217W        W17631   3.017  11.042   0.168 -0.0838 -0.0394 -0.0975
 4218W        W17632   9.732  12.640  15.074 -0.1599  0.0402  0.0795
 4219W        W17633  11.367  17.786   0.804  0.0298 -0.2636 -0.2111
 4220W        W17634  14.235  14.293   3.896 -0.0159 -0.1510  0.1240
 4221W        W17635  12.822   0.843  11.832  0.2666 -0.1202  0.0299
 4222W        W17636  17.526  15.143   0.007  0.0547 -0.0621 -0.1602
 4223W        W17637  17.048  17.073  11.610  0.1853 -0.2106  0.1520
 4224W        W17638  14.068   2.592  12.810  0.1230  0.2040  0.2242
 4225W        W17639   0.435   3.529  12.976 -0.1476  0.0338  0.2609
 4226W        W17640   5.061   1.261   1.643  0.4423  0.0527 -0.1502
 4227W        W17641  13.954  16.153   6.062 -0.2319 -0.4949 -0.3451
 4228W        W17642  13.551   1.727  14.840 -0.1090 -0.0959 -0.1548
 4229W        W17643   2.951  14.126  10.098  0.0567 -0.2057 -0.0942
 4230W        W17644  15.070  11.002  12.474  0.2360  0.0154 -0.1020
 4231W        W17645   9.060  17.019   3.354 -0.1386  0.0334  0.0399
 4232W        W17646   2.304  13.411  16.451 -0.2606 -0.1403 -0.1921
 4233W        W17647   5.158  16.460   5.140  0.0779  0.0707 -0.0149
 4234W        W17648  10.107  10.095  13.971  0.0756  0.0686 -0.0400
 4235W        W17649  16.821   5.313   1.975 -0.2482 -0.0328 -0.2121
 4236W        W17650  17.447   2.531  12.489 -0.3855  0.0571 -0.2355
 4237W        W17651  10.175  11.759  16.462  0.0982  0.3165  0.1157
 4238W        W17652  14.677  12.416  15.061 -0.3125  0.3632 -0.0945
 4239W        W17653   8.960   0.715  13.780 -0.1797  0.0049  0.4308
 4240W        W17654   3.733  10.344   6.118  0.3363  0.1262 -0.1317
 4241W        W17655   4.135   2.405  12.755 -0.1953 -0.0782  0.0158
 4242W        W17656  13.834   8.353  16.049 -0.3945 -0.0067  0.1073
 4243W        W17657  14.917   1.320   4.614 -0.1109 -0.3530 -0.0246
 4244W        W17658  10.551  10.651  14.900 -0.0394  0.1604  0.1005
 4245W        W17659   1.548  11.737   3.769  0.0328 -0.0300  0.0128
 4246W        W17660  17.307   1.927   5.341  0.2397 -0.0594 -0.0976
 4247W        W17661  11.245   6.687   1.093 -0.0736 -0.0030  0.0758
 4248W        W17662   3.103  13.928   5.566  0.1344  0.1744  0.2268
 4249W        W17663  11.565  13.825  14.382 -0.0501  0.2199  0.0387
 4250W        W17664   6.538   2.035   1.445  0.0544  0.0658  0.5856
 4251W        W17665   0.730   6.040  14.528 -0.0378  0.0655 -0.0732
 4252W        W17666   3.798   3.281  14.459  0.2690 -0.0615 -0.0711
 4253W        W17667  14.779  15.516   4.864  0.5865 -0.1961 -0.0696
 4254W        W17668   2.022  14.330   3.906  0.0167 -0.0244  0.3878
 4255W        W17669   5.755  16.391   2.371  0.0717  0.2935 -0.1542
 4256W        W17670   8.826  16.486   2.651  0.0060 -0.1443  0.0127
 4257W        W17671   4.209   1.541  13.259  0.1473  0.1706 -0.0923
 4258W        W17672   4.150  14.040   4.796  0.3060 -0.0263 -0.2095
 4259W        W17673  15.799   3.683  11.558 -0.1781  0.1050  0.1924
 4260W        W17674   5.456  15.981  10.511 -0.0909 -0.1419  0.1966
 4261W        W17675  13.169   8.401  12.760  0.0043  0.3171 -0.0097
 4262W        W17676   2.104   2.773  11.030 -0.1007  0.0228  0.0261
 4263W        W17677  12.899   3.981  14.973 -0.1832  0.0431  0.1030
 4264W        W17678   6.883  16.100  15.595  0.0562  0.0607  0.1683
 4265W        W17679   0.268   7.933   2.710 -0.0497 -0.1631  0.0582
 4266W        W17680   6.650   3.696   1.588 -0.1448 -0.1118 -0.0142
 4267W        W17681   1.841   6.894  15.451  0.0353 -0.2370 -0.1167
 4268W        W17682   5.072   0.655  15.955 -0.1629  0.3563 -0.1270
 4269W        W17683  10.732  16.375   3.580 -0.1929 -0.1461 -0.1056
 4270W        W17684  10.758  13.559  16.532  0.1100 -0.1336  0.0322
 4271W        W17685  13.828   5.530  15.637 -0.1472 -0.0767  0.0277
 4272W        W17686   4.850  13.352   5.135 -0.1164  0.1795 -0.2227
 4273W        W17687   6.826   0.755  15.167  0.0206 -0.0257  0.0440
 4274W        W17688   0.579   6.894  11.680  0.2765 -0.0557 -0.1526
 4275W        W17689  13.595  12.865  13.652 -0.1753 -0.0010 -0.0142
 4276W        W17690  10.402  17.085  16.244  0.3075 -0.0693  0.1619
 4277W        W17691   2.603  11.651  11.229  0.1590  0.0692 -0.2950
 4278W        W17692  14.821   5.467   1.571 -0.1426 -0.0117 -0.0697
 4279W        W17693   5.013   6.408  14.865  0.1356  0.0449  0.1425
 4280W        W17694   1.524   8.717   3.817  0.0389 -0.0695  0.3459
 4281W        W17695  11.901  13.141   1.946 -0.0030  0.0708 -0.2004
 4282W        W17696  14.904   7.468  12.218 -0.0704 -0.2420 -0.2122
 4283W        W17697  12.432  11.446   0.644  0.1066  0.0287 -0.2533
 4284W        W17698  13.716   2.600   3.733  0.0991 -0.0467 -0.3233
 4285W        W17699   8.243   4.861  15.114 -0.0889  0.0020 -0.0647
 4286W        W17700  11.278  17.006   6.115  0.0835 -0.0339  0.2527
 4287W        W17701  15.339  15.259   2.030  0.1747  0.0159  0.0483
 4288W        W17702  15.938   1.589  14.732  0.2294 -0.0072 -0.1374
 4289W        W17703   9.157  10.283  13.828 -0.1259 -0.1458 -0.0321
 4290W        W17704  11.861  17.488   5.178 -0.0736 -0.1940 -0.3954
 4291W        W17705   7.296  10.960  14.549  0.1419  0.3882  0.0960
 4292W        W17706  13.609   3.629  11.105  0.2746  0.1085  0.2974
 4293W        W17707  13.539  14.156  12.288 -0.0596  0.0658 -0.1125
 4294W        W17708  12.238  15.898  16.594 -0.0386 -0.1264 -0.1905
 4295W        W17709   6.456  11.726   4.679  0.1198  0.0845  0.1988
 4296W        W17710  12.109   6.211   3.365 -0.1692  0.2498 -0.0778
 4297W        W17711   1.990  10.610  14.088  0.1926 -0.1792  0.3196
 4298W        W17712   8.481  10.896   6.647 -0.2378 -0.0592 -0.2860
 4299W        W17713  12.688  13.771   2.912  0.1146  0.1741  0.0202
 4300W        W17714   2.463  12.186  11.153 -0.1709  0.2886  0.0741
 4301W        W17715   5.939   6.984  12.059 -0.2050  0.0751 -0.1659
 4302W        W17716   4.413   9.042  13.884  0.2838  0.3339  0.1798
 4303W        W17717   5.800  12.140  15.641 -0.0097  0.0111 -0.0574
 4304W        W17718   4.368  14.309   3.048 -0.1931  0.2048  0.2313
 4305W        W17719   1.561   3.220  16.547  0.2968 -0.2662 -0.0180
 4306W        W17720  13.349   2.162  14.484  0.3202  0.3051 -0.2986
 4307W        W17721  13.487   7.522  14.387 -0.0137  0.0057 -0.1683
 4308W        W17722   7.806   7.832   0.008  0.0560 -0.1397  0.1539
 4309W        W17723  16.324   8.280   4.513  0.1510  0.0030  0.0860
 4310W        W17724  13.907   9.312  14.192  0.6048  0.0209 -0.0366
 4311W        W17725   8.108   5.057   5.243  0.0131  0.3781 -0.0210
 4312W        W17726   9.371   2.310   4.877 -0.1359  0.2844  0.0455
 4313W        W17727   3.491   3.293   4.414  0.0529 -0.2075  0.1854
 4314W        W17728  17.979   2.277  15.125 -0.2230  0.2717  0.1324
 4315W        W17729   2.574  14.599   5.255 -0.0020 -0.1244 -0.0246
 4316W        W17730   9.398   6.645  13.783 -0.0852  0.2493  0.0181
 4317W        W17731   1.354   2.879   3.097  0.0345  0.0853 -0.1105
 4318W        W17732  13.513  13.160   5.820  0.0547  0.0426 -0.0274
 4319W        W17733   9.485  13.846   0.148 -0.3009 -0.0419 -0.1369
 4320W        W17734  12.230   1.412  15.364  0.2103  0.0710 -0.1192
 4321W        W17735  16.018   9.971   2.054  0.0624 -0.0752  0.4351
 4322W        W17736   5.960  15.549  16.314 -0.1382  0.4221 -0.0460
 4323W        W17737   1.558   1.256  12.239  0.0269  0.3093  0.1236
 4324W        W17738  14.726   1.302   2.762  0.2387  0.2344 -0.1006
 4325W        W17739  11.246  11.872   2.598  0.0182  0.0835 -0.1649
 4326W        W17740  12.563  13.253   1.285 -0.0611  0.2400 -0.2962
 4327W        W17741   3.757   6.907  10.579 -0.1268 -0.2275 -0.2401
 4328W        W17742  15.652   8.345   2.741 -0.0666 -0.0112  0.1386
 4329W        W17743  10.450  14.046  11.672  0.3399  0.0398  0.2379
 4330W        W17744   2.592   0.984  13.467 -0.3271 -0.0969  0.0524
 4331W        W17745   9.038   0.108  15.582 -0.0450 -0.2264  0.2880
 4332W        W17746   5.833   5.204  12.778  0.0787 -0.1182  0.0071
 4333W        W17747  17.750   8.556  16.023 -0.0817 -0.3690 -0.0924
 4334W        W17748  17.541   9.778  11.170  0.1728 -0.0322 -0.4069
 4335W        W17749  14.371  15.681   5.182  0.1091  0.0484 -0.0513
 4336W        W17750  13.273  10.945   5.495  0.1341 -0.3493  0.0261
 4337W        W17751   2.622  12.804  13.956  0.1794  0.1008  0.1741
 4338W        W17752   7.582  13.162   4.452 -0.2802  0.1588  0.3743
 4339W        W17753   4.175   4.609  16.213 -0.1107  0.1589 -0.1912
 4340W        W17754   1.341   5.745  11.784  0.0166 -0.2580 -0.2014
 4341W        W17755  12.269  12.592  14.868  0.2923  0.0624  0.0468
 4342W        W17756   5.299   3.146   3.078  0.0634  0.0886  0.3127
 4343W        W17757   9.453   7.780   0.782  0.4218  0.1178 -0.0293
 4344W        W17758  14.616  17.780   2.857 -0.0413  0.2425 -0.3395
 4345W        W17759   4.859   4.903  12.057  0.2811 -0.0183 -0.0431
 4346W        W17760  12.494  17.240  13.518 -0.0795 -0.1715  0.1780
 4347W        W17761  11.291   1.410  11.726 -0.2247 -0.0734  0.0698
 4348W        W17762  13.825  17.912   5.738  0.3238  0.0974  0.0013
 4349W        W17763   8.539   5.690   3.388 -0.0305 -0.1533 -0.0593
 4350W        W17764   9.460   0.812   2.101 -0.0262  0.2543 -0.0056
 4351W        W17765  10.005  11.445   3.069  0.1235 -0.4260 -0.0108
 4352W        W17766   6.104  11.477  11.325  0.0791  0.3530  0.0566
 4353W        W17767  17.893  13.736  12.740 -0.2253 -0.0416 -0.1351
 4354W        W17768  12.751   2.543  11.523 -0.1844  0.5411 -0.2652
 4355W        W17769  16.500  17.096  14.964  0.2651  0.0359 -0.3698
 4356W        W17770  16.115  16.650   3.188  0.0515 -0.2645  0.1268
 4357W        W17771   4.007   8.267  11.154  0.1834  0.0945 -0.2352
 4358W        W17772  15.537  12.527   0.897 -0.1910  0.1659 -0.0276
 4359W        W17773   8.744  15.896  15.898 -0.0844 -0.1286  0.1416
 4360W        W17774   2.039   8.370  13.895 -0.0041  0.4090  0.0046
 4361W        W17775   1.595   5.542  10.890 -0.0900 -0.0141 -0.2191
 4362W        W17776   6.470   8.022  14.354  0.0962  0.0213 -0.3441
 4363W        W17777  15.716   8.420   1.711  0.0868 -0.4973 -0.0312
 4364W        W17778   5.836  15.130   5.370 -0.0267  0.3219  0.1042
 4365W        W17779  17.862  12.569   3.431  0.0175  0.1310 -0.1417
 4366W        W17780   4.485   1.909   2.507 -0.0709  0.2052 -0.0616
 4367W        W17781   8.157  10.693  11.501 -0.2567  0.0395  0.4319
 4368W        W17782  15.216   8.780  15.820  0.1496 -0.0623  0.0732
 4369W        W17783  10.058  10.749  12.153  0.0648 -0.0945  0.0418
 4370W        W17784  13.676   3.179   1.881 -0.1695  0.0065 -0.0941
 4371W        W17785  15.286   8.985  12.256 -0.4287 -0.3460 -0.0006
 4372W        W17786   7.424  15.528   1.635  0.1494 -0.5032 -0.3542
 4373W        W17787  10.308  13.136   5.855 -0.0316 -0.0726  0.0435
 4374W        W17788  16.373   3.349  13.865  0.1944  0.0808  0.1653
 4375W        W17789  10.311   2.881  12.624 -0.1512  0.2249  0.0646
 4376W        W17790  14.752   6.854  16.164 -0.2431 -0.1436  0.0285
 4377W        W17791  16.529   8.703   4.360  0.0827  0.2418  0.1984
 4378W        W17792   7.240  14.669   0.136 -0.0830  0.0874 -0.3107
 4379W        W17793   5.383  17.674   4.606  0.0585  0.0477  0.4307
 4380W        W17794   7.113  14.389  16.587  0.1574 -0.0118 -0.1993
 4381W        W17795  16.529  16.146  12.676  0.1564 -0.1478 -0.1547
 4382W        W17796   9.428   8.644   2.717 -0.1862  0.3153 -0.1944
 4383W        W17797   8.360  16.692   6.627  0.0047 -0.0599 -0.0989
 4384W        W17798   1.950  10.848   3.214  0.2909 -0.0179 -0.0768
 4385W        W17799   1.321   7.869   2.758  0.0606  0.0312 -0.0838
 4386W        W17800  14.365  14.837  13.403  0.0783 -0.1852  0.1265
 4387W        W17801   1.619  12.854   4.873 -0.0373 -0.0927 -0.0620
 4388W        W17802   2.411   2.127   5.047 -0.1646 -0.0872  0.0799
 4389W        W17803  11.614  17.725   1.867 -0.1709 -0.2061  0.0851
 4390W        W17804   0.933  15.302   2.160  0.1075  0.0609 -0.1436
 4391W        W17805   5.986   0.980  15.494 -0.0095  0.1455  0.2246
 4392W        W17806   0.916  13.894  13.578  0.1849 -0.3140  0.0187
 4393W        W17807  16.016  15.326  16.608 -0.1336  0.1272 -0.2246
 4394W        W17808  16.408   0.831  16.271 -0.2298  0.3233  0.2592
 4395W        W17809  15.045  16.024   0.481  0.1805 -0.1684 -0.0491
 4396W        W17810  14.255  14.821   4.067 -0.0988 -0.1071 -0.1129
 4397W        W17811  12.651   6.906  11.714 -0.1567 -0.0501 -0.3132
 4398W        W17812   4.739   7.098  12.803 -0.0757  0.2234 -0.2352
 4399W        W17813   6.327   4.010  14.567 -0.2752  0.2152  0.2233
 4400W        W17814   0.281   0.501  12.283  0.0623  0.2546 -0.1332
 4401W        W17815  13.438  10.123   2.295 -0.1932 -0.1377  0.0255
 4402W        W17816  11.611  10.109   1.015  0.0734  0.1520 -0.0175
 4403W        W17817   2.306   6.060  16.438  0.0696  0.2908  0.1226
 4404W        W17818  12.421  10.629  13.790 -0.4178  0.1032  0.1357
 4405W        W17819  11.853   7.543  14.289 -0.2448  0.2719 -0.0504
 4406W        W17820  10.493  10.328   6.074  0.0105 -0.1286  0.2542
 4407W        W17821   7.255  16.545   1.007  0.1429 -0.2898  0.1303
 4408W        W17822  12.705   8.568   3.273 -0.0377 -0.1826 -0.1889
 4409W        W17823   3.645  17.550   5.246  0.1554 -0.0551  0.2445
 4410W        W17824  15.631   2.426   1.010  0.1126 -0.2147  0.1400
 4411W        W17825  15.739   6.806  13.834 -0.3169 -0.1413 -0.3075
 4412W        W17826   5.840  15.828  15.278  0.1999 -0.2077  0.1051
 4413W        W17827  13.397   4.763  15.911  0.2271  0.1428  0.1483
 4414W        W17828  12.140   1.738  13.013 -0.1625  0.1828  0.0833
 4415W        W17829   3.568  10.949   3.893 -0.0868  0.2345  0.5998
 4416W        W17830  16.982   4.687  15.534 -0.0481  0.3358 -0.1425
 4417W        W17831  16.620   5.684   4.127 -0.0494 -0.3039 -0.0261
 4418W        W17832   3.896  17.577  16.305  0.0654  0.3965 -0.0202
 4419W        W17833  10.718  12.378   4.327  0.3222 -0.2268 -0.0115
 4420W        W17834  16.409  13.682   4.765  0.1886 -0.2478 -0.3997
 4421W        W17835  16.466   6.964   5.458 -0.2247 -0.1859 -0.0419
 4422W        W17836   3.377  14.212  10.376  0.0021  0.0938  0.1985
 4423W        W17837   6.061   6.044  16.272  0.1063 -0.0310  0.3620
 4424W        W17838  11.942  10.763   0.463 -0.0995 -0.4430 -0.0802
 4425W        W17839   8.195  13.484   0.972  0.0494  0.0357 -0.2600
 4426W        W17840   3.743  16.384   0.956 -0.1094 -0.0549 -0.0335
 4427W        W17841  10.910   5.500  10.849  0.3026  0.0842  0.3325
 4428W        W17842   7.512  15.850  11.471  0.0310 -0.1813 -0.1898
 4429W        W17843   2.476   3.573   5.089 -0.1857 -0.1727  0.0651
 4430W        W17844  17.103   1.406  11.168  0.0850  0.0800 -0.0201
 4431W        W17845   6.800   5.283  16.399  0.1082  0.2769 -0.0351
 4432W        W17846   7.214  15.744  11.951 -0.5094 -0.2072  0.0451
 4433W        W17847   9.774   3.678  13.877  0.0983 -0.1433  0.2939
 4434W        W17848   7.004  16.378   1.400  0.0774  0.0499 -0.2623
 4435W        W17849   1.864  16.048   5.963  0.1169 -0.1107 -0.1986
 4436W        W17850  11.211  11.527   6.802 -0.1735 -0.1246 -0.0542
 4437W        W17851   0.398  12.712  15.441 -0.1578  0.0389  0.1542
 4438W        W17852   1.586   0.282  11.784  0.1475 -0.2623  0.2167
 4439W        W17853  10.657   5.937   3.639  0.0880  0.1000 -0.2206
 4440W        W17854  14.208  13.946   7.266  0.0302  0.1322 -0.1121
 4441W        W17855   2.967   9.870   5.401  0.1887  0.0228 -0.3354
 4442W        W17856   2.110   9.688  16.481  0.1830 -0.4762  0.0613
 4443W        W17857  10.264  15.299  11.987  0.0665 -0.0161 -0.1344
 4444W        W17858  14.012  11.343   3.176  0.0296  0.0095 -0.1703
 4445W        W17859   5.870  11.703  12.318  0.0980 -0.0208  0.2570
 4446W        W17860  12.297   8.486   6.150 -0.0100  0.1282  0.0595
 4447W        W17861  10.484   6.955  13.840 -0.2180 -0.1697  0.1073
 4448W        W17862  11.299   9.660  12.468 -0.1394 -0.1773  0.0959
 4449W        W17863   9.821   6.429  13.629 -0.0569  0.0419 -0.1363
 4450W        W17864  10.997   3.390   1.335 -0.0223 -0.0514 -0.2247
 4451W        W17865   5.459  12.080   2.608 -0.1333  0.0025  0.0735
 4452W        W17866  12.525   6.421  15.914  0.2444  0.1839  0.0746
 4453W        W17867  12.436  10.815  15.818 -0.2164 -0.1169 -0.0282
 4454W        W17868  12.573  10.581   4.008 -0.0889 -0.0787  0.3968
 4455W        W17869  15.905  16.671  15.136 -0.3393  0.2408 -0.1666
 4456W        W17870   1.548   8.384  16.040  0.4125 -0.4759  0.0328
 4457W        W17871  12.049  10.183  16.021 -0.2733  0.1441  0.2681
 4458W        W17872   3.500  16.537   4.243  0.1092  0.3047  0.0622
 4459W        W17873  16.595  17.061   6.185  0.1323  0.0537 -0.2087
 4460W        W17874  10.289  14.490   6.059  0.2075  0.0779 -0.1313
 4461W        W17875  14.422  10.522   6.254  0.0059  0.1022  0.1235
 4462W        W17876   5.135  15.590   5.326  0.0333 -0.4726 -0.0448
 4463W        W17877  17.370  17.677  14.419 -0.3461  0.0507 -0.2724
 4464W        W17878   9.834  13.889  11.516 -0.0673 -0.1045  0.0687
 4465W        W17879   7.260  13.378   5.834  0.0043 -0.2560 -0.0982
 4466W        W17880   8.928   5.182  14.923 -0.0863 -0.1194  0.1144
 4467W        W17881  14.429  12.009   5.949  0.2445 -0.0924 -0.1739
 4468W        W17882  12.454   7.936  15.695 -0.0576  0.1668 -0.2825
 4469W        W17883   3.592  15.078   4.525 -0.0272  0.0375 -0.1588
 4470W        W17884  14.339  13.201  14.187  0.1557 -0.0434  0.2226
 4471W        W17885   6.382   9.971  15.906 -0.0381 -0.0780  0.0408
 4472W        W17886  14.627  13.452   4.181  0.0460 -0.2005 -0.1237
 4473W        W17887  11.262   3.070  15.154 -0.2160  0.1261 -0.1928
 4474W        W17888   1.047  10.262  10.436 -0.1056  0.1909 -0.3284
 4475W        W17889   3.570   9.000   5.166 -0.0053 -0.3765 -0.0300
 4476W        W17890   9.743  11.674   1.944 -0.1096  0.0530 -0.0896
 4477W        W17891   8.741  10.219  15.745 -0.1953 -0.1159 -0.3163
 4478W        W17892   8.646   2.133   1.545 -0.1817  0.2040 -0.2965
 4479W        W17893  13.678   3.401  15.015 -0.1100 -0.0816 -0.2675
 4480W        W17894  13.658   4.002  10.365 -0.1720  0.1190 -0.1787
 4481W        W17895  12.203  15.835   5.773  0.1711  0.1456 -0.1979
 4482W        W17896   4.382  10.939   0.368 -0.2496  0.2658  0.0340
 4483W        W17897  15.680   9.665   2.339  0.1740 -0.1680  0.1282
 4484W        W17898   2.539   1.573  10.634  0.1400 -0.0149  0.2251
 4485W        W17899   9.886   0.960   0.683 -0.0697  0.4816  0.0506
 4486W        W17900   5.943  15.506  14.908  0.0335 -0.1862  0.0326
 4487W        W17901   0.194   5.680  11.862 -0.1207 -0.0182 -0.1210
 4488W        W17902   5.316   3.775  16.341  0.0463  0.1934 -0.5025
 4489W        W17903   4.431  15.496   3.931 -0.2446  0.3534  0.1854
 4490W        W17904   6.379  10.204  13.237  0.1792  0.0576  0.1534
 4491W        W17905  16.888   7.465   3.444  0.1266  0.2140 -0.1383
 4492W        W17906  14.348  15.003   6.355  0.2691  0.0154  0.0780
 4493W        W17907   0.522  17.833  13.216  0.0211  0.0527 -0.0972
 4494W        W17908   7.815  11.185  16.532 -0.1417 -0.3635 -0.1330
 4495W        W17909   0.716  12.240   4.192 -0.0494  0.0427 -0.2399
 4496W        W17910   9.298   7.127  12.403 -0.0919 -0.0911 -0.0394
 4497W        W17911   4.376  10.898   3.469 -0.0988  0.1880 -0.0868
 4498W        W17912   4.099   0.654   3.922 -0.3105  0.0251  0.1239
 4499W        W17913  14.659   2.189  13.398  0.3473 -0.0334 -0.0473
 4500W        W17914  14.371   1.126  10.033  0.1422  0.0763 -0.0750
 4501W        W17915  15.517  17.902   1.888  0.0928 -0.1975 -0.0302
 4502W        W17916   7.053  14.134  16.123 -0.2094 -0.1685 -0.1996
 4503W        W17917   0.699  12.687   9.829  0.0141 -0.0176 -0.0487
 4504W        W17918  10.186   3.545   1.059 -0.0290  0.2061  0.0740
 4505W        W17919   6.143   1.153   5.235  0.0243 -0.1005  0.2111
 4506W        W17920  17.825  12.254   2.635  0.0221  0.1125 -0.1188
 4507W        W17921   7.582   4.789  10.626 -0.1284 -0.1091  0.0637
 4508W        W17922   4.105   9.001  12.032  0.2914 -0.1556  0.0537
 4509W        W17923  13.280   1.778   0.861 -0.2282 -0.1667 -0.2054
 4510W        W17924   0.396   9.182   4.300  0.1230  0.0750  0.0110
 4511W        W17925  11.456   8.615   1.777 -0.2345 -0.0674  0.4571
 4512W        W17926  16.749  16.329   0.243  0.0025  0.3527 -0.0612
 4513W        W17927  17.554   0.158   1.425 -0.1702 -0.1566 -0.2358
 4514W        W17928  11.034  13.567   0.869  0.0596 -0.0548  0.4400
 4515W        W17929   7.145   5.225  13.612 -0.1225  0.1226 -0.1739
 4516W        W17930   2.536  13.191  12.369  0.1599  0.4437  0.0397
 4517W        W17931  11.884  15.033   6.021 -0.3148 -0.2772 -0.3337
 4518W        W17932   3.618  16.005   9.919 -0.2886  0.3057  0.1595
 4519W        W17933  17.331   5.254   5.877  0.0406  0.0623  0.0518
 4520W        W17934  10.711   3.601  10.467  0.3729  0.0171  0.0581
 4521W        W17935  10.273  11.701   4.790 -0.0895  0.0086 -0.0425
 4522W        W17936  10.168  11.198   2.591  0.1192  0.0492  0.1631
 4523W        W17937   2.660   2.933  14.301 -0.0572 -0.0533  0.2374
 4524W        W17938   5.598  12.332   1.238 -0.1573 -0.0014 -0.3802
 4525W        W17939  17.835   2.766   3.173  0.3017 -0.1903  0.1122
 4526W        W17940  14.850   3.532   2.504  0.0448  0.2673  0.0608
 4527W        W17941   2.498   3.991   2.211  0.1114  0.2108 -0.0175
 4528W        W17942   7.936  13.798  11.697 -0.0535  0.1717 -0.2479
 4529W        W17943  17.864  11.898  16.353  0.0887  0.4912  0.1757
 4530W        W17944  16.818   6.523  16.199  0.1869 -0.1857 -0.1637
 4531W        W17945  11.768   7.923   1.608  0.1010 -0.0142 -0.1627
 4532W        W17946  15.596  13.061   3.778 -0.2421 -0.1361  0.0099
 4533W        W17947   2.852   2.636   2.907  0.0860 -0.2306  0.3409
 4534W        W17948  10.019  17.662  11.417  0.1619  0.3166 -0.1845
 4535W        W17949  12.856  14.276   5.510  0.0625 -0.0160  0.0599
 4536W        W17950  16.612   2.713   2.620 -0.1442 -0.0299 -0.3586
 4537W        W17951  11.694   6.064  13.282  0.0857  0.1260 -0.0757
 4538W        W17952   9.994   4.508   2.533  0.0775 -0.0195 -0.3422
 4539W        W17953  12.204   4.567   2.181  0.0834 -0.0334  0.0485
 4540W        W17954   5.667  11.096  13.502  0.0613  0.2191 -0.1493
 4541W        W17955   2.042   3.726  14.675  0.2907 -0.1265 -0.1549
 4542W        W17956   6.879   3.785   0.496  0.1106 -0.0512  0.0116
 4543W        W17957  16.254  12.101   4.084 -0.0843 -0.3323 -0.0016
 4544W        W17958   3.019  15.159  11.635  0.3063  0.2464  0.1302
 4545W        W17959  16.153   3.217   1.139  0.2983  0.0145 -0.0825
 4546W        W17960  10.425  15.419   0.067 -0.1538 -0.1712  0.1166
 4547W        W17961   2.496   9.947  16.191 -0.1024  0.2285 -0.0778
 4548W        W17962  16.233  11.824  15.028  0.0665  0.4785 -0.1708
 4549W        W17963   7.173  13.014  15.934  0.1854  0.1012 -0.3770
 4550W        W17964   0.068  16.570  13.558  0.2993 -0.1291 -0.0411
 4551W        W17965   1.699   9.598   5.745  0.0041  0.1501 -0.0821
 4552W        W17966  11.273   9.566  15.121 -0.0142 -0.1098 -0.1212
 4553W        W17967  15.356   5.553  15.142 -0.1403 -0.0296  0.0522
 4554W        W17968   1.011  13.499  10.414 -0.0547  0.0260  0.0153
 4555W        W17969   9.518   6.464  13.173 -0.1019  0.0180 -0.0650
 4556W        W17970   1.013   6.906  16.637  0.3178  0.0361 -0.1271
 4557W        W17971  14.953   8.906   3.831 -0.4133 -0.2868 -0.0788
 4558W        W17972  11.423   1.589   0.938  0.0264 -0.0210 -0.0164
 4559W        W17973  16.204   9.080   2.791 -0.1919  0.0663  0.0578
 4560W        W17974   4.816   8.818   4.718  0.0092  0.3119 -0.0999
 4561W        W17975  15.419   2.816   1.287 -0.0481 -0.1237 -0.3515
 4562W        W17976  13.563  13.829  13.829  0.2121  0.0711 -0.1578
 4563W        W17977   7.650  10.962   1.054 -0.3062 -0.0593 -0.1025
 4564W        W17978  10.099  17.176   2.400  0.2058  0.4144  0.1113
 4565W        W17979  15.000  16.776   4.309  0.0282 -0.1218 -0.1153
 4566W        W17980   3.575   4.703   0.806 -0.1168  0.2783  0.2520
 4567W        W17981  11.389   3.466   0.461 -0.0024 -0.0557 -0.1992
 4568W        W17982   3.758   8.587   0.162 -0.0141  0.1322  0.0893
 4569W        W17983   1.136   0.082  15.658 -0.1516 -0.1960  0.1951
 4570W        W17984  12.442   9.510  16.781  0.0948 -0.0628 -0.1650
 4571W        W17985  10.471   6.097  16.428 -0.0926 -0.0102 -0.2521
 4572W        W17986   8.173   6.954   0.965  0.0594  0.2128 -0.1690
 4573W        W17987  17.616   7.523   2.100  0.0202 -0.0540  0.2382
 4574W        W17988   5.384   3.689   5.905 -0.1264  0.2147  0.1835
 4575W        W17989  15.263   5.986  13.412 -0.1641  0.0919  0.0395
 4576W        W17990   5.752   9.249   1.762 -0.0650 -0.0592  0.0444
 4577W        W17991   9.868  16.455   3.431 -0.1564 -0.0096 -0.2596
 4578W        W17992  11.810   1.604   5.341 -0.3497  0.0250  0.2484
 4579W        W17993   2.510  16.431  13.537  0.2484  0.1622  0.2016
 4580W        W17994   7.581  10.154   2.065 -0.1352  0.1153 -0.1151
 4581W        W17995   4.370   3.729  11.187  0.3821  0.1835 -0.0633
 4582W        W17996   5.152   1.715  10.482  0.0655 -0.1882 -0.1098
 4583W        W17997  15.731  17.802   4.480 -0.0422 -0.0421 -0.0303
 4584W        W17998  13.140  16.252   5.419  0.0974  0.0809 -0.3316
 4585W        W17999   9.728   1.232  12.522 -0.1641 -0.3253 -0.1518
 4586W        W18000   6.457   6.232  12.193 -0.0478 -0.1735 -0.0367
 4587W        W18001  17.865  11.156   3.165 -0.0851 -0.2160  0.2320
 4588W        W18002  14.266   8.456   2.216  0.1527 -0.0740 -0.2824
 4589W        W18003   2.264   7.453  13.410  0.3346 -0.2367 -0.1102
 4590W        W18004   2.214  12.611  14.624 -0.1404  0.2381 -0.2155
 4591W        W18005   5.687   5.274   0.411 -0.2355  0.1636  0.4201
 4592W        W18006   9.412  16.948   2.247 -0.0554  0.1371 -0.2508
 4593W        W18007   6.057   7.309  14.762  0.1714  0.2329  0.2576
 4594W        W18008  14.098  11.725   3.586  0.0006 -0.1165 -0.0288
 4595W        W18009   1.402  11.412  15.064 -0.1174  0.1052  0.2647
 4596W        W18010   0.090   3.113   1.751 -0.2688  0.0210 -0.1411
 4597W        W18011  15.212  16.515   0.950  0.2752  0.0025 -0.4019
 4598W        W18012   4.864   2.732   3.488  0.2352 -0.3410 -0.1020
 4599W        W18013   0.799   4.081   4.784 -0.1296  0.2251 -0.0330
 4600W        W18014   6.661   1.310   5.309 -0.0961  0.1156  0.2849
 4601W        W18015   2.350   7.963  11.188 -0.0495  0.0967 -0.1168
 4602W        W18016  13.393   6.076  11.024  0.1966  0.0442  0.3191
 4603W        W18017  13.278   3.336  11.751  0.1053 -0.0293  0.1216
 4604W        W18018  14.769  15.958   1.948 -0.1049 -0.2506 -0.1404
 4605W        W18019  16.902  15.796   5.369 -0.0594  0.1693  0.3353
 4606W        W18020  15.050  14.358  10.637 -0.0733 -0.1391  0.1553
 4607W        W18021   1.564  13.459   5.371 -0.1477 -0.0131 -0.3245
 4608W        W18022   7.876   6.633  14.554 -0.1260 -0.0040 -0.1519
 4609W        W18023   9.964   6.718   1.288  0.3383 -0.1542 -0.3417
 4610W        W18024  15.895  11.127  15.061 -0.0741  0.1531 -0.2229
 4611W        W18025  13.071  10.460   6.321  0.3505 -0.0341 -0.0217
 4612W        W18026   6.347   1.346   4.438 -0.0703 -0.0338 -0.0893
 4613W        W18027  12.457  14.867   2.093 -0.0072 -0.1589  0.1643
 4614W        W18028   9.190   2.721  14.713  0.1455  0.0574  0.1196
 4615W        W18029  13.646   6.880  14.800  0.0842  0.1440 -0.1039
 4616W        W18030  16.080  14.369   0.593  0.0318 -0.2549  0.0813
 4617W        W18031   1.467  14.758   0.417 -0.1709 -0.2190 -0.0457
 4618W        W18032   3.902   3.403  10.643  0.1633  0.4383 -0.2238
 4619W        W18033  14.943   3.402  11.452  0.0743 -0.0785  0.1827
 4620W        W18034  16.293  17.474  13.022  0.1731 -0.0596  0.0667
 4621W        W18035   7.030  12.339  13.406  0.2826 -0.2734 -0.0624
 4622W        W18036  11.702   6.597   4.413  0.0752  0.1337 -0.0733
 4623W        W18037   1.075   2.977  16.721 -0.1229 -0.0902  0.4504
 4624W        W18038   0.905   4.579   4.639 -0.3019  0.1221  0.1620
 4625W        W18039   1.431   0.080  16.065 -0.0535 -0.3801 -0.1672
 4626W        W18040   6.462   8.564   6.502 -0.2844 -0.1777  0.1979
 4627W        W18041   3.902   1.687  16.326  0.1438 -0.1104 -0.1516
 4628W        W18042  17.336  14.638  16.169  0.2546  0.2313 -0.2071
 4629W        W18043   4.671  10.784  12.444  0.4815  0.1194 -0.0585
 4630W        W18044   6.497  17.322   0.978 -0.1622  0.3006  0.0306
 4631W        W18045   7.314   7.734  14.397  0.1767 -0.1794 -0.0309
 4632W        W18046   6.452   5.032  10.215  0.0255 -0.2828 -0.4533
 4633W        W18047  14.085  15.745   4.244  0.1045 -0.0937  0.0587
 4634W        W18048  15.358   8.077   1.737 -0.2308  0.0096  0.2799
 4635W        W18049   9.226  10.002  11.175  0.1997  0.3515 -0.0768
 4636W        W18050   4.208   5.146   3.127 -0.1920  0.2563  0.0576
 4637W        W18051  11.858  11.033   3.091 -0.3171  0.2385 -0.0422
 4638W        W18052  12.974   4.826   2.772 -0.0371 -0.2794  0.1632
 4639W        W18053  16.976  16.516  10.311  0.0669 -0.0572  0.0978
 4640W        W18054   1.994   5.139   3.768  0.0538 -0.0167 -0.1448
 4641W        W18055  12.390   2.147   4.817 -0.0757 -0.0483  0.1918
 4642W        W18056  14.188   6.009  12.300 -0.1173  0.0623  0.0370
 4643W        W18057  13.465   9.881   5.712 -0.1942  0.1547 -0.2533
 4644W        W18058  11.341   8.411   3.106 -0.2200  0.1091  0.3618
 4645W        W18059   8.770   6.521  12.437  0.1102 -0.3167 -0.2503
 4646W        W18060   3.873   4.850  12.555 -0.3142  0.3603  0.0894
 4647W        W18061  14.774   1.275   2.179 -0.0199 -0.0906  0.1440
 4648W        W18062  10.380  13.431  14.793  0.0625  0.0703 -0.1252
 4649W        W18063   8.814  11.583  14.715  0.0239  0.0953 -0.0623
 4650W        W18064  14.434   7.235  14.461 -0.1894 -0.1708  0.1865
 4651W        W18065  16.441  13.270  15.177 -0.1195 -0.1984 -0.0406
 4652W        W18066  15.932   2.676   4.431  0.0950  0.2522  0.0017
 4653W        W18067   4.843  16.002   4.796  0.1211 -0.1293  0.0785
 4654W        W18068  16.969   4.047  13.317  0.0423 -0.4048 -0.1647
 4655W        W18069  11.093   2.460  12.375  0.0545  0.0229  0.1268
 4656W        W18070   0.269  13.177   0.421  0.0081  0.1651 -0.0382
 4657W        W18071  15.578   6.064  12.174  0.0615  0.0543 -0.1895
 4658W        W18072   4.764   0.603   2.065 -0.0962 -0.2373  0.0909
 4659W        W18073   7.002   8.688   6.111 -0.0947  0.0906  0.0213
 4660W        W18074   4.480  12.416  11.259  0.2708  0.1197 -0.4990
 4661W        W18075   4.636   9.215  12.283  0.0109  0.0436 -0.0913
 4662W        W18076   5.205   9.616  15.041 -0.0252  0.3532 -0.0275
 4663W        W18077  14.131  13.847   1.954  0.0347  0.2139 -0.0727
 4664W        W18078   3.418  16.808  14.700  0.0686  0.1767  0.2219
 4665W        W18079   1.821  11.404  13.635  0.1392 -0.0686  0.0379
 4666W        W18080  11.325   1.322   3.614 -0.2957  0.2588 -0.0786
 4667W        W18081   7.721  13.420  14.432  0.0416 -0.0945  0.4867
 4668W        W18082  17.845   5.106  13.267  0.0144 -0.1064 -0.3290
 4669W        W18083   5.387  11.898   5.998  0.0121 -0.1760 -0.1920
 4670W        W18084   9.994   7.108  13.003  0.2180 -0.2322 -0.0716
 4671W        W18085  13.572  15.009   0.764  0.0629 -0.1660  0.0558
 4672W        W18086  12.901   7.462   3.484  0.3322 -0.0191  0.1626
 4673W        W18087  14.295   0.126   1.314 -0.1593 -0.2112  0.1064
 4674W        W18088   4.491   2.929   1.551 -0.0310  0.0908  0.1320
 4675W        W18089  15.337   3.393  12.256 -0.1980  0.2467 -0.1549
 4676W        W18090  17.382  12.776   4.240  0.0062  0.0691  0.0996
 4677W        W18091  12.497  13.012   1.801 -0.0118  0.1442  0.2181
 4678W        W18092  13.220   1.301   0.707 -0.2416  0.0688 -0.0358
 4679W        W18093   3.201  14.214   4.586  0.1220  0.0388  0.0603
 4680W        W18094   6.639   2.882  13.299 -0.2850  0.2134 -0.0789
 4681W        W18095   2.558   4.632  13.622  0.1259  0.1032  0.2806
 4682W        W18096  10.573   1.701   1.456  0.2324 -0.0912  0.2045
 4683W        W18097  16.449   5.835   0.490 -0.8610  0.0165  0.1070
 4684W        W18098  14.265  16.494  14.566  0.0403  0.1882 -0.1415
 4685W        W18099   2.085   8.366  11.558  0.0983  0.0344 -0.1319
 4686W        W18100   0.019  17.748   2.163 -0.6101  0.0931  0.0108
 4687W        W18101   2.420   8.543  14.368  0.4099  0.1744  0.0016
 4688W        W18102  12.409   0.573   0.238  0.0454  0.0759 -0.0567
 4689W        W18103   2.112   7.260   2.719  0.1557  0.0578 -0.2536
 4690W        W18104  13.575   4.952   2.831  0.1950 -0.1007  0.0386
 4691W        W18105  10.607   2.488  12.308 -0.2276 -0.0736 -0.1410
 4692W        W18106   6.509   3.360   3.623 -0.1147 -0.2311 -0.4099
 4693W        W18107   4.273   9.675   0.975 -0.2580  0.2335 -0.2319
 4694W        W18108  10.836  15.133   4.013  0.1665  0.0498  0.1222
 4695W        W18109  14.262  15.777   2.190 -0.0033 -0.0869  0.4306
 4696W        W18110  14.642  10.747   4.903  0.1243  0.0870 -0.0175
 4697W        W18111   0.079  13.680  16.765 -0.2035 -0.0553  0.2200
 4698W        W18112   8.932   8.774  10.981  0.2908 -0.1965 -0.0667
 4699W        W18113   1.312  17.608  12.846  0.0265 -0.1264 -0.0662
 4700W        W18114  10.933   6.086  14.927 -0.2963 -0.3684  0.2281
 4701W        W18115   0.073   3.910  16.118 -0.1851 -0.3522  0.1275
 4702W        W18116   0.242  13.037  13.354  0.0193  0.2326  0.3529
 4703W        W18117   7.833  17.851   3.015  0.0259  0.3312 -0.0764
 4704W        W18118  15.846   5.770  13.896  0.2881  0.2398 -0.0037
 4705W        W18119  10.827   7.978  11.797 -0.0237  0.0953  0.2572
 4706W        W18120   8.918  11.087  15.446 -0.1504 -0.0513 -0.2541
 4707W        W18121   6.870   5.698  10.687 -0.0319  0.2547 -0.0869
 4708W        W18122  15.330  17.271  11.840  0.2239  0.4828 -0.1355
 4709W        W18123  10.655  10.042   0.243 -0.2306  0.3278  0.4005
 4710W        W18124  13.305  12.228   4.718  0.0677  0.0373  0.2077
 4711W        W18125   3.997   5.839  12.066  0.2494  0.0752  0.1815
 4712W        W18126   8.333  13.541   4.777 -0.3336 -0.0778  0.1971
 4713W        W18127   9.887   7.331   2.489 -0.0936 -0.1064  0.1052
 4714W        W18128   2.917   6.317  10.677 -0.0507  0.0055 -0.2923
 4715W        W18129   0.888  17.246  12.329 -0.0017  0.0029 -0.1217
 4716W        W18130   8.637   6.239   2.511 -0.4586  0.1395 -0.0658
 4717W        W18131   5.120  14.689   2.186  0.2840 -0.0629  0.2948
 4718W        W18132   4.022  14.572  13.283  0.0522  0.1148  0.3199
 4719W        W18133  13.780  16.746  10.940  0.1472  0.0722 -0.1568
 4720W        W18134   6.255  10.352   1.401  0.2412 -0.1062 -0.2602
 4721W        W18135   7.822  11.435  10.949 -0.0716 -0.2424  0.1210
 4722W        W18136   6.916  15.233  16.761 -0.0993  0.1222 -0.1256
 4723W        W18137   4.111   9.236   2.681  0.0940 -0.0332 -0.1171
 4724W        W18138  14.482   1.867  13.029  0.1562 -0.0205  0.1460
 4725W        W18139   0.311  10.057  16.768 -0.0759 -0.0371 -0.6134
 4726W        W18140   3.459   0.207   4.606  0.2156 -0.2898  0.2974
 4727W        W18141   0.644   8.719   4.084 -0.1073 -0.0936  0.0065
 4728W        W18142   6.342  10.502  15.091 -0.0231  0.0137  0.0776
 4729W        W18143  17.442  15.247   0.517  0.3600 -0.0568  0.2270
 4730W        W18144  13.183  12.203   2.937  0.1399  0.0587 -0.1430
 4731W        W18145   3.668   3.593  15.276  0.1927 -0.1731 -0.1664
 4732W        W18146  16.579   8.311   2.056 -0.4089  0.0880  0.1003
 4733W        W18147   0.227  13.455  10.831 -0.1315  0.0552  0.2342
 4734W        W18148   3.193  12.790  14.600 -0.0843  0.0124  0.2483
 4735W        W18149   0.319   9.618  12.106 -0.0209 -0.2845 -0.0330
 4736W        W18150   7.091   5.017  12.607 -0.1786 -0.1338  0.2691
 4737W        W18151   4.512   2.185  16.310 -0.2942 -0.1635  0.0302
 4738W        W18152   0.657   7.373   4.077  0.1888 -0.2149 -0.2455
 4739W        W18153  10.224   1.397   0.593  0.0727 -0.1173  0.1877
 4740W        W18154  13.526   5.165  10.740  0.0337  0.2894  0.0470
 4741W        W18155  11.306  13.227  11.675 -0.0726 -0.2651  0.0351
 4742W        W18156  14.694  14.664   0.263 -0.2121  0.2000 -0.1738
 4743W        W18157   2.972   7.994   5.015 -0.1239  0.0183  0.1026
 4744W        W18158  12.537   2.724  15.213  0.2840  0.4312 -0.3288
 4745W        W18159   0.326  10.729   1.877 -0.1217 -0.0494  0.0547
 4746W        W18160   5.953  16.514  12.854  0.0702  0.1120  0.1399
 4747W        W18161  10.164  10.462   3.257 -0.3396  0.2099  0.3043
 4748W        W18162  15.370  14.193  14.280  0.0685  0.2569  0.1188
 4749W        W18163   1.680   4.576  10.760 -0.1606 -0.1181 -0.2338
 4750W        W18164  12.492  13.247   6.873 -0.0115 -0.1589  0.0452
 4751W        W18165   1.035   2.655   0.376 -0.0993  0.0780  0.0667
 4752W        W18166  11.393  14.022  12.739 -0.1519  0.0484 -0.2048
 4753W        W18167  10.402   4.857   0.813 -0.3255 -0.0654 -0.1965
 4754W        W18168   3.495  11.927  13.320 -0.0159 -0.4025 -0.0845
 4755W        W18169   7.593  17.493   2.104 -0.0615 -0.2843 -0.0438
 4756W        W18170  16.575   6.788  12.655 -0.0430 -0.3236 -0.1247
 4757W        W18171   0.010   6.838  15.439  0.2377  0.2470  0.2216
 4758W        W18172  12.878   1.524   1.120 -0.2315  0.0393 -0.2581
 4759W        W18173  17.871  10.959  13.195 -0.0585 -0.3339 -0.0646
 4760W        W18174  13.845  15.352   0.451  0.1832 -0.1769 -0.2011
 4761W        W18175   3.401   7.330  15.960  0.0996 -0.1409 -0.0460
 4762W        W18176  10.035  14.647  16.007  0.0976 -0.1149 -0.1303
 4763W        W18177  14.468   8.606   5.956  0.1776  0.0724 -0.1700
 4764W        W18178   1.373   8.070   0.690  0.0742 -0.0269  0.0376
 4765W        W18179  16.898  17.756   0.946 -0.0722  0.0128  0.0143
 4766W        W18180   8.560  11.575  13.574  0.1463 -0.1138  0.0641
 4767W        W18181   0.614   4.790   0.091  0.1047 -0.0392 -0.0550
 4768W        W18182   2.325  13.204   2.818 -0.0580 -0.2338  0.0966
 4769W        W18183  10.893  16.563   5.373  0.1502 -0.2783 -0.0556
 4770W        W18184   1.707   2.978  11.944 -0.0448  0.4707 -0.1412
 4771W        W18185   5.787  11.605   1.971 -0.0962  0.3059 -0.2492
 4772W        W18186   4.596  16.438  14.233  0.0221  0.0509  0.0504
 4773W        W18187   0.182   1.838   2.309 -0.2017 -0.0185  0.0965
 4774W        W18188   4.038  11.556  14.640 -0.1948 -0.4071 -0.1425
 4775W        W18189   9.421  11.922  13.522 -0.2134  0.0076 -0.2939
 4776W        W18190  17.709  11.473  11.595  0.1570 -0.0891  0.2147
 4777W        W18191   0.225  13.564   4.170 -0.0545 -0.2536  0.0337
 4778W        W18192   2.965  12.613  16.537  0.1074 -0.0558  0.0807
 4779W        W18193   5.408  12.224   0.266 -0.0865  0.1397 -0.2961
 4780W        W18194  10.187   9.055  15.993  0.2540 -0.0420  0.0837
 4781W        W18195  14.756  10.975   0.631 -0.2020  0.3278 -0.2080
 4782W        W18196   6.293   0.332  13.344  0.1361 -0.0323 -0.0846
 4783W        W18197  17.959   6.520  14.260 -0.1471  0.0210 -0.1979
 4784W        W18198  13.117   8.344   2.411 -0.0591  0.0442 -0.1030
 4785W        W18199   9.316   2.171  12.409 -0.1484 -0.1314 -0.4504
 4786W        W18200   2.557   8.800  16.422  0.0798 -0.1106 -0.3040
 4787W        W18201   0.963  11.396   6.464 -0.2553  0.0916  0.0889
 4788W        W18202  13.890  12.780   1.623 -0.0662 -0.1546 -0.1416
 4789W        W18203   3.099   9.464   5.856  0.3553 -0.1020  0.2133
 4790W        W18204  13.646  11.042   2.593  0.2329 -0.1233 -0.2591
 4791W        W18205  10.246   0.331   0.541 -0.2934 -0.1269 -0.1751
 4792W        W18206   6.809   4.530   2.859  0.1684 -0.0810 -0.0645
 4793W        W18207   2.376  10.035  16.652  0.3368 -0.2399  0.4172
 4794W        W18208  17.739  11.765  10.255 -0.0446  0.1448 -0.3297
 4795W        W18209   2.040  16.061  16.687 -0.0955  0.0138  0.0775
 4796W        W18210   8.433   6.080  16.718  0.0062 -0.1082 -0.3142
 4797W        W18211   5.525  16.948  16.311  0.2624 -0.1232  0.2059
 4798W        W18212  13.533  16.441  12.198  0.0837  0.1278  0.2347
 4799W        W18213   9.795   7.224   1.742  0.1084 -0.2926 -0.1202
 4800W        W18214   8.730  17.305   1.964 -0.3788  0.0389  0.3406
 4801W        W18215   3.860   2.098   5.575  0.1478 -0.0404 -0.2303
 4802W        W18216   2.691   4.571  14.586 -0.4116 -0.0016 -0.0132
 4803W        W18217  14.881   5.380  13.218 -0.2516 -0.0097 -0.0146
 4804W        W18218  17.489   8.020   2.214 -0.0306 -0.1799  0.0481
 4805W        W18219   8.237  17.379  14.146  0.0594  0.0092  0.2414
 4806W        W18220   1.919  12.655  14.158  0.3434  0.1167  0.0278
 4807W        W18221   0.226  10.213   2.661 -0.2204 -0.2469  0.0397
 4808W        W18222   4.570   1.321  16.000  0.2831  0.1058  0.0917
 4809W        W18223  17.248   6.484   5.000 -0.2700 -0.0926  0.0436
 4810W        W18224   4.100  14.761  10.653  0.3963 -0.2306  0.0119
 4811W        W18225  12.022  16.208  16.258 -0.2957  0.0906 -0.1133
 4812W        W18226   3.355   7.626   5.811  0.2508 -0.1279 -0.3153
 4813W        W18227  16.069  13.562   5.599 -0.3493  0.0172  0.0887
 4814W        W18228  17.229   4.551   4.580 -0.0477  0.1920 -0.1501
 4815W        W18229   0.256   6.834  11.118 -0.0094  0.0898 -0.1809
 4816W        W18230   0.579  14.311   0.594  0.0101  0.0581  0.0506
 4817W        W18231  10.351   9.099  13.810 -0.1375 -0.0748 -0.0864
 4818W        W18232  10.065   3.414  13.563 -0.0085  0.2629 -0.1946
 4819W        W18233   5.806  17.544   2.823  0.1134  0.0004 -0.0567
 4820W        W18234   0.985   7.725   3.029  0.1884  0.0935 -0.0875
 4821W        W18235   4.487   1.283  13.804 -0.1325  0.4074 -0.4131
 4822W        W18236   3.611  10.789  11.369 -0.1874  0.2740 -0.1187
 4823W        W18237  11.740   4.081   0.858  0.2002 -0.0065 -0.1070
 4824W        W18238   4.776   2.224  15.801 -0.0070  0.2783  0.1723
 4825W        W18239   7.800  17.100   3.270 -0.2344  0.0643  0.1371
 4826W        W18240  17.615   1.045   4.189  0.1735 -0.0442  0.0291
 4827W        W18241   1.253   4.390  15.615  0.3683  0.0976  0.1000
 4828W        W18242  10.211   3.808  13.173 -0.1449 -0.1460 -0.0730
 4829W        W18243   3.039  12.137   1.327 -0.0519 -0.2625  0.1826
 4830W        W18244   5.429   5.146  15.469 -0.1055 -0.1948  0.2347
 4831W        W18245  14.477  18.005   4.563 -0.1955 -0.0723  0.1729
 4832W        W18246   9.206   9.140  14.788 -0.0820 -0.2255  0.1609
 4833W        W18247   3.943   4.521   5.157 -0.1056 -0.0791  0.2106
 4834W        W18248  17.102  15.562  13.639 -0.1475  0.0462  0.0878
 4835W        W18249  16.701   6.149   3.984 -0.0388  0.0516 -0.0883
 4836W        W18250   2.801  12.307   0.895  0.4457  0.1713  0.4527
 4837W        W18251   3.567   2.111  15.216  0.1591  0.3957 -0.0018
 4838W        W18252   9.891  13.237   5.495  0.0677 -0.2840 -0.0422
 4839W        W18253   6.570   7.829   3.115 -0.1717 -0.1615  0.1466
 4840W        W18254   7.928   8.234  13.888  0.0519 -0.1047 -0.1924
 4841W        W18255   1.361   3.189   4.672  0.0684 -0.0162  0.0571
 4842W        W18256  11.052  14.653  11.764 -0.2089  0.3192  0.1465
 4843W        W18257  12.575  11.086   1.041 -0.3336 -0.2395 -0.0040
 4844W        W18258  16.859   5.054   2.850  0.1087 -0.1974 -0.2816
 4845W        W18259  10.781   2.898   3.068  0.1000 -0.0029  0.0937
 4846W        W18260  16.126  17.974  13.062 -0.0054  0.2720  0.1449
 4847W        W18261   2.598   7.527  11.367  0.0415  0.2328  0.0494
 4848W        W18262   6.399  12.217   0.520  0.0172  0.0684 -0.3055
 4849W        W18263  10.459  15.503  16.299  0.3687  0.0130  0.0424
 4850W        W18264  12.920   9.842   0.677  0.1466  0.0273  0.0527
 4851W        W18265   5.255  11.663   1.835  0.2186 -0.0160 -0.0777
 4852W        W18266   5.015   5.423  10.393 -0.0155 -0.3012 -0.0868
 4853W        W18267   4.125  15.258   0.772  0.0771  0.0484 -0.2515
 4854W        W18268   3.710  17.960   3.591  0.0407 -0.2519 -0.0768
 4855W        W18269   2.176  10.750   0.011 -0.0433  0.0246  0.1290
 4856W        W18270  10.331   9.673  14.101 -0.2622 -0.2017 -0.2457
 4857W        W18271   4.563  14.710  14.612  0.0828 -0.0620 -0.0477
 4858W        W18272   6.784   2.728  12.831 -0.3537  0.1404 -0.0517
 4859W        W18273  13.650   6.674   2.612 -0.0441 -0.0418 -0.1010
 4860W        W18274   0.381  13.406   2.112  0.1311  0.0827 -0.1808
 4861W        W18275   9.338   7.116  15.185 -0.2084  0.1106  0.3611
 4862W        W18276   7.740  14.030   3.949 -0.2507  0.0409 -0.0925
 4863W        W18277  16.876   1.941  14.495  0.3061 -0.0802  0.0175
 4864W        W18278   3.731  14.416  10.666 -0.3195 -0.0361  0.0313
 4865W        W18279   6.942  12.307  15.102 -0.0940  0.0367 -0.2080
 4866W        W18280   3.314   0.841  16.140 -0.1908  0.3370  0.0846
 4867W        W18281   0.608  11.303   4.878  0.0199  0.1137  0.0341
 4868W        W18282   0.759  13.387   5.031 -0.2607 -0.1090  0.1168
 4869W        W18283  16.531  15.791  14.970 -0.1723 -0.1135 -0.0253
 4870W        W18284   2.628   1.211  16.644  0.1123 -0.1579  0.0504
 4871W        W18285  12.869   7.949  12.532  0.1436  0.1609 -0.2202
 4872W        W18286  10.820   6.031  15.405 -0.1970  0.1285  0.5337
 4873W        W18287   5.482   9.291   1.268 -0.0786 -0.0316 -0.0296
 4874W        W18288  16.721   2.575   4.133 -0.1189 -0.2538  0.1162
 4875W        W18289   8.370  11.587   2.406  0.2011  0.1458 -0.1055
 4876W        W18290  16.824   9.768   5.062  0.0145  0.0573  0.0767
 4877W        W18291   5.992   5.655  12.662  0.0668 -0.1163  0.0204
 4878W        W18292  15.701   9.417  11.929  0.0475 -0.2553  0.3429
 4879W        W18293   7.795  10.275   1.597  0.0595 -0.3085  0.1109
 4880W        W18294  15.632   5.671  11.686  0.1526 -0.1535  0.1640
 4881W        W18295   4.253  13.202  12.867 -0.0681 -0.1692  0.1383
 4882W        W18296  13.412  11.355  13.563 -0.5116  0.2545  0.2881
 4883W        W18297   9.070  12.431  15.895 -0.1768  0.0864 -0.0611
 4884W        W18298  16.071   2.657  16.012 -0.1246 -0.2407  0.1227
 4885W        W18299   4.377  16.564  13.356 -0.0558 -0.2487 -0.0578
 4886W        W18300  15.230   8.333   5.991  0.0135 -0.1804 -0.0750
 4887W        W18301  16.952  14.214   0.929 -0.1110 -0.0594  0.0698
 4888W        W18302  14.539   3.939   2.445  0.3682  0.1703 -0.1691
 4889W        W18303  15.177   7.565   6.451  0.1125 -0.3913  0.4108
 4890W        W18304  17.735  14.610  11.767  0.0802 -0.0670 -0.1403
 4891W        W18305   0.652   7.239  12.661 -0.2755 -0.0767  0.1487
 4892W        W18306   5.181   3.755   2.437 -0.1182 -0.1339  0.0027
 4893W        W18307   6.767  15.101   5.868 -0.0990 -0.2019 -0.0001
 4894W        W18308  10.255  17.532  16.528 -0.0010 -0.1277  0.0033
 4895W        W18309  15.064   0.890   1.896  0.0756  0.1679  0.1159
 4896W        W18310  14.809  13.244   3.458  0.3438 -0.1318 -0.0176
 4897W        W18311  16.273   1.770   1.004  0.0363  0.3628  0.1521
 4898W        W18312   6.830  14.109   3.606  0.2149  0.3512 -0.0515
 4899W        W18313   6.663   7.514  14.302  0.2190  0.1701 -0.0244
 4900W        W18314   5.583  16.842   2.584  0.2455  0.2098 -0.1970
 4901W        W18315   3.266   5.544   6.360  0.2890  0.2866 -0.3270
 4902W        W18316   9.334   5.085  11.539 -0.1959 -0.1717 -0.0422
 4903W        W18317  17.751   0.598   4.884 -0.0224 -0.0168 -0.0863
 4904W        W18318   1.691  11.037  16.749 -0.1904  0.3911 -0.2005
 4905W        W18319   7.255  16.263  12.666 -0.2605  0.2388 -0.0988
 4906W        W18320   2.429  11.383   1.544  0.0555 -0.1099  0.2715
 4907W        W18321  13.054   9.193  12.976  0.0153  0.2680 -0.1285
 4908W        W18322   0.235  15.961   0.105  0.1227 -0.0233  0.0217
 4909W        W18323   3.645   8.624   3.524  0.0822  0.0181  0.0570
 4910W        W18324   1.878   9.994  10.556 -0.0049 -0.0981  0.2892
 4911W        W18325   4.075   9.284  15.648  0.2391  0.0221  0.3078
 4912W        W18326   7.380   3.040   4.122 -0.1053  0.0252 -0.1094
 4913W        W18327  11.267  15.407  12.289 -0.0106  0.0171 -0.1794
 4914W        W18328   8.479   3.153   1.437  0.0492 -0.0841 -0.0136
 4915W        W18329   6.189   1.312  15.170  0.1224 -0.0356  0.0870
 4916W        W18330   8.247  15.771  15.326 -0.2091  0.1819 -0.0167
 4917W        W18331  11.489  12.612  12.288 -0.0721 -0.0470 -0.2636
 4918W        W18332  15.721  13.365  14.844  0.1033 -0.0860 -0.1113
 4919W        W18333   7.823   3.353  11.458 -0.0349 -0.0842  0.0253
 4920W        W18334   7.877  11.016   4.768 -0.2528 -0.1961  0.1148
 4921W        W18335  12.598   9.897   0.354  0.1277 -0.1199 -0.1046
 4922W        W18336  15.571  16.650   4.860  0.1993 -0.1033  0.3394
 4923W        W18337  12.909   7.706  15.667  0.3031  0.0237  0.2762
 4924W        W18338  10.731  10.874   4.749  0.0403  0.1209  0.2098
 4925W        W18339   0.653  14.144  11.951 -0.0175  0.1189  0.2744
 4926W        W18340   3.463  11.107  14.078  0.0377 -0.0875  0.1380
 4927W        W18341  12.297  17.461  16.592 -0.0195 -0.0399  0.0084
 4928W        W18342   2.577  14.898  15.845 -0.2095 -0.0925  0.0826
 4929W        W18343  12.602   3.370   2.254  0.1395  0.3477 -0.0766
 4930W        W18344   3.777  14.601  15.498 -0.0921  0.0660  0.3646
 4931W        W18345   6.698   7.184  14.702 -0.0538  0.0623  0.1062
 4932W        W18346   0.772   1.687   2.058 -0.0820  0.3509 -0.0494
 4933W        W18347  16.973   9.183  13.077  0.0803 -0.1753 -0.1242
 4934W        W18348   9.283   4.540   5.953  0.0577  0.1120 -0.1925
 4935W        W18349  13.614   1.826  11.065  0.0617 -0.0812  0.1518
 4936W        W18350   1.805  17.553   4.271  0.1945 -0.0008 -0.1999
 4937W        W18351   6.723  11.447  12.845  0.1021 -0.1174 -0.1413
 4938W        W18352   0.427  10.151  13.576 -0.0929 -0.0521 -0.1165
 4939W        W18353   5.174   0.892  12.286  0.0539  0.0773  0.1025
 4940W        W18354  16.135  12.207  12.938 -0.0497  0.1137 -0.0664
 4941W        W18355  10.426   6.611   4.477 -0.3332 -0.1076  0.1025
 4942W        W18356   5.353   8.746  14.653  0.1393 -0.2150 -0.0835
 4943W        W18357   7.007  11.224   2.745  0.1115 -0.0172 -0.0459
 4944W        W18358  16.928   6.959   3.780  0.1100 -0.1926  0.0582
 4945W        W18359   2.264   9.247   0.012  0.1823 -0.2882 -0.1392
 4946W        W18360   3.879   7.541   2.625 -0.1522 -0.0615  0.0873
 4947W        W18361  11.247   6.181  13.483  0.0973  0.0304 -0.1758
 4948W        W18362  14.961   8.260   0.080 -0.1773 -0.0548 -0.0179
 4949W        W18363   6.536  12.624  11.409 -0.0554 -0.1221  0.1470
 4950W        W18364   9.810   6.431  15.779  0.1539  0.0999  0.0269
 4951W        W18365  11.690   1.879  11.947 -0.1928 -0.0929 -0.0596
 4952W        W18366   5.542   0.130   4.519 -0.2980 -0.2529 -0.1726
 4953W        W18367  10.410   6.204   2.402  0.0278 -0.0425  0.1151
 4954W        W18368   8.187  16.673   1.133 -0.1169 -0.1899  0.2129
 4955W        W18369   2.869   7.609   5.980 -0.4909 -0.0785 -0.1190
 4956W        W18370  11.676   3.592  16.316  0.0294  0.0445  0.2398
 4957W        W18371  15.954  13.618  16.440 -0.2367  0.2042  0.0100
 4958W        W18372   3.665  13.859   0.456  0.0433  0.0041  0.0876
 4959W        W18373   0.855   5.903   5.223 -0.0010  0.1427 -0.0299
 4960W        W18374   7.883  13.648   7.057 -0.1007  0.1547  0.1418
 4961W        W18375   0.378  16.410   1.472  0.1858 -0.1111 -0.0072
 4962W        W18376   3.684  12.400   3.077 -0.0588  0.1562  0.1231
 4963W        W18377   6.316  11.133  13.007 -0.0919  0.3635 -0.1152
 4964W        W18378   9.743  11.547   3.658 -0.1148 -0.2500  0.0702
 4965W        W18379  10.544   0.364  13.854  0.5266  0.1466  0.0851
 4966W        W18380  12.662  16.165  13.680 -0.1851  0.0494 -0.0571
 4967W        W18381   1.186   4.592  12.165 -0.1403 -0.1637 -0.2494
 4968W        W18382  12.194  12.649   3.737  0.2993  0.5499  0.0410
 4969W        W18383  13.871  10.651  10.772 -0.0071 -0.5059 -0.3264
 4970W        W18384  15.967   9.769   0.383  0.1839  0.1159 -0.0457
 4971W        W18385   3.869   1.133  13.573  0.1579  0.4667  0.1299
 4972W        W18386   3.260  13.015   1.830  0.6304  0.1853  0.0563
 4973W        W18387   4.733  16.770  14.912 -0.1167 -0.0699 -0.2002
 4974W        W18388  16.136   6.251   5.886 -0.0765  0.0748 -0.0770
 4975W        W18389  12.922  14.167   3.174 -0.2571 -0.1012 -0.0883
 4976W        W18390   5.410   5.723  10.399 -0.1300  0.1008  0.1830
 4977W        W18391   5.575   9.904   3.928 -0.3144  0.3944 -0.1264
 4978W        W18392  12.230   6.351  16.351 -0.0024  0.1061  0.2071
 4979W        W18393  14.667   8.479   5.286 -0.0597  0.3277 -0.2194
 4980W        W18394   0.346   3.152  13.300  0.0072 -0.0136  0.3201
 4981W        W18395  15.804  11.489   5.558  0.0018  0.1483 -0.1972
 4982W        W18396  11.956   5.196   3.531  0.0036  0.2239  0.0323
 4983W        W18397  11.523   1.435   2.004 -0.3418 -0.2480  0.0029
 4984W        W18398   2.665   3.651   1.267  0.1361 -0.2309  0.0851
 4985W        W18399   6.079   1.649  12.296  0.2019 -0.3769  0.0105
 4986W        W18400  12.974   0.406  11.535 -0.1051 -0.1584 -0.2631
 4987W        W18401  14.949   0.598   2.314  0.0026  0.1191  0.0779
 4988W        W18402   7.231   9.954  16.662  0.0318  0.0888 -0.1487
 4989W        W18403   4.658   9.776  12.810  0.0335 -0.2527 -0.1391
 4990W        W18404   9.968   5.237   3.428 -0.0672  0.1053  0.0556
 4991W        W18405   5.481  13.097   1.694 -0.1278 -0.0164  0.1352
 4992W        W18406   3.122  11.387   4.598 -0.2638  0.1563  0.2753
 4993W        W18407   7.124   6.278   2.109  0.0296  0.0864 -0.0083
 4994W        W18408  16.752  10.539  14.261  0.1463  0.1333  0.0170
 4995W        W18409  15.892   2.695   2.015 -0.2202 -0.0444  0.0139
 4996W        W18410  13.965  14.125   4.538  0.0706  0.1307  0.0032
 4997W        W18411   0.859   5.567  14.168 -0.0550  0.1154 -0.0008
 4998W        W18412   9.293  17.098  13.932 -0.1751  0.0302 -0.1758
 4999W        W18413  10.615   4.703  16.069 -0.1277 -0.3076 -0.2017
 5000W        W18414   2.152   8.574   1.959  0.2003 -0.1862  0.2678
 5001W        W18415  16.536  13.297   0.873  0.1206 -0.0304  0.1910
 5002W        W18416  10.320  14.394   1.894  0.0738  0.1753 -0.3331
 5003W        W18417   2.184   6.573  15.732  0.0171 -0.2433 -0.0352
 5004W        W18418   2.956  14.466   4.259  0.1290  0.1725  0.1850
 5005W        W18419   8.078   0.459   3.205 -0.1235  0.2346 -0.0393
 5006W        W18420   8.612  14.879   1.937 -0.1303  0.1986 -0.1250
 5007W        W18421   1.888   4.268  13.155  0.0730 -0.0844 -0.0629
 5008W        W18422  14.810  14.657   1.602 -0.0610 -0.0104 -0.1475
 5009W        W18423   9.966   1.153  15.665  0.0503 -0.0598  0.0297
 5010W        W18424   6.028   9.300   4.666  0.3392 -0.1354 -0.2255
 5011W        W18425  16.661  14.183   4.133  0.2126 -0.2149 -0.4360
 5012W        W18426   6.727  11.820   1.967  0.1871  0.0883 -0.2367
 5013W        W18427   4.067  14.881  16.403  0.4204  0.0950 -0.0141
 5014W        W18428   3.290  17.957  13.536  0.2827  0.1172 -0.0394
 5015W        W18429   2.783  15.160  12.195 -0.0218 -0.0042 -0.0903
 5016W        W18430   4.426   1.471  12.815  0.1658  0.1098  0.1536
 5017W        W18431  14.052   9.552  15.911 -0.0461  0.2314  0.0572
 5018W        W18432   7.264  16.964   1.682 -0.1489  0.0120 -0.0585
 5019W        W18433   5.402  14.852   4.568  0.0089  0.0910  0.2052
 5020W        W18434  17.687  10.732   1.240  0.1610 -0.0802  0.0764
 5021W        W18435  14.951  10.696  16.621  0.0121 -0.3343  0.1013
 5022W        W18436   3.834   2.989   1.503  0.1213 -0.2513 -0.0460
 5023W        W18437   5.861   5.875  11.030  0.0417 -0.1092  0.2410
 5024W        W18438   6.040   3.378  15.201  0.0427  0.2016  0.1502
 5025W        W18439   2.421   4.224   1.306  0.0461 -0.0923  0.2146
 5026W        W18440  11.327  16.195  14.207 -0.2640  0.0377 -0.3694
 5027W        W18441   7.457  11.944   3.234  0.1187 -0.2077 -0.0957
 5028W        W18442   2.898  12.078   3.014 -0.0637  0.2388  0.2169
 5029W        W18443  16.066   7.808  15.289  0.1726 -0.3218  0.0846
 5030W        W18444  10.824  17.081   2.076 -0.1407 -0.2178 -0.0354
 5031W        W18445   3.653  11.704   6.148  0.2291  0.3072  0.0209
 5032W        W18446   8.716  10.765  13.344  0.2406 -0.0562 -0.0042
 5033W        W18447   5.855   3.679   0.067  0.1561 -0.1690 -0.1643
 5034W        W18448   3.953   0.517   2.492 -0.1013  0.2002  0.1951
 5035W        W18449   4.211   4.724  13.770 -0.1734  0.1124  0.1118
 5036W        W18450  16.999  12.290   0.322  0.1664  0.0758  0.2203
 5037W        W18451  12.657   8.123   4.035 -0.0411  0.0033 -0.1687
 5038W        W18452  10.700  14.954  10.910 -0.1417 -0.0013  0.1446
 5039W        W18453   8.940  15.212  15.699  0.0804  0.1230  0.0370
 5040W        W18454   3.974   7.617  13.541  0.0222  0.1791 -0.2896
 5041W        W18455   8.013   8.809  15.842 -0.1130  0.0695  0.1043
 5042W        W18456   7.168  15.536   4.912  0.1704  0.0814  0.0095
 5043W        W18457   2.579   1.709   3.837 -0.1133 -0.0880  0.1751
 5044W        W18458   7.015  13.052   6.267  0.0452 -0.0302 -0.1920
 5045W        W18459  10.486  10.192  13.287  0.0922 -0.1620 -0.0484
 5046W        W18460  15.443   2.176  16.434 -0.0929 -0.1689  0.0058
 5047W        W18461  15.851   0.010   5.889  0.2062  0.1203 -0.1960
 5048W        W18462   7.106   1.463  13.264 -0.0870 -0.0767  0.2920
 5049W        W18463   4.136  10.701  13.510  0.1165 -0.1458 -0.2174
 5050W        W18464   6.873  13.641  10.651 -0.0579  0.0997  0.0718
 5051W        W18465   9.786  15.776   0.889  0.0830  0.0634  0.0852
 5052W        W18466   9.149  17.526   2.084 -0.1274  0.0119 -0.3284
 5053W        W18467  12.918   5.116  14.651  0.0396  0.3613 -0.3934
 5054W        W18468  16.544   2.591  16.274  0.0985 -0.1399 -0.2918
 5055W        W18469   1.279   5.343   4.428  0.0935 -0.0076  0.0048
 5056W        W18470  14.891  10.653   1.960  0.1720  0.1525  0.1644
 5057W        W18471  12.951   5.275  15.790 -0.1563  0.1363  0.0007
 5058W        W18472   6.158   5.208   1.313  0.0469 -0.2584  0.0962
 5059W        W18473   7.474  13.140  11.460 -0.0556  0.0894  0.1458
 5060W        W18474  10.299  16.905   4.958  0.1722 -0.0607  0.1415
 5061W        W18475   3.177   9.656   5.023  0.0603  0.1550 -0.0637
 5062W        W18476  10.643   3.271   0.998  0.0976 -0.2233  0.0244
 5063W        W18477   3.264   5.733   5.621 -0.1159 -0.1632 -0.1415
 5064W        W18478   5.171   7.443  15.173  0.0755  0.0290  0.1376
 5065W        W18479   0.770  11.325  16.244  0.1041 -0.2275 -0.4305
 5066W        W18480  14.550  17.097  12.117  0.1501 -0.0262  0.0177
 5067W        W18481  14.433   5.638  13.901  0.2345  0.0841  0.1063
 5068W        W18482   5.634   8.073  11.687  0.1628  0.4273 -0.2349
 5069W        W18483   0.523   6.704   5.372 -0.1828  0.2859  0.1051
 5070W        W18484  16.339   0.761   1.688 -0.2733 -0.3121  0.0413
 5071W        W18485  13.758   6.859   0.107  0.2657  0.1767 -0.1363
 5072W        W18486   7.761   2.283  10.525 -0.2143  0.2032 -0.0689
 5073W        W18487   0.346  10.899   3.597 -0.0960  0.0222 -0.2710
 5074W        W18488   5.501   7.829   3.407 -0.0194  0.2103  0.0873
 5075W        W18489   1.072  10.760   1.619  0.1482  0.0534 -0.2217
 5076W        W18490   4.485   8.910   5.124  0.1336 -0.0118 -0.1873
 5077W        W18491   1.669   4.405  16.079  0.0032 -0.0627  0.0934
 5078W        W18492  17.252  12.196  15.787 -0.0092 -0.3695 -0.1727
 5079W        W18493   0.631  16.976  13.713  0.0615  0.1204  0.2615
 5080W        W18494  16.593  11.014   5.144 -0.1280  0.0216 -0.0854
 5081W        W18495   0.181   6.669   4.446  0.0149  0.0375  0.0813
 5082W        W18496  13.549  13.291   2.412  0.0845  0.2162 -0.0032
 5083W        W18497   6.415   2.403  13.313 -0.0182 -0.3262  0.1368
 5084W        W18498   3.574  16.925  10.541 -0.1044  0.0674  0.2981
 5085W        W18499   1.563   2.830   6.254 -0.2238 -0.0517  0.1492
 5086W        W18500  16.286  11.819   1.548  0.0253 -0.2233 -0.0410
 5087W        W18501   3.068  12.623   1.137 -0.1219  0.1885  0.0414
 5088W        W18502   5.987   6.518  16.214  0.0975  0.1381  0.1173
 5089W        W18503   3.565   1.380   0.805  0.0503 -0.0111  0.0239
 5090W        W18504  17.615   8.982  12.396 -0.1729 -0.0024 -0.0914
 5091W        W18505  14.427  12.235  12.673  0.0039 -0.0231 -0.0655
 5092W        W18506   1.161   6.187  11.570 -0.1829  0.3046 -0.1242
 5093W        W18507  13.453  14.094   2.302  0.0780 -0.0761 -0.0776
 5094W        W18508  12.107   0.444   0.630 -0.0824 -0.0538 -0.0792
 5095W        W18509  16.978  16.315  16.616  0.0894  0.0685  0.0791
 5096W        W18510   9.803  15.451  14.343  0.2285 -0.2402 -0.2789
 5097W        W18511   0.806   9.144  14.725  0.3728 -0.1126  0.0962
 5098W        W18512  10.739   9.825   1.724  0.0207 -0.2069  0.2825
 5099W        W18513   2.703  10.871  12.820 -0.2233 -0.3163  0.0247
 5100W        W18514   7.529  13.023  12.220  0.1193 -0.1418 -0.0390
 5101W        W18515  10.955   4.605   4.383  0.0896  0.3835  0.1567
 5102W        W18516   1.309   3.016   4.205  0.1407  0.0133 -0.0291
 5103W        W18517   5.760  15.092  13.257  0.1372 -0.4485 -0.1836
 5104W        W18518   2.664   3.328  16.019 -0.1124  0.0166  0.1051
 5105W        W18519  14.726   4.852   5.448 -0.0356  0.0011  0.0348
 5106W        W18520   8.777  15.985   2.508 -0.0478  0.1846 -0.0135
 5107W        W18521   3.267  13.828  14.401  0.0002  0.2194 -0.1080
 5108W        W18522  11.917  13.101   5.122 -0.0205  0.0319 -0.1006
 5109W        W18523  13.299   5.615  10.172 -0.2533  0.1853  0.1471
 5110W        W18524  16.527   3.455   1.955  0.2095  0.0823 -0.2542
 5111W        W18525   8.132  12.650  13.910  0.3098 -0.2463  0.0147
 5112W        W18526   1.220   6.911  16.167 -0.0071 -0.1857  0.0752
 5113W        W18527  11.226   5.322  13.867 -0.3031 -0.1236  0.3380
 5114W        W18528  17.546  10.806   4.036 -0.0675  0.2656 -0.0740
 5115W        W18529   1.775   9.331   1.801  0.0917 -0.0048 -0.0368
 5116W        W18530   9.229   1.660  13.804  0.0811  0.1055 -0.0076
 5117W        W18531   4.247  17.921  15.067  0.0381 -0.5729  0.2870
 5118W        W18532   8.000  15.517   2.483  0.1174 -0.0924 -0.1362
 5119W        W18533  10.530   7.242  15.720  0.2832 -0.0721 -0.1719
 5120W        W18534   4.110   1.945  14.168 -0.1422 -0.1897  0.2586
 5121W        W18535   9.068  17.257   2.510  0.0895  0.0851  0.0566
 5122W        W18536   4.588   8.533  15.788  0.0093 -0.0249  0.0925
 5123W        W18537  12.991   9.942   1.571 -0.2073  0.3419 -0.1618
 5124W        W18538  16.911   8.048  12.373  0.1225  0.0999  0.0721
 5125W        W18539   3.824  16.218  13.980  0.0836 -0.0213 -0.1202
 5126W        W18540   4.948   9.112  13.836  0.0524  0.3368  0.1214
 5127W        W18541   5.319   4.040  15.588 -0.0752  0.0554  0.3302
 5128W        W18542   0.640   4.685   3.205  0.2265  0.1539 -0.0779
 5129W        W18543   9.530  12.406  13.661 -0.1845  0.2559 -0.1402
 5130W        W18544   0.202   9.903   5.041 -0.3191 -0.1042 -0.2110
 5131W        W18545   1.222  10.132   1.736  0.1753 -0.1945  0.1253
 5132W        W18546   3.357   9.136  15.882 -0.1029  0.0506 -0.0195
 5133W        W18547   7.755   5.499   2.067 -0.2772  0.0889 -0.0671
 5134W        W18548  12.973   5.164  16.602  0.2007 -0.0904 -0.0106
 5135W        W18549   7.074  17.858  12.781 -0.1006  0.4652  0.1331
 5136W        W18550   2.800   6.439  11.986 -0.1766  0.0821  0.0718
 5137W        W18551  10.820   0.992  15.869  0.1225 -0.0384 -0.2156
 5138W        W18552   4.503  10.367  12.172 -0.2874  0.0312  0.1685
 5139W        W18553   3.241  11.123  14.919  0.0871  0.0347  0.0184
 5140W        W18554   7.322   8.858  13.701 -0.1834  0.1336  0.1342
 5141W        W18555   1.057   6.870   4.103 -0.2102  0.1739  0.0050
 5142W        W18556  12.258   5.549   0.426  0.0274 -0.0557  0.0229
 5143W        W18557   1.147  17.267   2.210  0.1702  0.1283 -0.0889
 5144W        W18558   1.343   6.278   2.462  0.0337  0.0610  0.0583
 5145W        W18559  15.536   4.050  15.107 -0.1888 -0.0979  0.2959
 5146W        W18560   6.984   4.289  14.951 -0.0768 -0.0116  0.1798
 5147W        W18561   7.322  12.629  14.754 -0.0272  0.0948 -0.2015
 5148W        W18562  10.737  17.657   3.418 -0.0581  0.0189 -0.0084
 5149W        W18563  10.007   1.287   4.015 -0.1257 -0.1840  0.1273
 5150W        W18564   9.128   7.448   3.306  0.0366  0.4987 -0.1654
 5151W        W18565  13.708  16.061  12.956  0.0025 -0.1355 -0.0156
 5152W        W18566   1.110   4.942   3.062  0.1761  0.1256 -0.1177
 5153W        W18567  17.092  15.690  11.290 -0.0244 -0.1360 -0.3707
 5154W        W18568   4.961   7.823  14.708  0.2317  0.1684  0.3868
 5155W        W18569   7.873  17.036  15.982  0.1179  0.0065 -0.0648
 5156W        W18570   4.304  16.473   3.348 -0.1025  0.0194 -0.0007
 5157W        W18571   0.214  11.458   2.309 -0.0086 -0.1086 -0.1068
 5158W        W18572   5.939   8.297   1.193 -0.1547 -0.5362 -0.0848
 5159W        W18573   5.222  14.204  11.303  0.0585 -0.2584  0.3317
 5160W        W18574   9.898  15.776  12.748  0.1241  0.1879 -0.0602
 5161W        W18575  15.246   9.091   4.181 -0.0217  0.0462  0.0455
 5162W        W18576  12.749   1.486  10.616  0.1253  0.0009 -0.0121
 5163W        W18577   1.272   9.051  14.909 -0.1107 -0.0371  0.1215
 5164W        W18578  13.506   8.160  11.533  0.4326 -0.0066 -0.3366
 5165W        W18579  15.582   6.175  11.666 -0.2368  0.0470  0.2064
 5166W        W18580   6.646  15.833  11.481 -0.1253 -0.0884  0.4605
 5167W        W18581   8.849  12.825   1.405  0.1931  0.1075  0.0671
 5168W        W18582   6.852  13.615   2.725  0.0133  0.2340 -0.1013
 5169W        W18583   7.475   4.284   3.660 -0.0627 -0.1010 -0.1021
 5170W        W18584  10.064  16.448   2.937  0.2343 -0.0226  0.1380
 5171W        W18585  10.000   8.160  15.887 -0.0767  0.0474 -0.1513
 5172W        W18586   3.852   1.427   1.591 -0.1614  0.2580 -0.1417
 5173W        W18587   6.881  11.023  13.533  0.1111 -0.1313 -0.1655
 5174W        W18588   1.903  17.419  11.597  0.1497  0.0729  0.2600
 5175W        W18589  17.508  13.704   3.876 -0.0735 -0.1687  0.3106
 5176W        W18590   8.504  13.341  15.752  0.1213 -0.2143  0.0659
 5177W        W18591  13.697  14.438  15.706  0.3591 -0.4078  0.2160
 5178W        W18592  13.926   0.226  12.813 -0.2394 -0.0437 -0.0246
 5179W        W18593  14.567  12.963  12.940 -0.3298  0.0955 -0.0003
 5180W        W18594  10.013   2.759  14.105 -0.0099  0.0066  0.0388
 5181W        W18595  16.703  16.389   4.092  0.0887 -0.1612  0.0368
 5182W        W18596  13.839  14.275   5.988  0.0789 -0.0799  0.0456
 5183W        W18597  17.227  13.125  12.458 -0.3330  0.1126  0.1482
 5184W        W18598  11.134   8.579  15.426  0.2122 -0.1002  0.1121
 5185W        W18599  14.527   4.029  13.435 -0.0135 -0.1987  0.1044
 5186W        W18600  13.692   4.556   5.859  0.1249 -0.0731 -0.3362
 5187W        W18601   3.219  17.544  11.008  0.1824 -0.0320  0.1252
 5188W        W18602  13.720   3.018  14.385 -0.0802  0.0426  0.0122
 5189W        W18603   1.640   1.177   1.120  0.1892 -0.1951 -0.1855
 5190W        W18604  15.291   9.806  14.258 -0.0407 -0.0642 -0.2080
 5191W        W18605   4.907  16.265   0.346  0.2526 -0.0978  0.0908
 5192W        W18606  11.464  17.281  12.436 -0.1104 -0.0346 -0.1589
 5193W        W18607   8.823  13.453  11.863 -0.2341  0.4011  0.2914
 5194W        W18608   4.887   6.596   2.876 -0.1467 -0.0912  0.2408
 5195W        W18609  17.155   8.080   9.999  0.1668  0.1091 -0.0587
 5196W        W18610   5.960  13.496  15.199 -0.3697  0.3795 -0.0898
 5197W        W18611  13.876  13.062  15.464 -0.0277 -0.1476 -0.4616
 5198W        W18612  17.490   1.586   4.221  0.0861 -0.1226  0.0907
 5199W        W18613   7.602   9.169   1.509  0.1253  0.1126 -0.1377
 5200W        W18614   3.726  13.121  10.878  0.2632 -0.1223  0.2665
 5201W        W18615   7.237  13.154   4.912  0.0751  0.1218 -0.1064
 5202W        W18616   9.441   5.786  12.374 -0.0310  0.2706 -0.2995
 5203W        W18617   4.797  17.910  13.297 -0.1410  0.1086 -0.2279
 5204W        W18618   5.375   3.754   0.123 -0.1012  0.1504  0.1683
 5205W        W18619  11.741  17.773  12.540 -0.0901 -0.2753 -0.1491
 5206W        W18620   6.612   9.455   5.343 -0.2303 -0.1881 -0.0590
 5207W        W18621  17.189   1.744  13.705 -0.0721 -0.2383 -0.0305
 5208W        W18622  14.890  17.049   0.610 -0.0173 -0.0505 -0.1259
 5209W        W18623   5.122   4.851  13.531  0.1983 -0.1679 -0.6398
 5210W        W18624   3.777  10.710   5.445 -0.2877 -0.0775  0.2184
 5211W        W18625  14.297  11.706   5.019  0.0252 -0.1774 -0.3686
 5212W        W18626  12.714   5.999   5.715  0.0517  0.1616 -0.3786
 5213W        W18627   3.995  16.745   1.930  0.1458  0.0247 -0.0223
 5214W        W18628  13.979   4.907  11.436 -0.4694 -0.0195 -0.2938
 5215W        W18629  17.625   0.574  12.298  0.0491  0.2198  0.2242
 5216W        W18630   2.614   2.768  11.061 -0.2953  0.2433 -0.1285
 5217W        W18631  16.381  13.419  12.214 -0.2736  0.1124 -0.1260
 5218W        W18632  17.761  15.485   3.924  0.1580 -0.1182 -0.0310
 5219W        W18633  13.568  16.337  13.650 -0.2999 -0.1385 -0.1321
 5220W        W18634   1.755  16.030   4.944 -0.1092  0.1510  0.0997
 5221W        W18635   9.298  11.302   3.810  0.1552 -0.0893  0.0371
 5222W        W18636   6.933  11.610  10.753  0.3963 -0.3970 -0.1840
 5223W        W18637   1.931  17.204  15.960 -0.2845  0.2171 -0.2074
 5224W        W18638  17.678  16.245  11.459 -0.1094 -0.1454  0.1167
 5225W        W18639   8.526  15.456  14.933  0.0146 -0.1073  0.0353
 5226W        W18640  16.746  14.580   0.125 -0.1556 -0.0023  0.0939
 5227W        W18641   9.259  12.407  15.255 -0.0600  0.0801 -0.0342
 5228W        W18642   4.259  14.168  10.795  0.1591 -0.1053 -0.0916
 5229W        W18643  14.391  17.050   5.972  0.0176 -0.2007 -0.0713
 5230W        W18644   1.538   6.704   0.607  0.2681  0.2340 -0.0924
 5231W        W18645  15.464   0.815   3.654 -0.0250 -0.1735 -0.2944
 5232W        W18646   4.247   8.871   4.232  0.1034  0.0665  0.1679
 5233W        W18647   0.712   5.629   3.044 -0.3043  0.0728  0.0624
 5234W        W18648  17.846  15.932  14.033 -0.2826  0.3282 -0.0283
 5235W        W18649   1.505   9.623   5.226 -0.3464 -0.1614  0.4264
 5236W        W18650  12.555   0.246   5.465  0.0744 -0.1361  0.2075
 5237W        W18651   4.288   7.921   2.726 -0.1859  0.1113 -0.0050
 5238W        W18652   8.006  11.836   4.128 -0.1216  0.2725  0.1145
 5239W        W18653  13.065  10.240  12.263 -0.2510  0.0621 -0.2170
 5240W        W18654  17.752   5.033  11.315 -0.0873  0.0141 -0.2701
 5241W        W18655  15.001   3.125   6.500 -0.1387  0.0388  0.1862
 5242W        W18656  13.030   1.956   3.946 -0.1573 -0.1585  0.0324
 5243W        W18657   2.800   0.160  16.424  0.0170  0.1048 -0.0829
 5244W        W18658  15.913  17.028  16.340 -0.1062  0.1378 -0.1228
 5245W        W18659   2.657  14.019  15.655 -0.2558 -0.0902 -0.0438
 5246W        W18660  13.969   8.553  15.152 -0.0615 -0.2413  0.0467
 5247W        W18661   1.260   6.269  14.183 -0.0252 -0.0395 -0.0419
 5248W        W18662  15.149  13.023   6.371 -0.1694  0.0038  0.0642
 5249W        W18663   8.721  14.847   1.269 -0.3300 -0.1352 -0.2849
 5250W        W18664  16.935   3.528   4.312 -0.0374  0.0023  0.2604
 5251W        W18665   8.071   2.198  13.871 -0.2950  0.1186  0.1477
 5252W        W18666  17.586  15.887  13.547  0.1126 -0.1141  0.0631
 5253W        W18667   1.667   8.077  13.782  0.1383 -0.0969  0.2642
 5254W        W18668   9.113  10.635   1.003  0.0914 -0.3947  0.0859
 5255W        W18669   1.835   9.313  12.737 -0.1977  0.2290 -0.0368
 5256W        W18670  15.532   1.431  14.012  0.0460  0.2602  0.2471
 5257W        W18671  13.461   6.014  16.195  0.1163  0.1611  0.1368
 5258W        W18672   8.626   7.932  12.263  0.0359 -0.3379  0.2229
 5259W        W18673  17.222  13.622  16.440 -0.1204  0.1155  0.1891
 5260W        W18674  10.779   6.471  16.648 -0.2294  0.0385  0.0654
 5261W        W18675  16.547   4.301   2.349 -0.2527 -0.0503  0.1150
 5262W        W18676  15.603  13.509   4.638 -0.0174 -0.2075  0.1207
 5263W        W18677   3.328  13.668  12.689  0.0256 -0.1290  0.0340
 5264W        W18678   8.404   1.153   3.705 -0.3211  0.1190 -0.0528
 5265W        W18679  17.085   8.675  13.115  0.2151  0.3316 -0.1679
 5266W        W18680   4.774   4.500  12.855  0.5996  0.2282  0.0919
 5267W        W18681   4.070  13.536   0.543 -0.1054 -0.0833 -0.1315
 5268W        W18682  12.930   0.769   4.683  0.2100  0.1219 -0.0728
 5269W        W18683  14.135   7.740  12.543  0.3597 -0.2004  0.0821
 5270W        W18684   8.618  14.227  14.471  0.0395  0.2610  0.4631
 5271W        W18685   6.260  16.204   3.640  0.2287 -0.2567  0.2083
 5272W        W18686   0.268  14.242  16.234 -0.1520 -0.0047 -0.0531
 5273W        W18687   0.042  12.192  13.765 -0.0735 -0.0116  0.5257
 5274W        W18688   7.173  12.073  12.298 -0.0152  0.0674  0.1935
 5275W        W18689   1.927   1.997  12.066  0.1279 -0.0440  0.2279
 5276W        W18690   5.915   7.965  14.506 -0.1226  0.5653  0.2181
 5277W        W18691  11.412   5.884  14.991  0.2084  0.1207  0.0085
 5278W        W18692   1.019  15.308  12.267 -0.2091 -0.0794  0.2453
 5279W        W18693   3.904   0.176  12.960 -0.2455 -0.0850 -0.3688
 5280W        W18694  16.239   9.580  11.021  0.0626 -0.0997  0.3191
 5281W        W18695  11.320  15.431   5.964 -0.1335  0.0952 -0.2218
 5282W        W18696  15.377  16.149  16.293  0.0363  0.2506 -0.1464
 5283W        W18697  14.176  13.676   2.936  0.0679  0.0665 -0.1490
 5284W        W18698  11.319   1.004  11.998  0.2689 -0.3765 -0.0711
 5285W        W18699  16.752   8.507  15.148  0.2288 -0.0289 -0.0805
 5286W        W18700  15.661   0.761  14.876 -0.0923 -0.1305  0.1993
 5287W        W18701   8.872   4.308   3.202 -0.0985  0.3151 -0.0722
 5288W        W18702   0.961   4.240   3.815 -0.2039  0.1492 -0.0831
 5289W        W18703   5.067   5.063   1.926 -0.0482  0.4816 -0.1198
 5290W        W18704  17.688  14.512  15.216  0.1121 -0.3377 -0.4492
 5291W        W18705   6.509   2.860   0.205 -0.2775  0.4072  0.0210
 5292W        W18706   6.051   4.966  14.474  0.1296 -0.0097 -0.0040
 5293W        W18707  18.003   1.189   4.977 -0.0363 -0.2705  0.2108
 5294W        W18708  10.557   8.767   4.733 -0.4904 -0.1290 -0.1654
 5295W        W18709  13.768   5.818  16.548  0.1924  0.1159  0.0361
 5296W        W18710  15.234  13.828   4.591  0.0700 -0.3255 -0.0672
 5297W        W18711   7.431  13.597   4.730  0.1498  0.0401 -0.1121
 5298W        W18712  15.020   6.058  16.239 -0.0324  0.0634  0.1604
 5299W        W18713   1.632   7.407   5.732  0.0610  0.2969  0.0981
 5300W        W18714   5.929   2.639   4.960  0.0778 -0.1989 -0.0174
 5301W        W18715   9.628   9.038   4.230  0.0370  0.0323  0.2869
 5302W        W18716   9.315  12.316  12.644  0.3237  0.0700  0.1808
 5303W        W18717   1.899  16.320  11.074 -0.2676  0.3060  0.2191
 5304W        W18718  10.448  16.460  12.504  0.0596 -0.3192  0.1039
 5305W        W18719   4.892   6.654   0.110 -0.4774 -0.0675  0.1802
 5306W        W18720   9.017  10.735  11.673 -0.0212  0.2396 -0.1187
 5307W        W18721   6.508  16.645   1.064 -0.1160 -0.5913  0.0006
 5308W        W18722  11.694  12.389   1.611 -0.2655  0.1048  0.4677
 5309W        W18723   0.176  17.464  16.257 -0.2306 -0.1921 -0.0778
 5310W        W18724   3.232  15.273   3.030  0.1593  0.2625  0.1924
 5311W        W18725   1.108  11.033   4.211  0.1048 -0.1898  0.0546
 5312W        W18726   7.038  17.338  13.850 -0.1137 -0.1600 -0.1108
 5313W        W18727  16.744  14.930  12.707 -0.0452  0.0255  0.0957
 5314W        W18728  14.686   6.486   4.919  0.3180  0.0017 -0.1843
 5315W        W18729  11.385  16.959   3.245 -0.1658  0.0381 -0.1009
 5316W        W18730  13.229   2.209  14.987  0.3162  0.3208  0.1598
 5317W        W18731  15.220  11.251  15.329  0.2400 -0.1134  0.2983
 5318W        W18732   7.394  15.997   3.676 -0.2669 -0.0845 -0.0266
 5319W        W18733   4.125   1.624   3.322  0.1941 -0.0483  0.0071
 5320W        W18734  17.263   3.005  13.318 -0.0863  0.0561  0.3928
 5321W        W18735  13.285  15.634  14.745  0.1438  0.3709 -0.1618
 5322W        W18736  13.700   1.614   4.301  0.2736  0.2094  0.1334
 5323W        W18737   0.730  17.452  13.554 -0.1202  0.2746  0.1254
 5324W        W18738  14.238  12.665   0.520  0.4744 -0.0765 -0.0647
 5325W        W18739   3.154   5.421   0.444  0.3145 -0.4223  0.2803
 5326W        W18740   3.346   0.075   5.330  0.0195 -0.1953 -0.0543
 5327W        W18741   1.213  17.930   5.974  0.0069 -0.1466  0.0359
 5328W        W18742   9.610   2.621   3.653  0.1434 -0.1997  0.0483
 5329W        W18743   4.594   4.602  15.171 -0.1202  0.1254 -0.0428
 5330W        W18744  10.637   3.425  16.497  0.3389 -0.0298 -0.0623
 5331W        W18745   0.192   2.497  12.455  0.1977 -0.2312 -0.1453
 5332W        W18746   6.052   3.001   5.478  0.1088 -0.1171  0.2021
 5333W        W18747   2.798  15.162   4.048  0.0450 -0.0088 -0.1724
 5334W        W18748  16.037   2.248  11.258  0.3130 -0.0438 -0.0669
 5335W        W18749   0.215  13.475  16.314 -0.1317  0.2291 -0.1963
 5336W        W18750   8.682   8.333   3.064  0.0095 -0.2195  0.0852
 5337W        W18751   8.178  14.478   2.004  0.1569 -0.2983  0.2686
 5338W        W18752   6.030  17.883  11.519 -0.2256  0.1425  0.1745
 5339W        W18753   0.227  15.037  15.070  0.1736  0.2748 -0.1998
 5340W        W18754  16.354   9.936   1.256 -0.0375  0.0281 -0.5446
 5341W        W18755   3.811   6.648  12.649  0.0706 -0.2908  0.0445
 5342W        W18756   3.232  15.091  14.354 -0.0511  0.1646 -0.3466
 5343W        W18757   3.792  11.329   1.469  0.2328 -0.0255  0.3427
 5344W        W18758  15.081   8.513   3.547 -0.0365 -0.1952  0.1711
 5345W        W18759   6.757   3.283   3.022 -0.1937 -0.2443 -0.1390
 5346W        W18760   6.656  13.411  11.903 -0.3692 -0.0835 -0.0745
 5347W        W18761  13.891  17.415   3.697 -0.0271  0.1581  0.1459
 5348W        W18762   9.634  14.338   0.064 -0.0509  0.0150 -0.3719
 5349W        W18763   6.507   3.487   0.703  0.3007 -0.2289 -0.3091
 5350W        W18764  13.057   0.116  15.590 -0.1611  0.1874 -0.1557
 5351W        W18765   0.487   4.205  10.738 -0.0601  0.3708  0.1200
 5352W        W18766  11.390  15.206   3.483 -0.1533  0.0671  0.0475
 5353W        W18767  11.788   8.889  13.609 -0.3449  0.3532  0.0334
 5354W        W18768  12.610  15.432   1.058 -0.0496 -0.1608 -0.3534
 5355W        W18769   3.062   2.462  16.476 -0.1139 -0.2240 -0.1350
 5356W        W18770  10.125   0.614  15.500  0.3846  0.1019  0.1915
 5357W        W18771   0.562  16.260   1.988 -0.1988  0.1752  0.1029
 5358W        W18772  14.318  16.095  12.936 -0.0193 -0.1672  0.0766
 5359W        W18773  14.587   7.309  16.398 -0.1763 -0.0941 -0.0921
 5360W        W18774   0.573   0.325   5.483 -0.3471 -0.0074 -0.2260
 5361W        W18775  16.945  17.544  14.834 -0.3872 -0.1632  0.2125
 5362W        W18776  12.278   9.200  13.620  0.0109 -0.0263  0.3193
 5363W        W18777  16.826  10.628  11.825 -0.2358  0.2532 -0.1263
 5364W        W18778  15.719   2.995  16.236 -0.1020 -0.1746 -0.2698
 5365W        W18779  13.415   0.475  13.069 -0.1477 -0.0763  0.1167
 5366W        W18780  14.923  16.463   2.627  0.0164  0.1876  0.2445
 5367W        W18781   6.100  16.949  16.576  0.1523 -0.0363 -0.2738
 5368W        W18782   6.672   2.812  11.922 -0.1207 -0.1165  0.1927
 5369W        W18783   7.199   3.524   3.001  0.1613  0.2464 -0.3366
 5370W        W18784   6.242  16.899  15.116 -0.1186 -0.2162 -0.2470
 5371W        W18785   9.545   0.012   3.711 -0.1251  0.0379 -0.1222
 5372W        W18786   0.618   2.941  16.096 -0.1092  0.1507  0.2343
 5373W        W18787   5.521   3.952  11.264  0.0354 -0.0486 -0.0537
 5374W        W18788   4.227  10.816   3.974 -0.0376  0.1859  0.1051
 5375W        W18789  15.620  15.559   3.545 -0.3448 -0.0997  0.2338
 5376W        W18790   9.578   5.136  15.811  0.0230 -0.1596  0.0832
 5377W        W18791   9.309  15.928   5.683  0.2478  0.1191 -0.1195
 5378W        W18792  15.192   8.179  11.735  0.0659  0.2106  0.2336
 5379W        W18793   7.441   4.868  13.344  0.2828  0.2382  0.1141
 5380W        W18794  11.681   3.393  14.499  0.1576  0.1045 -0.0689
 5381W        W18795  11.623   8.305  11.329  0.1813 -0.0000 -0.0397
 5382W        W18796  13.998  10.353   6.591  0.0469 -0.0143  0.0173
 5383W        W18797  16.078  17.984   5.467 -0.2526 -0.1534 -0.1920
 5384W        W18798   7.179   7.711  16.125 -0.0661  0.3348  0.3363
 5385W        W18799   8.575  17.356  16.352  0.2854  0.1020 -0.0980
 5386W        W18800   3.190   9.770   1.141 -0.2953 -0.0795  0.2845
 5387W        W18801   4.965  12.811  12.146  0.0704  0.2451 -0.1164
 5388W        W18802  10.055  17.337   3.103 -0.0921 -0.0672 -0.0853
 5389W        W18803  16.490   0.710  14.576  0.1555 -0.1346  0.0068
 5390W        W18804  11.070  11.943  11.277  0.0428  0.3093  0.2306
 5391W        W18805  13.516  11.866  14.817  0.0441  0.0307  0.0595
 5392W        W18806   0.863   6.501  14.435  0.1517 -0.1627  0.2927
 5393W        W18807   6.098   1.495  10.464 -0.2491 -0.2875 -0.2066
 5394W        W18808  15.390   2.827   3.651 -0.0680 -0.1704 -0.0913
 5395W        W18809   1.511  14.290  10.397 -0.4131  0.0611  0.0086
 5396W        W18810   2.369  13.654  12.359 -0.0573 -0.1888  0.0958
 5397W        W18811   9.875   7.921  16.484  0.1483 -0.1809  0.3451
 5398W        W18812  11.808   4.067   4.210 -0.0546  0.1005  0.1005
 5399W        W18813   0.408   1.347   3.673 -0.3838  0.3075  0.0033
 5400W        W18814   4.800  10.734   3.199 -0.1229  0.0314 -0.0083
 5401W        W18815   9.051  15.599  12.075 -0.0555 -0.2749  0.1639
 5402W        W18816  10.750   8.445  15.950 -0.2596 -0.0984  0.0184
 5403W        W18817  16.036   9.676   6.117  0.0081 -0.0867  0.2798
 5404W        W18818  16.901   6.671   1.706 -0.3173 -0.3214 -0.1972
 5405W        W18819   9.930  17.992  11.866 -0.0006  0.0584 -0.0914
 5406W        W18820  14.684  11.811  16.442 -0.0660  0.0469 -0.0681
 5407W        W18821   3.073  15.730   3.075 -0.1610  0.0943  0.2174
 5408W        W18822   0.755   1.991  12.161  0.1479 -0.1109 -0.1308
 5409W        W18823  14.080   6.632  14.935 -0.0099 -0.2105 -0.1673
 5410W        W18824   6.244  14.526   0.368 -0.3113 -0.0932  0.0185
 5411W        W18825   3.408   6.917  11.411 -0.1328 -0.0061  0.4666
 5412W        W18826  12.288  10.025  16.765  0.0181  0.1959 -0.1579
 5413W        W18827   8.738   9.024   3.830  0.0352 -0.1342 -0.0198
 5414W        W18828   4.578  11.299  16.145  0.1717  0.2260 -0.0067
 5415W        W18829   4.810   4.823   3.992 -0.2943  0.0254  0.0305
 5416W        W18830  10.975   7.905   3.644 -0.1267 -0.0864  0.1244
 5417W        W18831  17.181   8.491   1.559 -0.1059  0.2507  0.0631
 5418W        W18832  13.512  10.852  11.663 -0.1334  0.1543  0.0097
 5419W        W18833  10.764  11.681   5.678  0.0613 -0.2909 -0.0060
 5420W        W18834  11.767   8.562  16.409 -0.3017 -0.0059 -0.1301
 5421W        W18835   9.207   1.230  15.035  0.2714  0.0922 -0.0468
 5422W        W18836   5.078   3.132  12.347  0.3449 -0.1988  0.1163
 5423W        W18837  10.592   2.093   5.226  0.0717  0.0263  0.2112
 5424W        W18838  16.644   4.668  15.169  0.0590 -0.0694  0.1961
 5425W        W18839   3.932  10.453   0.883  0.2216  0.1053 -0.3064
 5426W        W18840  17.692  12.896  11.077  0.0628  0.0529  0.4280
 5427W        W18841  11.246  17.380   4.088  0.0793  0.4049 -0.2746
 5428W        W18842   3.429  14.697  11.723  0.3668 -0.2391  0.0021
 5429W        W18843   2.515   6.622   4.236  0.0692  0.4021 -0.1804
 5430W        W18844  16.794   1.216  11.936 -0.0087 -0.1760 -0.2667
 5431W        W18845  12.163   4.614   1.606 -0.1583  0.0480 -0.0147
 5432W        W18846   9.655   6.745   3.820 -0.1214 -0.1493 -0.3624
 5433W        W18847   6.681   5.164  13.519 -0.2134  0.2878 -0.1277
 5434W        W18848  14.049   7.646  13.740 -0.0161 -0.0634  0.1594
 5435W        W18849  17.881   3.135  12.926 -0.0653  0.0974 -0.1272
 5436W        W18850   3.630  14.577   5.491  0.0562  0.0156  0.0347
 5437W        W18851  16.318   9.148   4.549  0.0335 -0.2054 -0.1036
 5438W        W18852   6.015  17.985   2.120  0.0683  0.0009  0.0714
 5439W        W18853   7.060   2.881  16.406  0.1428 -0.0190  0.1253
 5440W        W18854  11.527   1.843   6.252 -0.0321 -0.0213  0.0168
 5441W        W18855   9.747   1.915  13.989 -0.3578  0.0244  0.2829
 5442W        W18856   6.260  16.908   5.512  0.2619  0.0631  0.0651
 5443W        W18857  15.269  16.705   3.520  0.0376 -0.1547 -0.0815
 5444W        W18858  15.418  10.906   2.918  0.4263  0.0083  0.0128
 5445W        W18859   0.673  17.318  11.339 -0.3327  0.1394  0.0923
 5446W        W18860   1.190   3.115   2.653 -0.3581  0.0292 -0.2221
 5447W        W18861   2.476   0.838   3.068 -0.1423  0.3192 -0.0828
 5448W        W18862   4.918   1.954   4.451  0.1088  0.0560  0.1462
 5449W        W18863  15.979   1.342  15.683 -0.4719 -0.1935 -0.2087
 5450W        W18864  10.554  10.471   1.768  0.0184 -0.0491 -0.2440
 5451W        W18865   9.172   0.346  13.393 -0.2127 -0.2602 -0.1692
 5452W        W18866   0.751  17.103  16.395  0.0007  0.0172  0.3252
 5453W        W18867   2.486   0.211   5.491  0.0227  0.0116 -0.0818
 5454W        W18868   0.407   1.869  15.345 -0.0047 -0.1130  0.3002
 5455W        W18869   8.611  11.661   5.588 -0.1152  0.2554 -0.1814
 5456W        W18870   6.020   1.733   2.313 -0.1327  0.2790  0.1773
 5457W        W18871  10.966  11.306  12.346  0.1073 -0.0045 -0.0729
 5458W        W18872  10.467  16.983   4.091  0.1800 -0.0977  0.1003
 5459W        W18873   9.713   8.174   2.222 -0.3231  0.2849  0.1570
 5460W        W18874   9.093   8.178  13.497  0.2282  0.2482 -0.0912
 5461W        W18875  17.926  14.806  12.683  0.1070 -0.2705  0.1151
 5462W        W18876  15.142   7.378   1.325 -0.2575  0.0062  0.0553
 5463W        W18877   5.771   4.956  12.316  0.0137  0.0799 -0.0374
 5464W        W18878  11.165  10.034   0.772 -0.1698  0.1366 -0.3201
 5465W        W18879   7.209   1.088  12.667 -0.1665  0.3300  0.1056
 5466W        W18880   8.243   0.078  11.081 -0.0156  0.2363 -0.0069
 5467W        W18881  13.055  10.101  16.207  0.0658 -0.0132  0.2956
 5468W        W18882  14.132  15.551   5.803  0.2362 -0.1634 -0.2363
 5469W        W18883   1.472   7.086  16.570 -0.0959  0.0736 -0.0081
 5470W        W18884   7.845  12.879   1.921 -0.0559 -0.0362  0.0140
 5471W        W18885  14.757  10.471  13.212  0.2004  0.0533 -0.2758
 5472W        W18886   9.381   4.962  14.016  0.2804  0.1546  0.1063
 5473W        W18887   2.834  13.149   0.456 -0.2317 -0.0272 -0.0650
 5474W        W18888   4.392   2.043  15.411  0.1246 -0.1526 -0.1609
 5475W        W18889   1.404   6.000   3.398  0.0752 -0.1148 -0.2238
 5476W        W18890   8.351  15.417  14.035  0.3226  0.3350 -0.0947
 5477W        W18891   7.851  16.202  15.495  0.0928 -0.0623  0.0344
 5478W        W18892   0.048   4.312  13.656 -0.1307  0.3421 -0.1463
 5479W        W18893  16.557  10.501   3.116 -0.2928  0.0208 -0.2384
 5480W        W18894   8.069  11.078   3.718  0.0389 -0.0862 -0.1404
 5481W        W18895   3.006   5.446  14.185 -0.1305 -0.1189  0.1965
 5482W        W18896   8.979  14.804   6.726  0.0325 -0.0868 -0.1742
 5483W        W18897  17.198  16.575   0.444  0.1246  0.0494  0.0875
 5484W        W18898   3.624   0.290   1.231  0.2431 -0.3174 -0.0398
 5485W        W18899   7.239   3.605   0.160  0.0064 -0.0536  0.1197
 5486W        W18900  13.204  16.889  11.086 -0.0800 -0.1040 -0.0459
 5487W        W18901  10.550   5.167   3.811  0.1956  0.0676  0.1548
 5488W        W18902  14.728  13.365  16.578 -0.0841 -0.2469 -0.3252
 5489W        W18903  14.541   0.793  13.326 -0.0381 -0.0669  0.0848
 5490W        W18904  14.136  15.244   5.306  0.0965 -0.1447  0.2439
 5491W        W18905  10.965  11.818  13.811  0.0596 -0.2092 -0.0258
 5492W        W18906   7.303  14.762  13.915 -0.0731 -0.0190  0.2059
 5493W        W18907  14.124  16.783  16.438  0.3543  0.2664 -0.1038
 5494W        W18908  15.983   5.959  11.934  0.0957 -0.0887  0.2120
 5495W        W18909   1.240   2.977  13.157  0.0085 -0.0207  0.0768
 5496W        W18910   2.954  10.477  12.686  0.1388  0.1382 -0.3106
 5497W        W18911  12.754   9.449   5.357 -0.1230  0.0087  0.1303
 5498W        W18912  12.826   3.255   0.435  0.2388  0.1525 -0.0933
 5499W        W18913   2.588  13.869  10.937 -0.2337  0.0623 -0.2759
 5500W        W18914   7.854   6.148  12.528  0.0832 -0.1242  0.1272
 5501W        W18915   4.487   2.479  13.555  0.0203 -0.1190  0.2356
 5502W        W18916  14.127   4.320  15.298  0.1939  0.0538 -0.0661
 5503W        W18917   1.091   2.403   3.290  0.1500 -0.1157  0.0677
 5504W        W18918   6.499   5.917   1.463 -0.0053 -0.2486  0.3871
 5505W        W18919  10.353  16.007   3.023 -0.0325  0.0326 -0.3736
 5506W        W18920  12.715  11.562  12.037 -0.3596 -0.0789  0.1606
 5507W        W18921  14.436   8.921  16.575 -0.1386  0.1537  0.0575
 5508W        W18922   8.862   3.061   3.538 -0.2119 -0.3497  0.1213
 5509W        W18923   5.672   3.093  12.400  0.0666 -0.1421 -0.0064
 5510W        W18924   0.171  16.014  12.000  0.0111 -0.0590 -0.2087
 5511W        W18925   1.347   8.211  13.343 -0.1162  0.1375 -0.0306
 5512W        W18926   6.076  12.113   6.344  0.1757  0.0191  0.1450
 5513W        W18927  12.767   8.952   0.685 -0.0308  0.0306 -0.0976
 5514W        W18928   8.725   0.320   4.132  0.0177  0.1071  0.1461
 5515W        W18929   4.666  13.688   5.962  0.3308  0.0450 -0.1062
 5516W        W18930   2.119  13.720   2.026  0.1385  0.1107 -0.1034
 5517W        W18931   2.139   0.647  14.676  0.0030 -0.1364 -0.1026
 5518W        W18932  11.943   9.888   4.970  0.1021 -0.0332  0.2499
 5519W        W18933   5.213  17.335  12.807 -0.1785 -0.4222  0.1321
 5520W        W18934   0.887   7.478  13.418 -0.1351 -0.1690  0.2289
 5521W        W18935  12.046   6.275   0.715 -0.1650 -0.0225 -0.1737
 5522W        W18936  15.744   0.168  12.793  0.0840 -0.0060 -0.1720
 5523W        W18937  16.302  10.502  14.661  0.0581  0.0115  0.1159
 5524W        W18938   4.457   8.253   2.349  0.2513  0.1709 -0.4204
 5525W        W18939   2.192   3.509  11.660 -0.1380 -0.3065  0.1366
 5526W        W18940   2.818   8.503   1.399  0.2311  0.0307  0.1547
 5527W        W18941  14.305  13.763   3.806  0.2885 -0.0256 -0.3089
 5528W        W18942  13.314   3.688  14.000  0.1666  0.1566  0.0394
 5529W        W18943  18.003   9.301  15.752 -0.0013  0.0598  0.1854
 5530W        W18944  17.956   6.722   0.608 -0.1086 -0.0140 -0.2025
 5531W        W18945  16.880  13.289   4.206  0.1364  0.0380  0.1648
 5532W        W18946  10.623   9.972  16.142 -0.1982 -0.1649  0.0582
 5533W        W18947   9.249  15.041   1.475  0.1142  0.3514  0.0175
 5534W        W18948  14.687   3.542   3.605 -0.0466  0.0765  0.0590
 5535W        W18949  17.265  16.689  11.179  0.0321 -0.1922 -0.0199
 5536W        W18950  16.165   9.886  14.572 -0.2672  0.0133  0.1045
 5537W        W18951   5.260   4.526  12.697  0.0622  0.1283 -0.0724
 5538W        W18952   5.302  16.136  15.439  0.1590 -0.1878 -0.0017
 5539W        W18953   7.288  10.162  13.386  0.0766 -0.3637 -0.0708
 5540W        W18954   8.600   9.135  11.873 -0.0882 -0.0699  0.3449
 5541W        W18955   8.428  17.156   1.240  0.0071 -0.1122 -0.0564
 5542W        W18956  17.340   6.647  13.150  0.1383  0.2106 -0.1004
 5543W        W18957   4.046   9.953  14.102 -0.1052 -0.0464 -0.1602
 5544W        W18958  13.915   6.532   0.931  0.1970 -0.0893 -0.2219
 5545W        W18959  11.965  11.010  14.607  0.0117  0.0045  0.0401
 5546W        W18960   8.127  11.708   1.168 -0.2307  0.0745  0.2151
 5547W        W18961   8.783  10.754   1.432 -0.0187  0.1868  0.1895
 5548W        W18962  11.818   9.883   3.166 -0.2575 -0.2478 -0.1985
 5549W        W18963   8.084   4.266  12.400 -0.0139  0.0058  0.1140
 5550W        W18964   0.727   6.617  14.951 -0.0632 -0.0745  0.0869
 5551W        W18965   4.427   9.046   1.708 -0.0496  0.0697  0.0782
 5552W        W18966   0.027   8.396  13.083 -0.2055  0.3055 -0.1277
 5553W        W18967   9.469   0.941   0.350 -0.3565  0.0652  0.2964
 5554W        W18968  15.373   5.348   5.031 -0.1805 -0.0791  0.1181
 5555W        W18969  11.561  17.492  13.667 -0.0875  0.0811 -0.2061
 5556W        W18970  16.876   4.342   0.417  0.1080 -0.1393  0.3414
 5557W        W18971  16.977   0.274   5.387  0.0545 -0.0869  0.0205
 5558W        W18972   5.965   0.325   3.972 -0.2156 -0.1875 -0.0892
 5559W        W18973   3.606   1.275   3.053 -0.0966  0.0283  0.0541
 5560W        W18974  10.806   2.083  11.332  0.0646  0.1448 -0.0946
 5561W        W18975  16.974   8.394   0.800  0.3415 -0.0141  0.0060
 5562W        W18976   5.193  15.333  13.145  0.0770  0.1918 -0.0021
 5563W        W18977  17.736  14.507  13.703 -0.0594 -0.2327 -0.1631
 5564W        W18978   2.967  15.849   3.585  0.0389  0.3688  0.3287
 5565W        W18979   9.165   0.850  14.704 -0.0567  0.3298  0.1370
 5566W        W18980   7.995   0.804  16.278 -0.1203  0.1803  0.3276
 5567W        W18981   6.172  12.245  12.441  0.0830 -0.0168 -0.1535
 5568W        W18982  11.675   4.587   2.616  0.1900 -0.0653  0.2576
 5569W        W18983  13.351  15.078   5.896  0.1174 -0.0404 -0.1129
 5570W        W18984   9.397  12.665  15.656  0.0160  0.0476 -0.0856
 5571W        W18985  17.002  12.382  16.209  0.1429  0.0554 -0.1386
 5572W        W18986   6.479   5.916  12.618  0.2092 -0.1309 -0.3024
 5573W        W18987   1.784  13.662  13.762  0.0516 -0.2113 -0.0050
 5574W        W18988   0.605   1.104  11.781  0.2373 -0.0829  0.1935
 5575W        W18989  15.018   8.216   3.094 -0.2686 -0.1166 -0.1038
 5576W        W18990   9.605  15.063   5.465 -0.1618 -0.0142  0.3316
 5577W        W18991   9.260  12.345   5.454 -0.0292  0.2316 -0.2123
 5578W        W18992  10.917  12.858   0.362 -0.1327  0.3404  0.0054
 5579W        W18993   3.189  16.036  15.281  0.0557  0.3146 -0.0708
 5580W        W18994  17.255  17.611   3.373  0.2699 -0.1207 -0.1992
 5581W        W18995  11.395  14.577  16.224  0.1555 -0.2396 -0.1678
 5582W        W18996   4.258   3.318   3.302  0.3070  0.2032  0.0664
 5583W        W18997   4.762  11.300   0.266  0.3422  0.0329  0.2014
 5584W        W18998  12.523   7.852  14.638 -0.1043  0.0460 -0.1177
 5585W        W18999   7.015   7.025  15.030 -0.0040 -0.2761 -0.3169
 5586W        W19000  12.862  10.125  14.473 -0.2045 -0.1603  0.3328
 5587W        W19001   5.638   7.291  16.582  0.2725 -0.0364  0.2103
 5588W        W19002   9.596   7.797   3.884  0.1577 -0.1864 -0.0573
 5589W        W19003   1.125  14.359  11.061 -0.1550 -0.1468 -0.2568
 5590W        W19004   5.051   0.591   0.625 -0.2301  0.0022  0.1185
 5591W        W19005  13.420   0.414   3.569  0.0047  0.1060 -0.0997
 5592W        W19006   3.256  16.487  11.464 -0.0079 -0.0422  0.1259
 5593W        W19007  16.369   3.439   5.776 -0.1429 -0.0502  0.0762
 5594W        W19008  17.164   4.773   1.323 -0.0936 -0.4215  0.1101
 5595W        W19009  16.454  10.750  16.503  0.1490  0.1473 -0.2026
 5596W        W19010   2.671   5.677   0.405 -0.2430 -0.3480  0.1083
 5597W        W19011   1.312   0.347   4.157 -0.1373 -0.1867 -0.1028
 5598W        W19012   2.903  15.933  13.845  0.2637 -0.0484  0.0260
 5599W        W19013  14.869  14.027  14.185  0.1457 -0.0867 -0.1209
 5600W        W19014  10.300  17.310   5.200  0.2778  0.1671  0.1146
 5601W        W19015  13.941   8.628   4.616 -0.1944 -0.5764 -0.0698
 5602W        W19016   7.544  15.915  15.849  0.3624  0.0032 -0.2236
 5603W        W19017  11.914   1.261   1.766  0.2086 -0.3271 -0.1249
 5604W        W19018   6.723  10.360   4.458  0.2345 -0.1136  0.0709
 5605W        W19019   5.808   8.538   5.088  0.0014  0.0446 -0.2064
 5606W        W19020   4.561   5.363   2.881 -0.0305 -0.0488  0.0144
 5607W        W19021  15.359   1.738   3.549  0.0246 -0.1398 -0.1031
 5608W        W19022  15.869   7.925   6.421  0.0739 -0.0659 -0.3037
 5609W        W19023   5.167   6.811  12.850 -0.0212  0.2341  0.3993
 5610W        W19024  11.673   6.333  16.509  0.2422 -0.1777  0.0687
 5611W        W19025   8.228   8.708   1.097  0.1205 -0.0701 -0.0208
 5612W        W19026   1.059   7.165   6.499 -0.0677  0.1622 -0.2739
 5613W        W19027  10.925  17.391  12.477  0.1076  0.0032  0.0592
 5614W        W19028   8.329  11.441   4.075  0.0232  0.1527  0.1340
 5615W        W19029   5.229  14.695  11.483 -0.2765  0.0133 -0.0059
 5616W        W19030   8.444   5.591  11.519  0.2104 -0.0350  0.1503
 5617W        W19031   3.073   7.213   5.556  0.2289 -0.2559  0.2010
 5618W        W19032   9.865   2.616  15.278 -0.1326  0.0216  0.0618
 5619W        W19033  12.156  15.766  15.475  0.0746 -0.1023 -0.0409
 5620W        W19034   3.588   0.808  15.162  0.1821 -0.1362 -0.2625
 5621W        W19035   0.935  15.027  12.709  0.0928 -0.6502  0.0401
 5622W        W19036  16.719   9.884  11.078  0.0141 -0.3110 -0.0998
 5623W        W19037   4.634  15.975   3.223 -0.2534 -0.1166 -0.2202
 5624W        W19038  14.398  12.394   6.327  0.0820  0.0256 -0.2393
 5625W        W19039   6.464   1.960  14.577 -0.0277 -0.1003  0.0251
 5626W        W19040   4.045  11.841   2.330  0.3755 -0.0547 -0.0877
 5627W        W19041  14.951   5.390   2.038  0.0808  0.1182  0.0932
 5628W        W19042   8.978  16.630  16.759 -0.0828 -0.2590  0.1207
 5629W        W19043   9.869   7.645   1.056  0.1110 -0.0480  0.0646
 5630W        W19044  13.923   3.710  16.031 -0.1581 -0.2583  0.1568
 5631W        W19045  16.418   0.496   0.188  0.4066  0.0314 -0.0454
 5632W        W19046   4.559   2.654  14.610 -0.0282 -0.2448 -0.2613
 5633W        W19047   0.983   5.860   0.588 -0.2045  0.1704  0.0992
 5634W        W19048  11.036  11.443   2.771 -0.0965  0.1557  0.0272
 5635W        W19049  11.476   4.108   2.668  0.2748 -0.2833  0.2310
 5636W        W19050   4.013  14.873  13.727  0.0034  0.3319 -0.0343
 5637W        W19051   7.602   4.553   2.076 -0.0058 -0.1406  0.1829
 5638W        W19052  10.576   0.940  15.021 -0.1027 -0.2244 -0.0938
 5639W        W19053   1.860  12.952  15.685  0.3023  0.0558 -0.2456
 5640W        W19054  11.062  11.310  14.533  0.3108 -0.0431 -0.1388
 5641W        W19055   1.016  15.520   4.873  0.1877  0.2166 -0.0326
 5642W        W19056   3.884   5.584  13.239  0.1721 -0.2910  0.0585
 5643W        W19057   0.495   0.314   3.628  0.0782 -0.1846  0.0632
 5644W        W19058   0.624  13.717  14.551  0.1678  0.0736 -0.0820
 5645W        W19059  14.889   9.602   4.939 -0.0153  0.1654  0.1393
 5646W        W19060  15.270   3.344  10.162 -0.0424 -0.0207 -0.1413
 5647W        W19061   2.152  13.898  15.613 -0.0543  0.1881 -0.0060
 5648W        W19062  13.925   7.443  11.979  0.0229 -0.2549  0.2195
 5649W        W19063   5.539  17.151  11.818 -0.2114  0.0727 -0.1682
 5650W        W19064  16.577  12.347   0.715  0.0424  0.1056  0.6079
 5651W        W19065  15.686  14.203   5.119  0.0901  0.0802  0.3037
 5652W        W19066  16.257   1.902   9.727 -0.0146 -0.0495  0.0109
 5653W        W19067   4.547  16.213  14.677 -0.0617 -0.0889 -0.0764
 5654W        W19068   8.929   4.376   0.562  0.2378 -0.1522  0.2595
 5655W        W19069  16.057  10.722   1.431 -0.2082  0.3496 -0.1122
 5656W        W19070   6.841   6.087   5.537 -0.1312 -0.1204 -0.2043
 5657W        W19071  11.945   8.538  12.494  0.0807  0.1736  0.1094
 5658W        W19072  17.832  15.354  15.244 -0.1741 -0.1048  0.0842
 5659W        W19073   5.792   2.991  14.264  0.1173 -0.1794 -0.0703
 5660W        W19074  15.566   4.466  10.652 -0.1170 -0.0465  0.0334
 5661W        W19075  13.671  10.219   6.127  0.2458 -0.0611  0.3089
 5662W        W19076  17.600   3.021   1.832 -0.0115 -0.0165 -0.0438
 5663W        W19077  14.942   8.597  13.836 -0.3208  0.1003  0.1887
 5664W        W19078   2.311  16.418  11.307 -0.4306 -0.0224  0.0718
 5665W        W19079  15.820   1.433   3.452 -0.0180 -0.1687  0.1249
 5666W        W19080   4.722   5.894   1.141 -0.3072 -0.1036 -0.0028
 5667W        W19081   2.696   9.718   1.139  0.1401 -0.2744  0.0168
 5668W        W19082  13.284   8.128   4.088 -0.0969  0.4033 -0.0099
 5669W        W19083   0.632   2.257  13.410  0.0243 -0.0500  0.0674
 5670W        W19084  10.785  13.254   2.741 -0.3519  0.0315 -0.0389
 5671W        W19085  17.689  13.602   1.154 -0.2236  0.1013  0.4119
 5672W        W19086   1.945  13.850  16.450  0.2927 -0.2144  0.0615
 5673W        W19087   4.583   6.446   3.254 -0.0620  0.0317  0.4709
 5674W        W19088  13.342   3.419  16.286  0.3591  0.0598  0.2560
 5675W        W19089   0.413   2.286   0.533  0.1871 -0.0311 -0.2852
 5676W        W19090  16.121  10.349   5.611 -0.1068 -0.0946 -0.1923
 5677W        W19091   8.881   7.065   0.765 -0.1909  0.1038  0.2430
 5678W        W19092  15.446   8.301   1.072  0.0523  0.1916 -0.0637
 5679W        W19093  13.355  13.069  15.506  0.1768 -0.0709  0.0198
 5680W        W19094  12.588  16.237  16.446  0.1379  0.2940 -0.0352
 5681W        W19095   6.517  12.766  16.270  0.4066 -0.0105  0.0405
 5682W        W19096   4.485   0.899  15.162  0.0825  0.1668 -0.0196
 5683W        W19097  12.053  16.094   4.811 -0.1363 -0.3352 -0.0614
 5684W        W19098   1.692   9.872  12.672 -0.2452  0.1553 -0.1507
 5685W        W19099  17.365  10.615  11.841  0.3541 -0.0412  0.1448
 5686W        W19100  12.048   9.539   5.906  0.0734  0.3694  0.2814
 5687W        W19101  15.499   1.739  13.571  0.0024  0.0763  0.2241
 5688W        W19102  11.914   2.042   5.644 -0.0701 -0.0817  0.0657
 5689W        W19103  12.080  14.863   4.638 -0.0404  0.0315  0.4298
 5690W        W19104  15.660   1.587   3.886 -0.0972 -0.0915  0.0766
 5691W        W19105   3.441   9.473   4.309  0.3035  0.0057 -0.4174
 5692W        W19106  10.452  14.918   5.821  0.0610  0.2479 -0.3875
 5693W        W19107   3.627  16.860  11.469  0.1530  0.0841  0.1908
 5694W        W19108  15.397   0.189   4.922 -0.0911  0.2483 -0.1582
 5695W        W19109  16.982   0.769  11.693  0.1650  0.1358 -0.0248
 5696W        W19110   7.253  12.798   3.606  0.0068 -0.1091  0.0072
 5697W        W19111  10.256   9.229  10.803 -0.1472  0.4125  0.2270
 5698W        W19112   8.072   0.287   0.495 -0.0003  0.2108 -0.1405
 5699W        W19113   6.080  17.025  15.744  0.0931 -0.3000  0.0265
 5700W        W19114   0.258   1.564  12.894  0.2605 -0.0820 -0.0822
 5701W        W19115   4.037   6.393  15.565 -0.0513  0.0854  0.1660
 5702W        W19116   2.847  13.143   3.879 -0.2339 -0.1753  0.1265
 5703W        W19117   4.178   6.227   4.719 -0.1363 -0.0932 -0.1542
 5704W        W19118  13.418   6.735  13.139 -0.0483 -0.1605  0.0540
 5705W        W19119  10.170  15.666   3.961 -0.0203 -0.0394  0.1666
 5706W        W19120  16.220   6.744  12.101  0.4204  0.0255 -0.0622
 5707W        W19121  12.423   5.309  12.359  0.1276  0.2021  0.1052
 5708W        W19122   4.851   8.872   6.138  0.0827  0.1797 -0.2205
 5709W        W19123  10.000   7.464  16.286 -0.0050  0.2288  0.0069
 5710W        W19124   2.357  11.945   3.196 -0.1150 -0.0305 -0.0455
 5711W        W19125  17.765   2.719   0.915 -0.0855  0.1991  0.5243
 5712W        W19126   3.843   7.604  11.758  0.0442 -0.1234  0.0489
 5713W        W19127   3.160  11.511  11.699  0.2560  0.0870 -0.0704
 5714W        W19128   7.482   8.548   2.327 -0.0004 -0.1138 -0.2039
 5715W        W19129   8.058   4.162   4.039 -0.0147 -0.1559  0.2500
 5716W        W19130  14.054   2.069  12.708  0.0437  0.1099  0.0954
 5717W        W19131  10.979   2.623  15.052  0.0178  0.0843  0.0054
 5718W        W19132   6.063  11.649   1.572 -0.0441  0.0657  0.0441
 5719W        W19133  11.509   3.513   3.273  0.0982 -0.0534 -0.1781
 5720W        W19134  11.683  12.045  15.591  0.0524  0.2274 -0.0513
 5721W        W19135   1.958  11.606  15.108  0.0704 -0.0036 -0.0077
 5722W        W19136   1.852  13.486  10.064 -0.1942 -0.1383  0.3611
 5723W        W19137  14.941   4.605   4.566  0.1444 -0.1785  0.0965
 5724W        W19138  10.411   8.082   2.843  0.0187 -0.0796  0.0139
 5725W        W19139   0.006  14.848  15.488  0.0011 -0.0701  0.0854
 5726W        W19140  17.755  14.078   2.055 -0.0972 -0.0042 -0.0399
 5727W        W19141   9.723   2.635  10.815 -0.3875  0.5262  0.3054
 5728W        W19142  15.657  12.933   5.757  0.1274  0.0380 -0.0558
 5729W        W19143   9.445  11.425   3.259 -0.3150  0.0700 -0.1458
 5730W        W19144   9.443   6.434  11.773  0.2626 -0.1465 -0.2086
 5731W        W19145   4.916  14.471   3.171 -0.1645 -0.0821  0.0587
 5732W        W19146   3.924   0.584  11.864 -0.1447  0.2955 -0.1186
 5733W        W19147   2.387  11.911   1.457  0.1076  0.0182 -0.0864
 5734W        W19148  17.928   8.137  11.303  0.0348 -0.0734 -0.3246
 5735W        W19149   3.388  17.746   0.716  0.2144 -0.2380  0.0006
 5736W        W19150   2.672  11.916   2.287 -0.1446 -0.0196 -0.0781
 5737W        W19151   5.351   9.748   1.430  0.2900  0.1394 -0.1478
 5738W        W19152  17.994   8.764  10.119  0.1397 -0.0163  0.0136
 5739W        W19153   0.018   9.421   2.848  0.1120  0.0980 -0.0938
 5740W        W19154  12.981   9.913  15.351  0.0067 -0.1539  0.0008
 5741W        W19155  11.066   2.360  13.111 -0.0542 -0.1580  0.0927
 5742W        W19156   6.087  11.883   0.739  0.0873 -0.0105  0.0066
 5743W        W19157  15.416  13.443  12.657  0.1076 -0.0257  0.0109
 5744W        W19158  14.074  15.581  11.857 -0.0645  0.2201 -0.0927
 5745W        W19159   0.449   3.247   0.709 -0.0074 -0.0576  0.0653
 5746W        W19160   1.469  10.713  14.081 -0.0385  0.0574 -0.0510
 5747W        W19161   9.861   4.299  11.383  0.0309  0.3900 -0.3616
 5748W        W19162  16.683   7.199   1.151  0.2019  0.0625  0.1545
 5749W        W19163  13.205   1.601   4.302 -0.1324 -0.0907 -0.1153
 5750W        W19164  17.935   5.572  14.409  0.0450  0.0241  0.1682
 5751W        W19165  11.748  15.022   0.754  0.1063 -0.0222 -0.0837
 5752W        W19166   2.331  13.786   3.396 -0.0976  0.1811  0.0590
 5753W        W19167  15.970  11.795   4.832  0.1878 -0.0047 -0.0466
 5754W        W19168  10.994  15.518   3.539  0.0026  0.1159  0.0723
 5755W        W19169   1.685  10.393  13.702 -0.3086 -0.1435  0.1419
 5756W        W19170   8.937   4.089  10.318 -0.1371  0.3880 -0.3153
 5757W        W19171   7.116   0.489  16.717 -0.0266 -0.0547  0.1465
 5758W        W19172   8.037   9.059  12.591 -0.2229 -0.3067 -0.0785
 5759W        W19173   4.159   6.097  14.085  0.0111  0.2236  0.1028
 5760W        W19174   9.594   0.269  13.123  0.0783 -0.1579 -0.3775
 5761W        W19175   8.619   6.057  11.756 -0.4154 -0.4903 -0.0547
 5762W        W19176  11.892  13.935  11.917  0.2842 -0.3598  0.0018
 5763W        W19177   9.419  16.728   3.365  0.1630 -0.0972 -0.0062
 5764W        W19178   4.074   1.189  16.111 -0.2989  0.0570 -0.0727
 5765W        W19179   4.325   1.476   2.272 -0.1165  0.0063  0.1387
 5766W        W19180   6.006  10.684   4.947  0.0071 -0.5680  0.1663
 5767W        W19181   8.521   7.363  16.676  0.0796  0.1126 -0.2408
 5768W        W19182  15.020   4.413  16.491 -0.2192 -0.2137  0.1157
 5769W        W19183  11.403   2.999   0.346  0.0831 -0.3039  0.2016
 5770W        W19184   5.439   7.363   1.957 -0.2767  0.3149 -0.0598
 5771W        W19185   5.874   8.671   6.492 -0.2056 -0.0014 -0.0630
 5772W        W19186  10.846   4.578  10.595 -0.3837  0.0350 -0.0060
 5773W        W19187   9.118   1.266  11.598  0.0670  0.1276 -0.0816
 5774W        W19188   7.085   9.421   5.333  0.0342 -0.0185  0.1834
 5775W        W19189   4.968   5.323   5.592  0.1472  0.0480 -0.0364
 5776W        W19190  17.969  14.025   3.829  0.1443  0.1856  0.0462
 5777W        W19191  15.362  15.872  13.619  0.1767  0.1296  0.2170
 5778W        W19192  14.244  10.663   1.439 -0.3661 -0.0976 -0.4031
 5779W        W19193  14.410  17.342   4.354 -0.3766 -0.2359 -0.0056
 5780W        W19194   3.333   5.187   5.622 -0.0719 -0.0018  0.0471
 5781W        W19195  17.762   8.809   0.595  0.1435 -0.1299  0.2203
 5782W        W19196  16.589   7.959   4.811  0.1935 -0.3421  0.1497
 5783W        W19197   0.808   3.098   5.160  0.2415 -0.1624  0.0759
 5784W        W19198   7.112  13.899  14.091  0.1640  0.1995  0.1332
 5785W        W19199   6.851  11.573   0.859 -0.0784  0.2247 -0.0679
 5786W        W19200   8.116   0.827  14.324 -0.0974 -0.2659 -0.0505
 5787W        W19201  12.255  12.693   5.825  0.1479  0.1602  0.0692
 5788W        W19202   2.369   9.053  12.043  0.0368  0.1224 -0.1738
 5789W        W19203  13.069   9.519   5.778  0.2941  0.0554 -0.1860
 5790W        W19204   7.057  10.655   4.196  0.2229  0.1206 -0.0093
 5791W        W19205   7.589   2.177  13.593  0.1713 -0.1697 -0.0538
 5792W        W19206   4.499  17.346   2.719 -0.0204  0.0697  0.0167
 5793W        W19207   6.378  11.301  15.723  0.2120  0.1484 -0.1097
 5794W        W19208   8.321  10.701  16.130 -0.0196 -0.0279 -0.1686
 5795W        W19209  16.841  14.759   4.887  0.0786  0.2320 -0.0694
 5796W        W19210   8.801   0.311  16.691  0.0954 -0.0543  0.0990
 5797W        W19211   0.522   9.052   1.661  0.3118  0.0532  0.2504
 5798W        W19212   5.776  17.892  14.456  0.2079 -0.0032  0.0890
 5799W        W19213  15.868   7.497   2.309 -0.0267 -0.1319  0.1526
 5800W        W19214  16.551   5.746   4.646 -0.1037 -0.0111  0.1447
 5801W        W19215   4.591  17.991  10.716 -0.0010  0.1591  0.1336
 5802W        W19216  12.749  12.378  14.292 -0.1810 -0.0574  0.2190
 5803W        W19217  11.717   8.006  13.283 -0.1564  0.1073 -0.1079
 5804W        W19218   5.440  10.749   1.821  0.0519 -0.1465  0.0622
 5805W        W19219  15.288   3.766   6.102  0.0558  0.0284 -0.1660
 5806W        W19220  15.841   8.830   0.402 -0.0495 -0.0693  0.1895
 5807W        W19221  17.832  13.752   3.006 -0.1986 -0.2176  0.0249
 5808W        W19222   6.599  14.049  14.047 -0.1578  0.0234 -0.2766
 5809W        W19223   7.813   1.659   1.592 -0.0510 -0.1591 -0.2612
 5810W        W19224   8.931   6.093  16.432  0.0090 -0.2543 -0.0005
 5811W        W19225  15.211  16.931  12.300  0.3237  0.0639 -0.1243
 5812W        W19226  12.079   8.292  12.894 -0.2260  0.0105  0.4435
 5813W        W19227   7.798   8.198   2.303 -0.0161  0.0017  0.0745
 5814W        W19228  14.125  13.201   1.762 -0.0287  0.4176  0.0625
 5815W        W19229   2.995   6.317   4.141  0.0393 -0.0040 -0.2255
 5816W        W19230   4.694   4.580  11.636  0.1235 -0.0066 -0.2089
 5817W        W19231  17.208   4.343   5.922 -0.3925 -0.0116  0.0840
 5818W        W19232   7.053  16.789  14.206  0.0503 -0.0559 -0.1348
 5819W        W19233  17.998  17.943  14.865 -0.0080 -0.1221 -0.0541
 5820W        W19234  17.214  16.894   0.843 -0.4865  0.0484  0.2432
 5821W        W19235   9.513  12.734   0.794 -0.2229  0.0433  0.1286
 5822W        W19236  10.571   3.723   0.234  0.1793 -0.1622 -0.1538
 5823W        W19237  16.801   6.641  15.204 -0.2712 -0.4816 -0.3507
 5824W        W19238   4.270   1.060  13.269 -0.0883  0.0901 -0.1888
 5825W        W19239   7.673  13.766  15.420 -0.0968  0.1484  0.0545
 5826W        W19240  12.651   7.197   1.158  0.2773  0.2924  0.1562
 5827W        W19241   2.051   7.623   3.077  0.1320 -0.1366 -0.0796
 5828W        W19242  17.933   0.893  13.813 -0.1906  0.0235  0.1144
 5829W        W19243   4.452   7.858  13.560 -0.1891 -0.1749 -0.0079
 5830W        W19244  17.213   6.639  11.819 -0.0232  0.1093  0.2258
 5831W        W19245   5.812  14.951  12.388 -0.1561  0.1321 -0.2043
 5832W        W19246   0.007   8.944   3.939 -0.0607  0.1431 -0.0778
 5833W        W19247  17.124   8.735  11.127  0.3516 -0.0623 -0.3218
 5834W        W19248   0.850   2.748  12.381  0.1782  0.0624  0.2658
 5835W        W19249   9.753  14.185  14.127 -0.1283  0.2714  0.0153
 5836W        W19250   5.223  15.558   1.469  0.0021 -0.0813  0.2723
 5837W        W19251   6.959   0.404  14.875  0.0383  0.1188 -0.0536
 5838W        W19252   1.143   9.988   4.991  0.2039  0.0959 -0.3203
 5839W        W19253   0.740   2.259  15.317  0.2157 -0.1145  0.1732
 5840W        W19254  13.666   8.471  12.872 -0.0843  0.0286 -0.3352
 5841W        W19255   8.135  11.143   2.445 -0.0042  0.0029  0.0618
 5842W        W19256   8.841   8.343   1.519  0.0308  0.0272 -0.1060
 5843W        W19257  11.734  13.954   0.472  0.1968  0.0882 -0.0012
 5844W        W19258   2.677  12.432   2.191 -0.0194 -0.0573  0.1081
 5845W        W19259  11.765  11.886   1.764  0.0339  0.0584 -0.2601
 5846W        W19260   2.590  11.609  13.005  0.2248  0.3617  0.0118
 5847W        W19261  12.579   3.686  16.197 -0.0399 -0.2219 -0.4203
 5848W        W19262  14.925  16.871  15.813 -0.1660 -0.0937 -0.2616
 5849W        W19263   3.470   7.011   1.260  0.0852 -0.3708 -0.1761
 5850W        W19264   3.234  17.355  12.104 -0.1063  0.1299 -0.1710
 5851W        W19265  15.854   7.280  13.066 -0.1379  0.0525 -0.0264
 5852W        W19266  16.620  11.893   1.982 -0.0951  0.0611 -0.1165
 5853W        W19267  12.453   8.830  15.577  0.0244  0.0074 -0.1768
 5854W        W19268   9.301   1.312  14.442  0.2218 -0.0205 -0.0062
 5855W        W19269   5.004   3.556  12.007 -0.2330  0.1808 -0.3524
 5856W        W19270  11.397   1.099  15.651  0.0031  0.1904  0.0177
 5857W        W19271  10.314  15.620  12.362 -0.0295 -0.2037  0.2276
 5858W        W19272  15.967  12.061  16.779  0.0009 -0.1047  0.2194
 5859W        W19273  13.558   5.080   0.388  0.0843  0.0730 -0.3251
 5860W        W19274   8.643  17.406   2.499  0.0333 -0.0959  0.3865
 5861W        W19275   3.622  15.535  12.102 -0.0033 -0.1977  0.0554
 5862W        W19276   9.919  12.693  16.304 -0.1516 -0.1372  0.1144
 5863W        W19277   4.209  15.428   3.471 -0.1699  0.1998 -0.2443
 5864W        W19278  17.452  10.347  12.296  0.1968 -0.0166 -0.1324
 5865W        W19279   9.606  16.742   6.152  0.0847 -0.1479  0.0046
 5866W        W19280  17.119   2.882  15.213 -0.0616  0.1161  0.1738
 5867W        W19281  11.799   5.505   3.099 -0.1615  0.0041  0.3428
 5868W        W19282  11.695   4.542  10.766 -0.1770 -0.2742  0.3401
 5869W        W19283   8.654   6.240   0.955 -0.0836  0.0512 -0.2383
 5870W        W19284   0.925  14.510   1.419 -0.2121  0.1160  0.1523
 5871W        W19285   3.780   9.117  16.123 -0.0772  0.1156 -0.1430
 5872W        W19286   9.636  14.876  14.465  0.0801 -0.0877 -0.1104
 5873W        W19287   6.167  14.862  13.597 -0.1001  0.1111  0.0411
 5874W        W19288   2.423   5.801  15.993  0.2067  0.0616  0.0981
 5875W        W19289  14.705  13.783  13.551  0.2664 -0.0014  0.0722
 5876W        W19290   2.824  13.109  14.713  0.2794 -0.2933  0.1260
 5877W        W19291   3.358  13.358  11.366  0.3093  0.0282 -0.1297
 5878W        W19292   5.097   7.337   2.312  0.0089  0.2606  0.1772
 5879W        W19293  13.974   7.588   4.381  0.1633 -0.1779  0.3499
 5880W        W19294  10.666  15.788  15.875  0.0868  0.3395  0.0178
 5881W        W19295   6.706   6.520   0.228 -0.2214 -0.0624  0.0223
 5882W        W19296   6.479  17.162  10.875  0.4600 -0.3464 -0.1752
 5883W        W19297  13.252   5.979   5.904 -0.2293 -0.0338  0.1257
 5884W        W19298   2.363   6.937   5.175  0.0569 -0.0041 -0.0794
 5885W        W19299  12.047   6.534  13.270  0.0339  0.1955  0.1977
 5886W        W19300  13.360   5.290  14.768  0.3780 -0.0186  0.1436
 5887W        W19301   9.803   4.086  10.539  0.0497 -0.1241 -0.0834
 5888W        W19302   4.844   4.367   2.852 -0.0526 -0.0771  0.2017
 5889W        W19303  15.610   2.832  16.724 -0.3667 -0.0878  0.0847
 5890W        W19304   2.827  16.318   2.826  0.1224 -0.0075 -0.2753
 5891W        W19305  13.718   2.223   2.577 -0.0393  0.0157  0.0222
 5892W        W19306   3.327   0.485   4.996 -0.0817 -0.0475  0.2781
 5893W        W19307  10.446  13.432  12.319  0.0076  0.2952  0.1975
 5894W        W19308  12.953   1.422   5.158 -0.1883  0.1156 -0.1419
 5895W        W19309   1.735   3.322   4.327 -0.2957  0.4569  0.3660
 5896W        W19310  16.502   4.871  15.676  0.2390 -0.0805 -0.1745
 5897W        W19311   3.066  10.725  16.578 -0.0463  0.0941  0.1928
 5898W        W19312   5.854   8.638  15.294 -0.0870 -0.0449 -0.2608
 5899W        W19313  15.282  14.355   6.680  0.1085 -0.4185 -0.1839
 5900W        W19314   5.296  15.487  16.058  0.0151  0.0731 -0.4117
 5901W        W19315   8.154  10.284   3.539 -0.1669 -0.0961  0.0578
 5902W        W19316   0.772   4.868  12.215 -0.3389 -0.1929  0.2012
 5903W        W19317   5.477   8.926  15.121  0.0256  0.0907 -0.1764
 5904W        W19318  12.748   5.561   5.482  0.0505 -0.1925  0.0094
 5905W        W19319  14.520  15.999   1.135  0.1506 -0.1915 -0.0142
 5906W        W19320  10.535   2.161  14.185 -0.1815 -0.0122  0.2278
 5907W        W19321  10.888   2.449   4.938 -0.0154  0.1472  0.0893
 5908W        W19322   2.443   7.353   6.140 -0.2402 -0.1484  0.1692
 5909W        W19323  14.504   5.577   0.550 -0.0368 -0.1012 -0.0266
 5910W        W19324  15.723  14.492  12.645  0.1906 -0.4228 -0.0452
 5911W        W19325   3.940   8.209   5.106 -0.3869 -0.0317  0.0985
 5912W        W19326   5.335   4.808  12.217 -0.0725  0.1560  0.2598
 5913W        W19327   3.295  15.615  16.566  0.4453 -0.0763  0.0934
 5914W        W19328  15.773   7.547  14.888  0.1415 -0.0011 -0.0784
 5915W        W19329  15.621   4.584  13.363 -0.2698  0.3976  0.1061
 5916W        W19330   5.227   0.732  12.767  0.1573 -0.0008 -0.0132
 5917W        W19331  15.473   4.355  15.542  0.2172 -0.1391  0.1324
 5918W        W19332   1.386  12.649   3.359  0.1909 -0.0515 -0.0413
 5919W        W19333   6.743  12.953  11.767  0.0377  0.0907 -0.0846
 5920W        W19334   2.745  11.016   0.682 -0.2924 -0.0641  0.2020
 5921W        W19335  16.215   3.792   3.817  0.4338 -0.0645 -0.0460
 5922W        W19336   0.404   7.237   1.764  0.0135 -0.0786  0.0391
 5923W        W19337  11.323   3.008  13.691  0.3347 -0.0609  0.0264
 5924W        W19338   1.154   8.453   0.456  0.3085 -0.1562 -0.0672
 5925W        W19339  10.126   4.461   5.735  0.3941 -0.0177 -0.0009
 5926W        W19340   4.753  12.207   1.365  0.2719 -0.1297  0.2573
 5927W        W19341   2.709  14.615   1.275 -0.1373  0.0243 -0.1205
 5928W        W19342   8.795  11.850   1.659 -0.0524  0.0272 -0.1584
 5929W        W19343  12.318  11.497   6.078 -0.2940  0.0960 -0.0878
 5930W        W19344  12.001  11.284  13.193 -0.2181 -0.0257  0.3707
 5931W        W19345  17.317  10.587   3.534  0.4742  0.1861 -0.3390
 5932W        W19346   0.293   2.860  15.458 -0.2675  0.0626 -0.0644
 5933W        W19347   7.723   7.815   6.694  0.2247  0.1238 -0.2359
 5934W        W19348   1.374  15.157  13.543 -0.0859  0.0667  0.1320
 5935W        W19349  14.464  16.708   0.828  0.1072  0.0052 -0.2804
 5936W        W19350  16.708  17.989  16.081 -0.2068  0.0855  0.1723
 5937W        W19351  13.280  11.741  12.249 -0.0329  0.1044 -0.1968
 5938W        W19352   1.045  16.462   4.539  0.1533  0.1711 -0.1068
 5939W        W19353  13.107   5.896   5.422  0.4892  0.1691 -0.2013
 5940W        W19354  12.924  14.628  10.600  0.2277 -0.2149  0.3012
 5941W        W19355  14.823   4.290  14.895  0.0486  0.2390  0.0879
 5942W        W19356   8.939  11.780  12.364  0.0490  0.0580 -0.0475
 5943W        W19357  14.505   2.718  11.970  0.1768  0.0382 -0.1291
 5944W        W19358  12.209   8.630   1.434  0.3808 -0.2355 -0.1821
 5945W        W19359   6.106  15.378  12.350  0.0093 -0.0748 -0.1942
 5946W        W19360   7.036   1.065  10.472  0.0278 -0.0691  0.3044
 5947W        W19361  10.246   1.732   5.328  0.2571  0.0380  0.0410
 5948W        W19362  12.870  14.817   1.832  0.1205  0.3170 -0.2413
 5949W        W19363  16.845  11.105  13.100 -0.1233 -0.4052 -0.0261
 5950W        W19364  15.927  15.107  13.274 -0.0813  0.0377 -0.1135
 5951W        W19365   7.632   7.856   6.194 -0.0999  0.1020 -0.2981
 5952W        W19366   8.994   5.884   6.059 -0.0969  0.2297 -0.0156
 5953W        W19367  13.496  14.214   4.374  0.0957 -0.1045  0.2778
 5954W        W19368  12.523  14.613  14.648  0.4106 -0.1230  0.1197
 5955W        W19369   5.350   9.307  15.467 -0.3249 -0.1384  0.1875
 5956W        W19370  12.286  14.732  12.804  0.0286  0.1695 -0.3239
 5957W        W19371  10.919   9.567   3.994  0.0593 -0.0761  0.1343
 5958W        W19372   3.547   0.680  11.040 -0.0683 -0.2755 -0.0937
 5959W        W19373   3.058  14.139  16.252 -0.5246 -0.0737  0.0285
 5960W        W19374  10.251  10.768  11.366 -0.3613  0.0655  0.1715
 5961W        W19375   2.251  14.876  15.298 -0.1989  0.2210  0.1715
 5962W        W19376   8.522   3.413   4.447  0.0177 -0.0943 -0.2078
 5963W        W19377  12.916  10.923   5.144  0.1447  0.1914  0.1093
 5964W        W19378  15.738   1.960   1.267  0.3808  0.0570  0.1180
 5965W        W19379   2.194   2.998   3.625  0.0810  0.0314 -0.1904
 5966W        W19380  17.139   9.061  14.060  0.1699 -0.1745 -0.3706
 5967W        W19381  14.121  15.230  14.935 -0.0277  0.1988 -0.2267
 5968W        W19382   5.618   4.061  12.681  0.0493  0.0227 -0.1119
 5969W        W19383   3.316   7.391   3.828 -0.0414 -0.1102  0.1054
 5970W        W19384   3.686   8.965   6.478 -0.0963  0.1488  0.1418
 5971W        W19385   9.189  13.160   7.083  0.1552  0.1394 -0.0032
 5972W        W19386   1.267  11.307  13.337 -0.0541  0.1357  0.0715
 5973W        W19387   3.130   9.301  13.539 -0.1235  0.1924 -0.0572
 5974W        W19388  15.774  13.096  11.649 -0.1967 -0.3597 -0.2752
 5975W        W19389   9.573   1.324   2.219 -0.2267 -0.0435  0.0896
 5976W        W19390   6.952  13.847   0.304 -0.0099  0.1764  0.3979
 5977W        W19391   7.773   4.760  16.182 -0.0942  0.1164 -0.2491
 5978W        W19392   4.796  10.053   0.681  0.1371 -0.1146  0.2540
 5979W        W19393   9.079   1.860   1.639  0.1136 -0.0711 -0.0725
 5980W        W19394  16.862   5.309  15.542  0.0432  0.0609  0.0896
 5981W        W19395  15.773  12.100   5.525  0.0925 -0.1070  0.0800
 5982W        W19396  11.138  13.729   2.122  0.0118  0.0260  0.2076
 5983W        W19397  16.676   1.447   3.790  0.2442 -0.4472 -0.1202
 5984W        W19398   9.892  15.001   4.068  0.2957  0.1047  0.1079
 5985W        W19399   8.297   4.621   3.949  0.0843 -0.0008  0.2535
 5986W        W19400  13.187  13.153   1.686  0.0592 -0.0359 -0.2382
 5987W        W19401   8.576  13.356  13.334  0.1782 -0.0681 -0.0458
 5988W        W19402   3.898   3.855  11.662  0.0469 -0.0974  0.0266
 5989W        W19403  15.902  16.629  13.477 -0.0716  0.0140  0.0947
 5990W        W19404  17.397   0.498  10.780 -0.3219 -0.0465 -0.1175
 5991W        W19405   3.502   6.720  13.517  0.0043 -0.1896 -0.1775
 5992W        W19406  17.328   5.874  13.503 -0.1369 -0.1525 -0.1678
 5993W        W19407  11.633  16.470   5.922  0.0629 -0.1636 -0.0413
 5994W        W19408  14.282  10.363  15.884 -0.1096  0.1928 -0.0321
 5995W        W19409  16.813   8.337  16.136  0.0030 -0.2415 -0.5498
 5996W        W19410   3.094  16.543   9.841  0.1331  0.0428 -0.0659
 5997W        W19411  14.530   8.995   2.022  0.1154 -0.2033 -0.1524
 5998W        W19412  11.628   5.541  15.309  0.0757  0.0078 -0.0234
 5999W        W19413   5.349   3.731  10.808  0.1459 -0.0982  0.1010
 6000W        W19414   2.173  15.646   3.985  0.2101  0.1308  0.0615
 6001W        W19415   9.857  15.287  12.659 -0.1114 -0.0947 -0.2699
 6002W        W19416   9.480   7.696   1.377 -0.0562  0.1336 -0.0953
 6003W        W19417  12.030   3.744  11.817  0.2111 -0.0093  0.0258
 6004W        W19418  14.162   1.761   4.117 -0.0123 -0.1663 -0.0671
 6005W        W19419   5.753   9.196   0.821 -0.4420 -0.2337  0.1800
 6006W        W19420   7.218   7.444   5.457 -0.1482  0.0621 -0.3006
 6007W        W19421  12.239  13.414   1.625  0.0017 -0.2606 -0.1534
 6008W        W19422   3.335  14.282  14.767 -0.2474 -0.0666 -0.1955
 6009W        W19423  13.800   7.963  14.606  0.2173 -0.0775 -0.1763
 6010W        W19424  13.383   5.457  13.009 -0.0775 -0.3085 -0.0306
 6011W        W19425   0.772   7.464   1.437 -0.1792  0.0900 -0.1763
 6012W        W19426  14.531  16.148  10.649  0.1227 -0.3482  0.0482
 6013W        W19427  10.055  12.896  12.431  0.0595 -0.1973 -0.0449
 6014W        W19428   8.835  12.640   5.652  0.1987  0.2910 -0.0938
 6015W        W19429   9.965   3.682  15.693 -0.1693 -0.0078 -0.0251
 6016W        W19430   6.391  15.496  11.861  0.2105 -0.1323  0.1071
 6017W        W19431   8.631   1.289   0.210  0.1443 -0.0684 -0.1108
 6018W        W19432  11.968   4.717  15.930  0.1170  0.1600  0.3831
 6019W        W19433  11.261  10.895  13.717  0.1008 -0.1096  0.0072
 6020W        W19434  11.009   0.093   0.011 -0.1769 -0.0637  0.0821
 6021W        W19435   6.692   2.094   9.867  0.3162 -0.0159  0.1499
 6022W        W19436  11.223  14.077   7.350 -0.1673 -0.1933  0.1445
 6023W        W19437   8.977  14.638   1.732  0.1964  0.1541  0.1398
 6024W        W19438   2.363   6.148  12.084  0.1180 -0.2252  0.2716
 6025W        W19439  11.507  12.840  16.599 -0.3581  0.2250 -0.2636
 6026W        W19440   4.947   0.769   1.111 -0.1065  0.1257  0.0916
 6027W        W19441   3.650  11.983   4.056  0.2139  0.0162 -0.2445
 6028W        W19442  16.593   6.796  11.005 -0.0877 -0.1001  0.1384
 6029W        W19443   6.619  17.939   5.318 -0.2460  0.1956  0.3406
 6030W        W19444   7.139  12.631   1.562  0.0390 -0.1800  0.0406
 6031W        W19445   0.368   7.764  10.215 -0.0626 -0.3154  0.1812
 6032W        W19446  17.703   6.753   2.509 -0.0430  0.2666 -0.3247
 6033W        W19447   6.063   9.156   4.227 -0.0353 -0.0790  0.1539
 6034W        W19448  16.680   1.525   1.904 -0.2792 -0.2254 -0.2015
 6035W        W19449  17.112   5.716   5.026 -0.4169 -0.0202 -0.0111
 6036W        W19450   7.874   6.926   1.429 -0.1538  0.1677 -0.1232
 6037W        W19451   3.589  15.030  12.505 -0.0751 -0.0248 -0.0623
 6038W        W19452   1.093   2.260  11.018  0.0725 -0.0102 -0.2094
 6039W        W19453   1.807   9.598  15.741 -0.2445  0.1700 -0.0262
 6040W        W19454  15.272  10.269  14.432  0.1003 -0.1793  0.1240
 6041W        W19455  11.272   0.073   1.595 -0.0716 -0.0646  0.1750
 6042W        W19456   3.663   9.416   1.914 -0.1012 -0.0273  0.3266
 6043W        W19457   5.149   8.471  14.231 -0.0187  0.0031 -0.1949
 6044W        W19458  11.195   0.287  15.199  0.0936 -0.1672 -0.0394
 6045W        W19459   9.665  15.603   5.474 -0.1307 -0.1856  0.2245
 6046W        W19460  12.681   5.366   5.034  0.0596  0.1288  0.2515
 6047W        W19461   3.690  13.403  15.018 -0.1309  0.0699  0.0423
 6048W        W19462   8.633  10.835   4.952 -0.0229  0.1029  0.1448
 6049W        W19463   1.857  15.622  14.249  0.2423 -0.0078 -0.0478
 6050W        W19464   2.584   7.483   0.454 -0.0917  0.1020 -0.0826
 6051W        W19465  13.558  16.684   0.452  0.1663 -0.2484  0.0869
 6052W        W19466  15.203   3.046  15.991  0.1432  0.0671  0.0161
 6053W        W19467  16.037   4.048  16.382 -0.0350  0.0167  0.0205
 6054W        W19468   3.598   8.334  14.729 -0.0631  0.1738 -0.1352
 6055W        W19469   6.354   6.541   0.650  0.0026 -0.0308  0.0108
 6056W        W19470   4.248   7.344   3.945 -0.0219  0.1514  0.0387
 6057W        W19471   4.248  14.276  13.764  0.1668 -0.1495  0.1732
 6058W        W19472   3.535   2.534  16.177 -0.0743 -0.0138  0.1220
 6059W        W19473   9.536   9.012   1.243  0.3308  0.0213  0.2898
 6060W        W19474  10.823   1.111  13.988 -0.2236  0.3352  0.0439
 6061W        W19475   6.742  11.671  15.525 -0.2811  0.0619  0.3666
 6062W        W19476   7.307   9.904  15.518 -0.1429  0.0965 -0.4042
 6063W        W19477  16.269   1.275   1.792  0.0135 -0.1332  0.1903
 6064W        W19478   2.990  17.810   1.111  0.1582 -0.2055 -0.1124
 6065W        W19479  17.232  17.466   4.929  0.0293  0.1047 -0.4377
 6066W        W19480  10.687   8.134   0.344 -0.2293  0.3044 -0.0301
 6067W        W19481  14.537   9.485  11.396 -0.3751  0.0278  0.0008
 6068W        W19482  17.621   5.128  15.072  0.1200  0.0494  0.0048
 6069W        W19483  15.048   2.499  11.286 -0.1122  0.2848  0.2157
 6070W        W19484   0.820  13.513  14.124 -0.1481 -0.1871  0.0373
 6071W        W19485   2.418  15.545   4.391 -0.2907  0.2972  0.1765
 6072W        W19486   0.899   1.722  15.127 -0.0263 -0.2241  0.0927
 6073W        W19487   7.969   5.684   4.671  0.0553 -0.1229 -0.1864
 6074W        W19488   5.671   8.827   1.370  0.0922 -0.1105  0.1034
 6075W        W19489  15.929  14.747   3.554 -0.3842  0.0200  0.0737
 6076W        W19490   9.217   9.519   1.073  0.0794 -0.1467 -0.2194
 6077W        W19491   4.158  17.602   2.337 -0.0380  0.0818  0.0436
 6078W        W19492   3.643   3.283  13.417  0.1940  0.0531 -0.1952
 6079W        W19493   9.695  15.061   6.119  0.1410  0.2130 -0.1001
 6080W        W19494  17.962  15.580  10.214 -0.0647  0.0974  0.1049
 6081W        W19495   4.132   1.517  15.732  0.1819  0.0432 -0.0177
 6082W        W19496  12.839  17.142  11.428 -0.1912  0.2366  0.0449
 6083W        W19497  15.538   7.747  12.838 -0.2958 -0.1137 -0.0812
 6084W        W19498  13.579  16.473   2.614 -0.2537 -0.1408 -0.1836
 6085W        W19499   0.912  15.569  13.959 -0.1481  0.0130  0.1582
 6086W        W19500  11.918   8.396   5.312  0.2207  0.0330 -0.1423
 6087W        W19501   1.871   9.068  13.452 -0.1534  0.2159 -0.1279
 6088W        W19502   2.162   5.708  12.150  0.2752  0.0057 -0.0898
 6089W        W19503   3.240   8.319   0.375 -0.1751 -0.0593  0.0289
 6090W        W19504   4.528  13.511   3.162 -0.2846 -0.2882  0.0952
 6091W        W19505   3.244   1.987   2.802  0.2264  0.0494  0.1422
 6092W        W19506  17.899   3.448  11.582 -0.1344 -0.1056  0.2456
 6093W        W19507   3.157  11.678   6.110  0.1566  0.1009  0.0395
 6094W        W19508  17.710  13.811  14.115 -0.0419 -0.1057 -0.3059
 6095W        W19509   3.354   1.123  12.440  0.0537  0.1305  0.0062
 6096W        W19510  11.590   6.711   1.918 -0.1879 -0.2096  0.1837
 6097W        W19511   5.191  13.135   3.486 -0.1459  0.0340 -0.0274
 6098W        W19512   6.309   3.315   1.525  0.3899 -0.0990  0.1602
 6099W        W19513   9.292   5.489   0.893  0.0088 -0.2635  0.0033
 6100W        W19514  16.219  16.269   4.004 -0.1608  0.0489 -0.1315
 6101W        W19515   3.927   4.964  14.162 -0.0853 -0.2036 -0.0005
 6102W        W19516   6.740  10.662  12.528  0.0912  0.0616  0.0071
 6103W        W19517   6.945   4.312  16.465 -0.0063  0.2929 -0.3016
 6104W        W19518   0.350   7.042  14.908 -0.1769 -0.0109 -0.2490
 6105W        W19519   8.954   7.010   3.052 -0.3019  0.0488 -0.0701
 6106W        W19520  14.529  10.706  14.965  0.1790  0.0405  0.1738
 6107W        W19521  10.141  11.677   1.625  0.0407  0.0323 -0.0814
 6108W        W19522   9.806   7.221  10.769  0.3079  0.3857  0.0512
 6109W        W19523  14.113   3.530  11.659  0.3121 -0.2559 -0.2163
 6110W        W19524  12.877   9.125  15.391  0.2021  0.0601  0.0541
 6111W        W19525   5.439  13.270  12.275  0.3057 -0.2882  0.2388
 6112W        W19526   5.067  11.352  16.272 -0.1730  0.0311 -0.0211
 6113W        W19527  16.047   4.404  10.525  0.0017  0.2290 -0.0576
 6114W        W19528   7.399  10.421   3.858  0.0460  0.0753  0.0524
 6115W        W19529  15.197  15.518  14.056  0.1884 -0.2453 -0.0251
 6116W        W19530   8.570   0.179   0.956  0.1198  0.1087  0.3314
 6117W        W19531  16.233   1.081   4.190  0.0643  0.0527 -0.0159
 6118W        W19532   4.476  10.885  12.032  0.3912  0.2312  0.1358
 6119W        W19533  15.985   1.763   5.244 -0.1763 -0.0769  0.0894
 6120W        W19534   8.709   8.776   1.206  0.0280  0.0977  0.1089
 6121W        W19535  11.717  15.265   0.299  0.0344 -0.0425  0.2432
 6122W        W19536   0.850  14.346  10.478 -0.1995  0.2556  0.0256
 6123W        W19537  17.784  17.549  14.652 -0.0753  0.1724  0.0097
 6124W        W19538  12.872   5.707  15.549 -0.0570 -0.1414 -0.0629
 6125W        W19539   4.729  14.316  15.536 -0.1102 -0.0653 -0.1916
 6126W        W19540   4.358   4.434   4.773 -0.0565  0.0315 -0.0821
 6127W        W19541  16.848   6.907   2.863 -0.0634  0.2010  0.0953
 6128W        W19542  13.290   7.679   6.043 -0.1701  0.0246  0.1506
 6129W        W19543  14.262   8.185   5.517  0.2693  0.1348 -0.1983
 6130W        W19544  11.773  15.668   2.677 -0.0366 -0.0129  0.0060
 6131W        W19545   7.247  10.121   2.496 -0.1507 -0.2278 -0.2316
 6132W        W19546  17.199   3.754   5.228 -0.0081 -0.0488  0.3179
 6133W        W19547   6.872   1.902  10.372 -0.0451  0.1610  0.1314
 6134W        W19548   5.294   6.270  10.276 -0.0675 -0.1884  0.1433
 6135W        W19549   2.447   4.392  16.745 -0.0686  0.0237 -0.0133
 6136W        W19550   2.443  13.025   4.116 -0.1490 -0.1301 -0.4410
 6137W        W19551   7.878  13.310   4.908  0.2442 -0.0557  0.0692
 6138W        W19552   8.587  16.560   1.445 -0.2020 -0.3447  0.1617
 6139W        W19553   3.953   2.974  11.470  0.2154  0.3585 -0.0869
 6140W        W19554   8.833   3.992  11.813 -0.2261  0.0146  0.2372
 6141W        W19555   3.777  11.529  12.020 -0.0704 -0.0966 -0.1632
 6142W        W19556   0.613   6.901   4.272  0.1473  0.2398  0.2581
 6143W        W19557  10.061   6.851  11.689  0.1113  0.1803  0.1135
 6144W        W19558  10.506   7.059   0.855  0.2128  0.2644 -0.0302
 6145W        W19559   2.119   9.337   2.372  0.2300 -0.0562 -0.0933
 6146W        W19560  17.898  14.294   3.114 -0.1198  0.2494 -0.3376
 6147W        W19561   9.061   3.212  13.339  0.0156  0.3285 -0.1046
 6148W        W19562   8.914   6.421  12.000  0.0213 -0.0185  0.1494
 6149W        W19563   9.076   8.860  14.363 -0.3783 -0.2612  0.1113
 6150W        W19564   9.766   9.638   4.525  0.1643  0.0434 -0.0508
 6151W        W19565   7.292  15.080  13.522 -0.0851 -0.0982  0.2104
 6152W        W19566   0.761   8.030   3.452  0.1223  0.0112  0.2360
 6153W        W19567   8.052   0.489   1.688 -0.3102 -0.1720 -0.1974
 6154W        W19568   0.510   7.543  15.190 -0.2285  0.1722  0.1593
 6155W        W19569   9.403  16.995  13.456 -0.0978  0.0122  0.0611
 6156W        W19570   3.950   6.708   1.615  0.0779  0.0368  0.0291
 6157W        W19571  15.937   2.952  13.016 -0.1058 -0.2833  0.0905
 6158W        W19572  10.414   1.506  12.041  0.0399  0.1985 -0.0749
 6159W        W19573  13.805   5.241  12.679 -0.2542  0.0287  0.2572
 6160W        W19574   2.023  16.866  11.164  0.2393 -0.0279 -0.0670
 6161W        W19575   8.747   1.204   9.980  0.0864  0.1155 -0.2341
 6162W        W19576   5.695  12.872   5.047 -0.1149 -0.0127 -0.0555
 6163W        W19577  15.772  14.064  12.410 -0.2445  0.1741 -0.1426
 6164W        W19578  15.450   1.558  14.506  0.4244  0.0853  0.1340
 6165W        W19579  15.369  11.664   1.647 -0.2437 -0.1143 -0.0281
 6166W        W19580   2.711  10.694  15.544 -0.3118 -0.1472 -0.2224
 6167W        W19581  10.567  11.500   2.451 -0.1642 -0.1351 -0.2056
 6168W        W19582   8.880   0.350   6.024  0.0711  0.0087  0.1021
 6169W        W19583   6.752   2.983   0.812  0.2562  0.0175 -0.2521
 6170W        W19584   9.699  11.301  11.869  0.0887  0.1296 -0.2613
 6171W        W19585   4.104   4.020  14.628  0.0897  0.3220  0.0852
 6172W        W19586   7.958   0.168   5.890  0.1287 -0.0941 -0.0517
 6173W        W19587  11.137   0.509   2.068  0.0525  0.0439 -0.1049
 6174W        W19588  12.501  12.685  13.965  0.0352  0.2996 -0.3320
 6175W        W19589  15.783   8.024  14.538 -0.0091 -0.0430  0.0814
 6176W        W19590   4.329  17.775  16.356  0.0051 -0.0852  0.0675
 6177W        W19591  13.938  15.907   5.457  0.0692  0.1508  0.2193
 6178W        W19592  14.163   8.101  11.243 -0.1603  0.1352  0.0087
 6179W        W19593   7.579   6.951   2.961  0.3427  0.0043 -0.1302
 6180W        W19594  16.495   6.297  16.517  0.3334 -0.0981  0.0028
 6181W        W19595   7.594  12.835   1.407 -0.1584 -0.0028 -0.0656
 6182W        W19596   3.453  14.231  14.091  0.1668 -0.0531  0.1431
 6183W        W19597   3.693   8.420   5.549  0.1648 -0.1901  0.0456
 6184W        W19598  11.056   7.875   2.413  0.0494 -0.4030 -0.0804
 6185W        W19599   4.969   3.444  15.858  0.1726  0.1261  0.2216
 6186W        W19600  13.743   3.947   0.805 -0.1073  0.2084  0.1980
 6187W        W19601  16.710   6.196  12.570  0.1327  0.2792  0.2264
 6188W        W19602   3.361  13.390   3.092 -0.0401 -0.0761 -0.1746
 6189W        W19603   3.582   0.092  12.560  0.1721 -0.1894  0.2816
 6190W        W19604  17.558   2.530  13.829 -0.0527  0.0999 -0.1421
 6191W        W19605   8.668   5.261  16.221 -0.0296  0.0562 -0.3350
 6192W        W19606   8.329  12.639  13.336 -0.0317  0.1986 -0.0037
 6193W        W19607  13.621  16.302   5.232 -0.0752  0.1446 -0.0045
 6194W        W19608  14.052   7.773   5.758  0.3576 -0.1477  0.0895
 6195W        W19609  11.010   7.597   5.980 -0.1156 -0.2212 -0.2845
 6196W        W19610   4.386  11.989   0.073 -0.2611  0.2777  0.0583
 6197W        W19611   4.986  16.156  10.363 -0.4009 -0.2705 -0.1112
 6198W        W19612   8.645  16.547   5.341 -0.2277  0.1840  0.0640
 6199W        W19613   9.888   9.850   3.760  0.0217 -0.0948  0.2240
 6200W        W19614   0.046   2.654  12.000  0.1241  0.3215  0.1455
 6201W        W19615   7.641   1.773   2.841  0.0708 -0.1332  0.1745
 6202W        W19616   8.536   4.994   2.097  0.1775 -0.2164 -0.0054
 6203W        W19617   7.915  16.623   6.281 -0.2811 -0.3899 -0.4223
 6204W        W19618   5.889  16.856  11.928  0.0960  0.0499  0.1162
 6205W        W19619   7.246  11.508  15.626 -0.0104  0.0343 -0.0372
 6206W        W19620  16.707   1.543  13.583 -0.1738 -0.1172 -0.2504
 6207W        W19621  12.479   5.787  13.060 -0.0669 -0.0322 -0.0755
 6208W        W19622   4.943  13.780   3.994  0.2153 -0.1061  0.3903
 6209W        W19623   7.948   0.948   1.500 -0.0678 -0.2291  0.0305
 6210W        W19624   2.217   2.045   3.574 -0.1632 -0.0492  0.0218
 6211W        W19625   8.868   1.705  11.722  0.1498  0.0266  0.0670
 6212W        W19626   1.928   8.054  15.994  0.2234  0.0244  0.1239
 6213W        W19627   6.038  12.790  13.782  0.0175  0.1107  0.0956
 6214W        W19628  15.700  16.434   3.653  0.2226  0.1408 -0.2963
 6215W        W19629   5.277  12.446   2.362 -0.2040  0.1824 -0.0874
 6216W        W19630  15.067   6.826   5.054  0.2581  0.2026  0.1684
 6217W        W19631  17.513  14.313  14.159 -0.1047  0.1450  0.0728
 6218W        W19632   9.631   8.458  12.681 -0.1287 -0.0639 -0.0087
 6219W        W19633   7.808  12.745   4.229 -0.2575  0.1652 -0.3209
 6220W        W19634   8.413   4.251  12.019  0.1568 -0.0482  0.1638
 6221W        W19635   7.151  16.543   0.466  0.2005  0.1914  0.2806
 6222W        W19636   1.593   2.454   3.056 -0.0981 -0.1885 -0.1818
 6223W        W19637   2.482  17.936   0.962  0.1943 -0.2500  0.2084
 6224W        W19638  13.901   8.192   0.915  0.1962  0.3091 -0.0340
 6225W        W19639   9.649  14.875  13.576 -0.0558  0.1951 -0.0608
 6226W        W19640  15.656   7.770  15.616  0.2126  0.1853  0.0046
 6227W        W19641  17.569   3.103  13.841  0.0618 -0.0075 -0.4088
 6228W        W19642   6.464   4.337  12.129 -0.1841  0.1811 -0.1094
 6229W        W19643  16.298   3.950   4.940 -0.0318 -0.0949 -0.0795
 6230W        W19644   7.088   3.237  12.805  0.0224  0.1412 -0.3563
 6231W        W19645  12.264   4.688   3.339  0.3360 -0.0848 -0.0064
 6232W        W19646  16.649   7.643  12.516  0.1695 -0.0266 -0.1320
 6233W        W19647  15.602   9.260  11.435 -0.1321 -0.1980 -0.4049
 6234W        W19648   4.221   2.915  15.434  0.2486  0.1512 -0.0893
 6235W        W19649   0.528  12.221  16.089  0.0787  0.0129  0.0111
 6236W        W19650  13.997   3.932  11.341 -0.4091 -0.1775 -0.1439
 6237W        W19651   9.966  17.962   0.458  0.1767  0.5303  0.0556
 6238W        W19652  11.356  11.830  13.203  0.0515  0.1886  0.1151
 6239W        W19653   2.214  15.158   3.219 -0.0326  0.0501  0.1459
 6240W        W19654  10.123   1.763  14.822 -0.1741  0.0956  0.1488
 6241W        W19655  14.378   4.344   3.767  0.3196 -0.0421  0.0327
 6242W        W19656   7.650   8.824  12.206 -0.0398  0.1178 -0.0137
 6243W        W19657  17.321   7.444   0.360 -0.1326 -0.0155 -0.3316
 6244W        W19658   6.550  14.708  15.358 -0.2325  0.1612 -0.0213
 6245W        W19659  12.901  12.557   4.756  0.1330  0.0616 -0.1830
 6246W        W19660   5.380   1.779  12.812  0.1027  0.1799 -0.2749
 6247W        W19661  14.495  12.689   3.979 -0.4358 -0.0845  0.0342
 6248W        W19662  17.563   2.471  16.182  0.1616  0.1658 -0.2312
 6249W        W19663   0.846   1.364  10.747  0.0401 -0.0049  0.1420
 6250W        W19664  17.102  10.188  11.989  0.2276  0.0801  0.0866
 6251W        W19665   9.320  10.337   1.366  0.0624  0.0853  0.1068
 6252W        W19666   6.887  10.989  12.976 -0.0390 -0.0396 -0.1637
 6253W        W19667   6.917   6.589   5.803 -0.1647  0.0285  0.0118
 6254W        W19668   3.877  17.869   0.981  0.0038  0.0066  0.0414
 6255W        W19669  16.832  10.825   3.397 -0.1598  0.3681 -0.0096
 6256W        W19670   3.889   6.342  11.053 -0.0193  0.0779  0.3136
 6257W        W19671   6.046   3.872   4.360  0.1519  0.2006 -0.2862
 6258W        W19672  17.798  11.502  16.062 -0.5461 -0.0953 -0.2026
 6259W        W19673  12.039  16.106  12.408  0.1726 -0.1642 -0.0928
 6260W        W19674   7.423   9.181   2.527  0.0305  0.3115  0.3598
 6261W        W19675   5.501   8.332  15.088 -0.0650  0.1223 -0.0660
 6262W        W19676  14.853  13.276   5.878 -0.2912  0.2677  0.0447
 6263W        W19677   4.464   9.675  10.921 -0.1004  0.0635 -0.2190
 6264W        W19678  10.314   8.405   4.978  0.0133  0.1574  0.0899
 6265W        W19679   1.633   7.078  12.342 -0.2359  0.1065 -0.3002
 6266W        W19680   2.931   0.680   0.779  0.1118 -0.0470  0.2322
 6267W        W19681   3.521   0.823  11.956  0.0756  0.0156  0.1030
 6268W        W19682   6.672   2.180  13.700 -0.0833 -0.1778 -0.1904
 6269W        W19683  15.957   0.843  15.682 -0.1482  0.1516  0.2466
 6270W        W19684   5.845  10.460  15.357 -0.3998  0.3178 -0.2394
 6271W        W19685  12.366  16.238   2.642  0.0097  0.4526 -0.1609
 6272W        W19686  10.642   5.802  12.253 -0.0129 -0.0584  0.1859
 6273W        W19687  10.107  14.814   1.790 -0.1370 -0.1929  0.0088
 6274W        W19688   8.858   3.296   2.282 -0.3051  0.1403  0.2950
 6275W        W19689  12.074   0.288  10.509  0.0755  0.3392 -0.1091
 6276W        W19690   1.526  13.006  14.212  0.1109 -0.1690 -0.1806
 6277W        W19691   8.632   7.351  12.630  0.1669 -0.1272  0.0702
 6278W        W19692   1.968   2.814  10.527 -0.2437 -0.1315  0.1612
 6279W        W19693   4.954   5.838   3.680  0.0882  0.0745 -0.0683
 6280W        W19694   1.587   1.199   5.830  0.1190  0.0524 -0.0409
 6281W        W19695  13.010   3.871  16.016  0.2196  0.0062  0.2278
 6282W        W19696  12.552   5.663   4.575 -0.1767 -0.1896  0.1889
 6283W        W19697  16.998   5.252   4.674 -0.0838  0.0215 -0.1056
 6284W        W19698  15.985   6.013  12.454 -0.1857  0.1440  0.2212
 6285W        W19699   3.905   6.472   4.398 -0.2586  0.0112 -0.0499
 6286W        W19700  10.643   7.468   1.115 -0.2400  0.2129  0.1476
 6287W        W19701   5.386   0.245   3.146  0.0179 -0.0799  0.0377
 6288W        W19702  12.626   2.972   5.000 -0.0679 -0.1467 -0.1405
 6289W        W19703   5.229   1.125   4.924 -0.0776 -0.0196 -0.0115
 6290W        W19704   5.079  15.008   1.211 -0.0465  0.2097 -0.0615
 6291W        W19705  16.052  13.608   4.417 -0.0139 -0.1567  0.0158
 6292W        W19706   3.078  16.309  13.484  0.0702  0.1408 -0.3385
 6293W        W19707   2.793  12.111   1.779  0.1727  0.0878 -0.0902
 6294W        W19708   3.659   9.794  13.831 -0.0464  0.0450 -0.0417
 6295W        W19709  12.524  11.192   3.813  0.4325 -0.3375 -0.0449
 6296W        W19710  13.202  15.654  15.407  0.3343 -0.1343  0.3975
 6297W        W19711  16.209  14.956   5.682 -0.0305  0.0929 -0.2504
 6298W        W19712   4.312  12.465  12.674  0.1554  0.4380 -0.0103
 6299W        W19713   5.862  16.152  10.269 -0.0847 -0.0989 -0.1497
 6300W        W19714  15.567  15.317   6.536  0.0935  0.0342 -0.1564
 6301W        W19715  17.599   6.174  12.229 -0.1135  0.1298  0.1738
 6302W        W19716   4.604   9.723   4.983 -0.2737 -0.2149 -0.2094
 6303W        W19717  12.936  13.869   3.914  0.0654 -0.0517  0.0947
 6304W        W19718   3.325   3.963   1.937  0.1805 -0.1130  0.0081
 6305W        W19719  17.385   0.550   3.244  0.1336 -0.1738  0.1085
 6306W        W19720  16.614  11.254  14.694  0.0994  0.0037  0.0655
 6307W        W19721   0.333   4.759  15.774 -0.1016 -0.2429 -0.1988
 6308W        W19722  13.434   9.846  12.172 -0.0396  0.1447  0.1073
 6309W        W19723  12.951   7.054   2.450 -0.2165  0.0906 -0.4498
 6310W        W19724  15.396  17.988  10.320  0.2932 -0.0443  0.0346
 6311W        W19725   7.520  15.373  13.135 -0.2088 -0.0459  0.2583
 6312W        W19726  10.136   7.177   3.502 -0.0406 -0.0253 -0.1583
 6313W        W19727  13.996  12.883  11.618 -0.0304  0.1474  0.0689
 6314W        W19728  12.640   5.535   3.107  0.2428 -0.0920 -0.0216
 6315W        W19729  11.792  15.240   5.203  0.0239  0.0425 -0.2493
 6316W        W19730  11.718  11.010   2.278 -0.1516 -0.3040  0.2253
 6317W        W19731   0.511   8.449  11.560  0.0854  0.2797  0.2153
 6318W        W19732   1.470   8.787  15.611  0.0634 -0.2407  0.3078
 6319W        W19733   5.557   9.439   2.186  0.0561 -0.2007 -0.2656
 6320W        W19734   4.278  17.763  13.163  0.1013 -0.0896  0.2247
 6321W        W19735  17.714   3.397   3.773 -0.1765  0.1442  0.0511
 6322W        W19736   0.825  12.311  11.668  0.0170 -0.1407 -0.0073
 6323W        W19737  12.192   8.140   1.403 -0.2457 -0.1137  0.0710
 6324W        W19738   4.355   7.411   2.529 -0.0917  0.0581 -0.0869
 6325W        W19739  17.893  12.202  11.842  0.0183  0.0127  0.2573
 6326W        W19740  15.363   7.016  14.119  0.2117 -0.0367 -0.0709
 6327W        W19741   0.390   2.793  14.232  0.0505 -0.4150  0.1632
 6328W        W19742  17.069   3.419  11.475 -0.1578 -0.0341  0.3589
 6329W        W19743   1.635  14.799   1.721 -0.0809 -0.0136 -0.1119
 6330W        W19744   2.380  11.161  11.358 -0.0651 -0.1466  0.2888
 6331W        W19745  17.877   8.927   2.435  0.2252 -0.1682 -0.0409
 6332W        W19746  13.244   3.247   2.811 -0.0808 -0.1874 -0.0604
 6333W        W19747   8.676   0.814   2.128  0.2066  0.0325 -0.1884
 6334W        W19748   6.884  17.115  10.410  0.1725  0.1006  0.1537
 6335W        W19749   6.520   8.366  16.146 -0.1630 -0.1320 -0.1680
 6336W        W19750  14.802   0.687  14.990  0.1910  0.0975 -0.1725
 6337W        W19751   4.177  15.502  13.020 -0.0726  0.2122  0.0909
 6338W        W19752   1.631   3.931  12.860 -0.0195  0.0783 -0.1544
 6339W        W19753   0.875   8.321   4.191  0.2628 -0.4586 -0.0139
 6340W        W19754   5.912   7.549  11.378  0.3121  0.1106  0.0977
 6341W        W19755  15.134   8.851   3.163  0.1392 -0.0304 -0.2108
 6342W        W19756   2.354  11.764  10.837  0.1832  0.1806  0.0796
 6343W        W19757   6.722  16.742   5.552 -0.2489 -0.1687 -0.1950
 6344W        W19758   5.034   1.907  14.169 -0.0699 -0.0640  0.4394
 6345W        W19759  15.765   8.358   4.755 -0.1059 -0.0209  0.0046
 6346W        W19760  11.188   6.679  12.251  0.1140 -0.2226 -0.1006
 6347W        W19761   1.121  17.886  13.197 -0.0681 -0.4000  0.1038
 6348W        W19762   2.012   2.536   3.408 -0.0340 -0.2071  0.2906
 6349W        W19763  12.763   5.325   2.649 -0.0340  0.0266 -0.0302
 6350W        W19764   5.247   6.592   4.976 -0.2745  0.0243  0.2014
 6351W        W19765   6.088   9.795   4.672  0.1331 -0.0263  0.1834
 6352W        W19766   0.354   3.033   3.456  0.3853  0.0829 -0.0881
 6353W        W19767  15.425  11.297  14.867 -0.0192  0.0091  0.0192
 6354W        W19768   7.570  12.858  16.261  0.0746 -0.1584  0.2073
 6355W        W19769  11.222  15.854  15.868  0.0554  0.0672 -0.1406
 6356W        W19770  12.226   5.098   4.976 -0.1880 -0.3170  0.0203
 6357W        W19771   6.379   1.307   2.270 -0.0944  0.0252 -0.0194
 6358W        W19772   8.642  11.789   6.685 -0.0288  0.1272 -0.1171
 6359W        W19773   2.991  12.846   9.970  0.4128  0.1996  0.1888
 6360W        W19774   4.563   6.075   6.056 -0.1637  0.3514  0.1585
 6361W        W19775  17.461   4.261  14.390 -0.0852 -0.3743 -0.1534
 6362W        W19776   0.997  17.391  13.153 -0.0733 -0.1030  0.3136
 6363W        W19777   1.527   4.477  14.739  0.2925  0.0609  0.1406
 6364W        W19778   0.635  16.609  16.337  0.0659  0.1394  0.1912
 6365W        W19779  10.924   8.461  13.672  0.1573  0.0213 -0.3427
 6366W        W19780   4.279   5.172   3.636 -0.1196  0.1915 -0.0021
 6367W        W19781   0.108  11.685  14.958 -0.2565 -0.0091 -0.2709
 6368W        W19782   4.269  12.033   1.227 -0.1440 -0.3473  0.2958
 6369W        W19783  10.412   8.746   2.425  0.0344 -0.1562 -0.1545
 6370W        W19784  16.592  11.171   2.604 -0.0972  0.0736 -0.0925
 6371W        W19785  14.380  14.991   5.839  0.0858  0.2817  0.0998
 6372W        W19786  15.574   4.852  14.039 -0.1783  0.1826 -0.2031
 6373W        W19787  17.567  11.910   2.920 -0.1725  0.0919 -0.1751
 6374W        W19788   0.991  15.609   2.552  0.2245  0.0192  0.0259
 6375W        W19789   9.258  13.332  11.622 -0.0845 -0.1361  0.0757
 6376W        W19790   4.890   3.327  11.018 -0.4090  0.0113  0.1416
 6377W        W19791  14.237   5.209  12.996 -0.0413  0.1008 -0.0068
 6378W        W19792   0.857  11.641  12.275 -0.0693 -0.0721  0.1684
 6379W        W19793   7.413   1.501   0.772 -0.1558  0.1682 -0.1355
 6380W        W19794  17.905  10.099  12.274 -0.0041  0.0190  0.0354
 6381W        W19795   2.841  16.819  12.047 -0.2324 -0.0477 -0.0151
 6382W        W19796  13.557   2.815   5.102 -0.1939  0.1403 -0.1481
 6383W        W19797  16.632  14.957  14.309  0.1407  0.0513  0.3059
 6384W        W19798   6.784   0.052  14.448  0.0720 -0.0077 -0.2805
 6385W        W19799  11.972   7.799  12.798 -0.2046 -0.0444  0.2580
 6386W        W19800   5.385   0.154  10.170 -0.0715  0.1694 -0.2876
 6387W        W19801  15.550   2.946  12.030  0.2046 -0.1012  0.1149
 6388W        W19802  12.834  11.563  11.548 -0.1022  0.0725 -0.4710
 6389W        W19803  13.433   2.117   3.003 -0.0052  0.0938  0.0885
 6390W        W19804   3.634   8.633   4.137 -0.0523 -0.1044 -0.0965
 6391W        W19805   9.406   8.404   0.157 -0.0334 -0.3026  0.2210
 6392W        W19806   8.663   2.898  11.384 -0.1290  0.0032  0.0347
 6393W        W19807  10.331  17.714  14.985  0.0357 -0.2269  0.2593
 6394W        W19808   2.091   5.111  14.211 -0.0529  0.0126  0.3575
 6395W        W19809  16.051   6.472   4.688  0.0310  0.3075 -0.0324
 6396W        W19810  17.088   6.915  12.352  0.0647  0.1213 -0.0549
 6397W        W19811  13.720   6.730  16.194 -0.1831  0.2570  0.1151
 6398W        W19812  16.684   3.284   4.802  0.0316  0.2801  0.2017
 6399W        W19813   5.110  14.641   2.670  0.1840 -0.0321  0.1798
 6400W        W19814  15.417   3.075  15.035  0.6548 -0.3589  0.3432
 6401W        W19815   2.815  16.522  13.075 -0.2047  0.0182  0.1192
 6402W        W19816   0.399  16.586  13.957 -0.0201  0.4108  0.1957
 6403W        W19817  14.873  12.336   0.061  0.0681 -0.1949 -0.1533
 6404W        W19818  12.586  16.059   0.528 -0.0832 -0.2389  0.2214
 6405W        W19819   9.803  10.051   3.287  0.0477  0.1871 -0.1641
 6406W        W19820   6.630  15.576  12.503  0.1643  0.3131 -0.2494
 6407W        W19821   1.231   4.820   2.594 -0.0498  0.0955 -0.0855
 6408W        W19822  14.122   1.510   1.036  0.1666 -0.3642  0.1955
 6409W        W19823   7.534  15.665   1.100 -0.3396 -0.0106 -0.0600
 6410W        W19824   2.920   5.018  13.880 -0.1742  0.0657  0.1012
 6411W        W19825   0.295   7.945  15.471 -0.1221  0.0377  0.0663
 6412W        W19826  17.062   6.450   4.514 -0.1414 -0.0780 -0.0227
 6413W        W19827   4.633  15.716   5.270 -0.0117  0.0864 -0.1727
 6414W        W19828  11.336   5.811   3.868 -0.2610  0.0415  0.0533
 6415W        W19829  11.630   0.495   0.751 -0.3290 -0.0975  0.2887
 6416W        W19830  12.843   4.841   4.880  0.1431  0.0020  0.0249
 6417W        W19831   3.991  14.883   5.984 -0.0532  0.0323  0.1121
 6418W        W19832   9.743  10.934   5.997 -0.0147  0.3271  0.1631
 6419W        W19833   5.652   3.583   2.297  0.1379 -0.1235  0.1799
 6420W        W19834   5.401   1.309  13.570 -0.0791  0.2304 -0.2587
 6421W        W19835   7.483   8.968   3.710 -0.0204 -0.1219 -0.0907
 6422W        W19836   1.798   0.058   4.097  0.0469 -0.0734 -0.0357
 6423W        W19837   5.122   6.498  11.345 -0.2142 -0.2735  0.1783
 6424W        W19838   8.374   3.000  11.947  0.0203  0.0546 -0.1011
 6425W        W19839  12.548   5.728  13.580 -0.0293 -0.0017 -0.0757
 6426W        W19840   1.600   7.198   0.361  0.0240  0.0037 -0.3263
 6427W        W19841  11.414   5.010  15.635 -0.1443 -0.0898  0.0943
 6428W        W19842  17.119   9.601  12.795 -0.1209 -0.3811  0.0501
 6429W        W19843  11.484   5.090   5.750 -0.0443  0.1017 -0.1435
 6430W        W19844   7.934   1.430   4.738  0.1421 -0.0793  0.0226
 6431W        W19845   7.844   9.083  16.704  0.0903  0.1622 -0.1805
 6432W        W19846   2.672   5.958  13.043  0.1455  0.2831  0.0114
 6433W        W19847  16.244   6.570  14.099 -0.1618 -0.0203  0.0770
 6434W        W19848  11.913   4.097  13.048  0.0661 -0.1003 -0.0808
 6435W        W19849   7.473  15.200   6.392  0.2482  0.0127  0.1341
 6436W        W19850  11.056   8.814   3.180 -0.1588  0.4262  0.0411
 6437W        W19851   1.920  17.038   4.228  0.0063  0.1793  0.0570
 6438W        W19852  11.274  15.985   5.927 -0.2458 -0.0541 -0.3361
 6439W        W19853  13.853  14.249  16.182 -0.3216  0.1697  0.0135
 6440W        W19854   1.735   3.662   2.967 -0.0289  0.0325 -0.1411
 6441W        W19855  15.304  11.265  16.677 -0.0212 -0.1547  0.0329
 6442W        W19856   1.860  14.971  16.266  0.3236  0.0824 -0.0907
 6443W        W19857   5.797   0.256  12.187  0.0534 -0.0546 -0.0882
 6444W        W19858   5.636  14.216  14.202 -0.1699 -0.1260 -0.2051
 6445W        W19859   5.118   9.900  13.630  0.1951 -0.3690  0.1981
 6446W        W19860   2.039  16.794   0.497 -0.1513  0.0283  0.2207
 6447W        W19861   7.136   5.895   0.713  0.0124 -0.1588 -0.1213
 6448W        W19862  14.662   1.072  14.062  0.2806  0.1980  0.2258
 6449W        W19863   4.154   9.475   1.618  0.0136 -0.0531 -0.0322
 6450W        W19864   9.619   1.968  10.821 -0.1579 -0.2260 -0.0573
 6451W        W19865   9.109   6.018  15.941  0.0128 -0.2147  0.1852
 6452W        W19866   3.992   4.338  15.834 -0.0167  0.1585  0.2029
 6453W        W19867  12.652  14.130  13.918  0.1413  0.1987 -0.2733
 6454W        W19868   8.559   4.455  12.506  0.2360 -0.0135  0.2055
 6455W        W19869  16.488  10.082  14.938  0.0618  0.0579  0.0533
 6456W        W19870  16.913  10.926   0.846 -0.0061  0.0377  0.1892
 6457W        W19871  14.809  14.600  16.486 -0.0670 -0.3910  0.0878
 6458W        W19872  14.872   3.507   6.190 -0.1787  0.0853 -0.1248
 6459W        W19873   5.516  16.623   3.154 -0.1792 -0.0342  0.0587
 6460W        W19874   9.428  11.717  14.640 -0.2101  0.0249 -0.3881
 6461W        W19875  13.641   5.092   2.245 -0.2031  0.1738 -0.0776
 6462W        W19876  16.181  15.736   3.425 -0.0297 -0.0521 -0.0170
 6463W        W19877   1.974   8.358   4.812  0.0710  0.0600 -0.0339
 6464W        W19878  12.226  11.265   1.817  0.1044 -0.0486 -0.2036
 6465W        W19879   4.330   5.581  13.502 -0.1102  0.1934  0.0352
 6466W        W19880  13.317  10.018  13.092 -0.2395  0.1045  0.1043
 6467W        W19881   2.804   3.917   4.880  0.2994 -0.4285  0.1306
 6468W        W19882   9.851   8.837  12.976  0.1108 -0.0318 -0.1443
 6469W        W19883  11.972   5.032  12.181  0.0070  0.0355  0.1254
 6470W        W19884   5.643   6.011  12.426  0.0255 -0.0341  0.1313
 6471W        W19885   1.341   9.054   2.877 -0.2275  0.1764  0.0401
 6472W        W19886   7.386   4.956  12.189 -0.1250 -0.1545  0.2423
 6473W        W19887   1.042   0.969  15.451 -0.1594 -0.1397  0.1722
 6474W        W19888   4.402   0.321  12.008 -0.1106 -0.0507 -0.0369
 6475W        W19889   2.606   7.356   5.660 -0.0081 -0.1950 -0.0466
 6476W        W19890  15.911   3.209  11.410  0.1958  0.2785 -0.0346
 6477W        W19891  16.871  10.947   4.263 -0.1959  0.1104  0.0059
 6478W        W19892  16.110  10.576   6.549 -0.0614 -0.2272 -0.0806
 6479W        W19893   9.009   1.647  14.709 -0.2269  0.1380 -0.0425
 6480W        W19894   4.161   1.148  14.747  0.0024 -0.0008  0.1194
 6481W        W19895  14.025  15.628  11.313  0.1965 -0.2002  0.1791
 6482W        W19896  15.663   9.896  13.228 -0.1232  0.3226 -0.0205
 6483W        W19897   1.763   7.144   0.836  0.2017 -0.2872 -0.2409
 6484W        W19898  12.002  17.324  12.473  0.1248 -0.2254 -0.0772
 6485W        W19899  17.158  14.057  12.249 -0.2217  0.1131  0.2059
 6486W        W19900   5.894   2.222   2.188  0.0438 -0.0577  0.0338
 6487W        W19901   2.512   3.520  12.877  0.2778  0.1099 -0.0451
 6488W        W19902   1.695   5.751   0.934  0.4514 -0.1844 -0.2175
 6489W        W19903   2.700  12.049   5.039 -0.0409  0.0853 -0.0920
 6490W        W19904   1.370   5.846  14.923  0.0848 -0.0057 -0.3287
 6491W        W19905  16.712   0.343  13.491 -0.0987 -0.3609  0.1248
 6492W        W19906  14.961  14.107  16.330  0.0851 -0.1461  0.0854
 6493W        W19907  13.085   3.574   2.422  0.1146  0.1128  0.2607
 6494W        W19908  15.583  10.629  14.181  0.0995 -0.0820 -0.0730
 6495W        W19909   6.492   3.967   5.319 -0.2751 -0.0009 -0.1047
 6496W        W19910  16.530  16.313  14.574  0.0293 -0.1038  0.3528
 6497W        W19911   7.944  15.064  12.979  0.1213 -0.1008  0.3095
 6498W        W19912  17.710   4.540  11.309  0.1570  0.1468  0.0094
 6499W        W19913   7.667  13.559   3.614  0.2188  0.0085 -0.2743
 6500W        W19914  16.495  15.504   4.469  0.0089  0.0578  0.2218
 6501W        W19915   2.214   7.149  13.841 -0.0261  0.0886  0.0218
 6502W        W19916   0.432   5.665   5.437  0.0425  0.1069 -0.3076
 6503W        W19917   1.316  13.345   0.047 -0.2573 -0.0379  0.0147
 6504W        W19918  10.748  10.912  13.631  0.1318 -0.1965 -0.2465
 6505W        W19919  17.633  14.495  11.055 -0.0112  0.2878 -0.1603
 6506W        W19920   0.325   4.012  15.259 -0.1340  0.1456 -0.0488
 6507W        W19921  17.968   3.004   4.583 -0.0789 -0.1157 -0.1143
 6508W        W19922   1.655   7.169  13.994  0.1282 -0.1567  0.0735
 6509W        W19923  16.977  10.813   1.370  0.0904 -0.2631 -0.1652
 6510W        W19924   3.951  16.891   0.987  0.0110 -0.2024 -0.0513
 6511W        W19925  17.045  16.106  12.851 -0.0898  0.0409  0.2297
 6512W        W19926   3.821  14.583   5.020  0.0518  0.0635  0.0509
 6513W        W19927  16.951  13.429  15.871 -0.0378 -0.1074 -0.0163
 6514W        W19928   8.509  12.770  12.312  0.2019 -0.0053  0.1701
 6515W        W19929   8.564  13.486  14.934 -0.0232  0.0638  0.2783
 6516W        W19930  11.692   6.033   2.338 -0.1951  0.1042  0.0415
 6517W        W19931   8.001  14.923  11.648 -0.1330  0.1338 -0.0440
 6518W        W19932  13.227   7.537   1.009  0.1715  0.1062  0.2622
 6519W        W19933   9.991   2.999   5.401 -0.1372 -0.2329 -0.1552
 6520W        W19934  12.790  10.096   2.445 -0.1783  0.1291 -0.1693
 6521W        W19935  16.845   0.747  10.988 -0.2446  0.1047 -0.0743
 6522W        W19936  11.898   2.219   1.970  0.0422  0.2225  0.0284
 6523W        W19937   9.215  10.908   3.320 -0.1941 -0.0500 -0.0511
 6524W        W19938  13.079  11.638  15.118  0.0612 -0.0702 -0.1081
 6525W        W19939   4.597  11.831   2.211 -0.2317 -0.0429  0.0247
 6526W        W19940  13.223   5.827   3.991 -0.1115 -0.1396 -0.0351
 6527W        W19941  11.157  15.515   6.951  0.2339 -0.3324  0.0513
 6528W        W19942   5.742  16.333   1.610 -0.1351 -0.1023  0.0614
 6529W        W19943  13.571   3.350   0.057  0.0182 -0.0771 -0.0533
 6530W        W19944  14.317  17.889  15.455  0.0180 -0.2765 -0.0018
 6531W        W19945  10.729   0.976  10.582  0.1213  0.1825 -0.1080
 6532W        W19946   7.938  17.509   4.604 -0.0021  0.0320 -0.0737
 6533W        W19947   0.980   8.342  10.748  0.0075  0.0657  0.1612
 6534W        W19948   4.381   0.584  13.156 -0.3316 -0.0939  0.1251
 6535W        W19949   8.725   6.260  10.926 -0.0377 -0.0658 -0.0073
 6536W        W19950   9.876  10.853  11.704 -0.1732  0.1447 -0.1048
 6537W        W19951  10.074  15.175  15.360  0.1813  0.2830  0.0476
 6538W        W19952   4.345   2.564   5.315  0.0814 -0.1477 -0.0767
 6539W        W19953  11.508   9.718   4.713  0.2191 -0.1288 -0.0523
 6540W        W19954  16.537  16.606  14.030  0.0948  0.0773  0.0861
 6541W        W19955   2.113  14.637   1.992 -0.1958  0.2544  0.1988
 6542W        W19956   9.314  12.809  13.440  0.2199 -0.1107 -0.1108
 6543W        W19957  16.815  12.649  13.898 -0.0174 -0.1584  0.1713
 6544W        W19958   1.765  17.245  12.055  0.1222 -0.3909  0.2907
 6545W        W19959   1.833   4.877  16.412 -0.0830 -0.1204  0.0504
 6546W        W19960  15.760   2.145  15.340  0.2455  0.0793 -0.1771
 6547W        W19961   1.137  15.732  12.991  0.2786 -0.1337  0.0548
 6548W        W19962  11.318   0.364   3.010  0.3568 -0.2030 -0.0302
 6549W        W19963  11.364   2.739  16.652  0.0402 -0.1971  0.3429
 6550W        W19964  11.125   2.269  16.378 -0.0931 -0.2399  0.2172
 6551W        W19965  14.432   4.518   2.426 -0.2021 -0.0038  0.0586
 6552W        W19966   0.186  15.203   2.069 -0.2272 -0.0387 -0.2985
 6553W        W19967   9.002  10.261  16.395 -0.0987  0.2328  0.0859
 6554W        W19968   1.489   6.316  14.630  0.1612  0.2124 -0.0116
 6555W        W19969   3.068   0.600   2.432 -0.0300 -0.2079 -0.1951
 6556W        W19970   8.945   8.787  12.599  0.0797  0.0935  0.0568
 6557W        W19971  15.588  11.326   1.046 -0.2431 -0.1464  0.0070
 6558W        W19972  10.022  15.683  11.802  0.0229 -0.0297 -0.0597
 6559W        W19973   3.905   8.582  13.062  0.1241  0.0427 -0.2989
 6560W        W19974   0.297   8.452   5.398 -0.1537 -0.1021  0.3009
 6561W        W19975   2.404   0.993  14.426  0.0996 -0.2474  0.0744
 6562W        W19976   6.835  17.874  13.825 -0.1864  0.3202  0.1028
 6563W        W19977   9.358  10.623  16.080 -0.3510 -0.2049 -0.4801
 6564W        W19978  15.131   5.278   4.589 -0.2230 -0.0496  0.1282
 6565W        W19979   2.382  16.581   2.399  0.0205 -0.0415  0.1050
 6566W        W19980  13.621  13.386   4.078 -0.1274 -0.3261 -0.1563
 6567W        W19981  11.664   5.043  16.051 -0.1007  0.0983 -0.0350
 6568W        W19982   4.325   4.216   1.084 -0.2002 -0.0842  0.0481
 6569W        W19983  10.936   0.615  14.084  0.1545 -0.0839 -0.1355
 6570W        W19984   0.205  15.656  15.356  0.1671  0.0728  0.0571
 6571W        W19985   1.259  14.123   4.731 -0.0790  0.0366  0.2484
 6572W        W19986   4.932   0.322  15.312  0.1243 -0.2935 -0.0394
 6573W        W19987   2.554  11.205   4.770  0.4194 -0.0385  0.0522
 6574W        W19988   2.932   3.789   0.140  0.1352 -0.3129 -0.2419
 6575W        W19989  14.150  16.238   5.152 -0.2607 -0.1092 -0.2550
 6576W        W19990   6.758  14.474   5.745  0.0962 -0.1543 -0.0863
 6577W        W19991  12.392   5.866  11.964  0.0607 -0.1932 -0.1883
 6578W        W19992   6.010  11.459   4.838 -0.1449 -0.0111  0.3498
 6579W        W19993  10.832  16.252  15.899 -0.0161 -0.1888  0.1057
 6580W        W19994   4.339   0.690  13.655  0.0363  0.0134  0.1573
 6581W        W19995  12.617   5.599   2.264 -0.3095  0.0585 -0.0267
 6582W        W19996  14.114   7.346   0.817 -0.0046 -0.2997 -0.3344
 6583W        W19997   1.235   7.546   1.645 -0.0092  0.0405  0.2063
 6584W        W19998  16.502  12.268  14.267  0.1725  0.2759 -0.1302
 6585W        W19999   9.297  17.067  11.680  0.1419  0.1330 -0.0407
 6586W        W20000   6.929  15.979   3.818  0.1354 -0.0412  0.2509
 6587W        W20001   8.980   3.755  13.841 -0.0528 -0.0851  0.1327
 6588W        W20002   5.815   7.629  15.069  0.1373  0.1002 -0.1903
 6589W        W20003  16.008  13.040  13.720 -0.0305  0.0973 -0.0539
 6590W        W20004   8.080   3.315   5.908  0.3205  0.0301  0.0280
 6591W        W20005   8.653  16.842  16.326 -0.0319 -0.2732 -0.0126
 6592W        W20006   8.563   2.568  11.775  0.0790  0.0596  0.1363
 6593W        W20007   1.331   7.189   4.743  0.1686 -0.3896 -0.1288
 6594W        W20008  15.790  16.692   2.688 -0.0549  0.1866 -0.1378
 6595W        W20009  10.436  16.844   2.285  0.0832 -0.1517 -0.2879
 6596W        W20010   0.849  10.148  16.712 -0.1666  0.1280  0.0418
 6597W        W20011  13.142   4.706   4.429  0.0689 -0.5316 -0.0633
 6598W        W20012   1.291   6.838   2.872  0.1459  0.2930  0.1584
 6599W        W20013   6.924   8.010  13.628 -0.0113 -0.0067  0.0796
 6600W        W20014   7.796   7.232  11.059 -0.1429 -0.0178 -0.0633
 6601W        W20015   6.356   5.733  11.798 -0.2719  0.1628 -0.0963
 6602W        W20016  14.646  14.648  11.007 -0.0556  0.1181  0.1778
 6603W        W20017   0.354  14.147  14.365  0.0983 -0.0398  0.1483
 6604W        W20018   9.034   6.957   2.028 -0.0878 -0.2175 -0.2583
 6605W        W20019  14.044   9.070   0.610  0.2889  0.1547  0.1244
 6606W        W20020   9.946  15.193  13.164 -0.2759 -0.1691 -0.0542
 6607W        W20021   8.851  13.134  13.727  0.0802 -0.0832 -0.1410
 6608W        W20022  12.888  17.942  14.215 -0.0787 -0.1915  0.3502
 6609W        W20023  14.104  13.229  11.286  0.3306  0.2892  0.0223
 6610W        W20024   5.912   2.527  13.288  0.0256 -0.1050  0.0715
 6611W        W20025   1.238  12.217  15.463 -0.2175 -0.0988 -0.0089
 6612W        W20026   0.472  12.822   3.134 -0.1043 -0.0067  0.0507
 6613W        W20027   7.134  12.995   1.173  0.0385  0.0473 -0.2296
 6614W        W20028   8.524   5.795  14.668  0.3077 -0.0417  0.0917
 6615W        W20029  12.970  13.540   4.282 -0.3202  0.2367  0.0889
 6616W        W20030   2.097   1.420  11.431 -0.0805 -0.0962  0.0239
 6617W        W20031   3.667  11.897  11.114 -0.0575  0.0912 -0.2648
 6618W        W20032   7.499  16.055   3.118  0.4041  0.2107 -0.1034
 6619W        W20033  11.093   9.652  16.214 -0.0544  0.1344 -0.0649
 6620W        W20034   1.905  11.791   2.980  0.1876 -0.1299  0.1005
 6621W        W20035  14.042  14.425  13.519  0.0418  0.0141  0.4140
 6622W        W20036  12.398   7.236  15.934  0.0288 -0.2227  0.1346
 6623W        W20037   7.852   5.443  13.297  0.1500  0.1855 -0.0432
 6624W        W20038   4.477   0.945  12.727 -0.0594 -0.3257  0.3792
 6625W        W20039  14.283  11.282   1.888  0.0343 -0.0015  0.0329
 6626W        W20040  13.596   9.567  11.565  0.0256  0.2587 -0.5425
 6627W        W20041  11.719  11.856   2.760  0.0944  0.1553  0.1527
 6628W        W20042  16.694  11.496   1.666 -0.2847 -0.0227  0.3847
 6629W        W20043   1.564   9.114  12.147  0.1256 -0.1466 -0.1079
 6630W        W20044  14.953  12.761   1.958 -0.0229  0.0394  0.2018
 6631W        W20045   8.133   3.678  15.523 -0.1832  0.0705 -0.1019
 6632W        W20046   7.863  16.267   1.159  0.0293  0.1480  0.0723
 6633W        W20047   3.422   7.953  12.476  0.3478  0.0665 -0.0082
 6634W        W20048   6.566   6.496  11.573 -0.1548 -0.0942 -0.2061
 6635W        W20049   0.639   4.453  14.384  0.3987 -0.2382  0.2587
 6636W        W20050  16.397   4.810   2.458  0.2301 -0.1680 -0.0654
 6637W        W20051   0.084  10.217   3.140 -0.1838  0.1782 -0.2696
 6638W        W20052   4.230  13.892   2.848 -0.2866  0.1679 -0.1411
 6639W        W20053  13.397  13.762   0.256 -0.0141  0.2135  0.2736
 6640W        W20054   7.567   2.408  10.097 -0.2120 -0.0335 -0.1148
 6641W        W20055  17.348  13.763   3.024 -0.1149  0.0956  0.0797
 6642W        W20056  14.647   7.552  13.903 -0.1224  0.0968  0.1193
 6643W        W20057   7.856   0.841   2.103 -0.1628  0.1394  0.0231
 6644W        W20058  15.027  13.775   1.949 -0.0841  0.0518 -0.2476
 6645W        W20059  14.539   6.007   1.714  0.0622 -0.0312  0.1931
 6646W        W20060   5.537   4.625  11.370 -0.2343  0.2075 -0.0462
 6647W        W20061   4.794   1.378   2.569 -0.1896 -0.0659  0.2017
 6648W        W20062   5.226  11.728  15.882  0.1823  0.4152  0.0454
 6649W        W20063  16.167   6.137   3.120 -0.0486 -0.0526 -0.0489
 6650W        W20064   7.508   2.071  11.097  0.3047  0.1638  0.1055
 6651W        W20065  14.088   4.670  14.425  0.0431  0.1844 -0.0591
 6652W        W20066  16.794   4.793   4.645  0.0058  0.1106  0.0648
 6653W        W20067  10.675   1.444   1.945  0.1053  0.0904 -0.0189
 6654W        W20068   8.468   4.183   0.629 -0.2681 -0.4445 -0.2057
 6655W        W20069   7.521   2.802   1.354  0.1087  0.2587 -0.2377
 6656W        W20070  13.361   1.005   2.838 -0.1392 -0.1665 -0.1259
 6657W        W20071   5.831   3.000  11.256  0.3038 -0.1375  0.1485
 6658W        W20072   9.974   5.085  10.627 -0.1253 -0.0825 -0.2900
 6659W        W20073  16.854  12.920   4.560 -0.2059  0.0177  0.0865
 6660W        W20074  14.758  16.408   5.367 -0.0615 -0.0665 -0.0524
 6661W        W20075   9.002   2.681   3.015  0.1922  0.0848 -0.0529
 6662W        W20076  13.489   7.551   2.799 -0.1674 -0.0091  0.1691
 6663W        W20077  17.679   4.269   1.390  0.0641 -0.2567  0.0760
 6664W        W20078   4.864   3.474  14.421 -0.0462 -0.1508  0.0320
 6665W        W20079  12.100  16.187  11.190  0.2189  0.2429  0.1114
 6666W        W20080   1.715   3.515   3.480  0.0943 -0.3293  0.0443
 6667W        W20081   4.211   9.366  16.122  0.1742 -0.1164 -0.0870
 6668W        W20082  14.712  17.524  16.333 -0.2067 -0.2124 -0.0465
 6669W        W20083  10.088   0.543  15.004 -0.0228  0.0830  0.1414
 6670W        W20084   8.122   6.880  15.486  0.0613  0.1054  0.0546
 6671W        W20085  17.385   4.246  12.970  0.3792 -0.2370 -0.2353
 6672W        W20086   1.609  13.039  12.182 -0.3440 -0.2152 -0.1396
 6673W        W20087   3.572  13.573  11.870  0.1637 -0.0953  0.0207
 6674W        W20088   5.838  11.360  13.123  0.1600 -0.1163 -0.1045
 6675W        W20089   8.467   1.338   4.304 -0.0497 -0.1072 -0.0679
 6676W        W20090  15.115  12.045  13.368  0.3008 -0.0155  0.2430
 6677W        W20091   5.890   7.141  14.229 -0.1558 -0.2205 -0.1337
 6678W        W20092  17.365  13.444  14.193  0.2582  0.2228 -0.0612
 6679W        W20093   7.326   4.855   2.921  0.1386 -0.0848  0.0579
 6680W        W20094   9.841  13.934   3.176  0.2201 -0.2203 -0.2474
 6681W        W20095  13.882  13.888   0.294 -0.1113 -0.0228 -0.0714
 6682W        W20096  16.120  16.728  12.261 -0.0270 -0.0646 -0.4166
 6683W        W20097  17.883   7.491   1.291  0.2043 -0.1100  0.2481
 6684W        W20098   8.291  15.479   0.801 -0.1354 -0.2775  0.0570
 6685W        W20099   3.518   3.457   2.525  0.0616  0.1202 -0.1222
 6686W        W20100  10.000  11.796   2.372 -0.0837 -0.0062 -0.0590
 6687W        W20101   7.518   8.936   1.023 -0.0128 -0.3376  0.1153
 6688W        W20102  13.168   7.458  16.130 -0.0996 -0.0151  0.0088
 6689W        W20103  13.848   2.780  13.233  0.1394 -0.1790  0.1398
 6690W        W20104   0.504   8.830  16.686  0.0373  0.0576 -0.2153
 6691W        W20105   9.955   6.476   2.401 -0.1702  0.0177  0.0341
 6692W        W20106   6.794  14.339   0.174 -0.2273  0.4480 -0.0139
 6693W        W20107   5.559   5.107  16.226 -0.1539  0.0858 -0.4598
 6694W        W20108   2.906  10.841  13.567  0.4051 -0.2620  0.0504
 6695W        W20109  16.063  11.276   2.342  0.1378 -0.0653  0.1689
 6696W        W20110  16.857  12.197   4.031 -0.3258  0.0051  0.1461
 6697W        W20111   4.992  15.211  15.343 -0.0187  0.0049  0.1061
 6698W        W20112   6.857   8.486  12.112 -0.3404 -0.1433  0.1798
 6699W        W20113   7.427  14.450   3.768  0.0361  0.0541 -0.0332
 6700W        W20114  10.395  16.308  13.502  0.1434  0.1689  0.2443
 6701W        W20115   9.137  11.517   1.282 -0.2757 -0.0443  0.5239
 6702W        W20116   5.354   5.206   0.910 -0.3505 -0.1646 -0.4866
 6703W        W20117  17.352   3.786   3.025 -0.1411  0.1740  0.0205
 6704W        W20118   1.748   6.032  11.588 -0.0327 -0.3016 -0.2153
 6705W        W20119   3.927   7.290  13.059  0.3732  0.2953  0.0441
 6706W        W20120   2.944  14.661   0.591 -0.0014  0.1027 -0.2483
 6707W        W20121  16.600   5.811  14.707 -0.1423 -0.1405  0.0966
 6708W        W20122   5.199   5.166   0.442 -0.1381 -0.2371 -0.2998
 6709W        W20123   1.011  17.558   2.575 -0.0405 -0.0130  0.0736
 6710W        W20124   0.756  15.006   5.397 -0.0200  0.1002 -0.1545
 6711W        W20125   7.357   6.370   5.589 -0.0367 -0.2701 -0.1671
 6712W        W20126  14.061   7.146   5.133 -0.0760 -0.3423 -0.0436
 6713W        W20127   3.213   8.413  15.123  0.2490  0.2770 -0.1518
 6714W        W20128  14.503  13.902  12.511  0.0935  0.1634 -0.1004
 6715W        W20129   1.577   5.116  13.346 -0.0995  0.3114 -0.3910
 6716W        W20130  11.229  16.990  14.724 -0.0842 -0.0149  0.0416
 6717W        W20131   1.214  11.808   4.953  0.0162  0.4919 -0.2816
 6718W        W20132   6.755   4.008  15.350  0.0762  0.2137  0.2677
 6719W        W20133   1.633   7.312   2.919  0.3444 -0.0045 -0.0855
 6720W        W20134   3.540   7.844   0.037 -0.2324  0.3991  0.1615
 6721W        W20135   3.304  15.093   1.817  0.0549 -0.0478  0.3584
 6722W        W20136   6.892   6.182  12.033 -0.2068 -0.1339 -0.0756
 6723W        W20137  17.309   5.229  11.451  0.1478  0.2024  0.1707
 6724W        W20138  17.573   7.956   4.627  0.1496 -0.0260 -0.1871
 6725W        W20139  17.862  16.254   2.495 -0.0302  0.2304 -0.0501
 6726W        W20140  11.304  14.152  15.969 -0.1311 -0.0332  0.1231
 6727W        W20141   8.647  13.175   3.170 -0.0293  0.1721 -0.0059
 6728W        W20142   8.183  15.765   0.286  0.2893  0.2812 -0.1162
 6729W        W20143  12.948   7.887   3.723 -0.0673  0.0292  0.1811
 6730W        W20144  14.101   6.970  11.881 -0.0514 -0.2482  0.0378
 6731W        W20145   9.556  11.966   2.473 -0.1142  0.0635  0.0855
 6732W        W20146   4.757  13.983   3.171 -0.2234 -0.0765 -0.1731
 6733W        W20147   4.407   9.331   4.152 -0.3077  0.0476 -0.0759
 6734W        W20148  11.464   8.190  16.703 -0.1033 -0.0408 -0.1214
 6735W        W20149   9.077  14.555   3.761 -0.0233 -0.1725  0.0601
 6736W        W20150   0.664   5.232  13.401 -0.0399  0.2541  0.0833
 6737W        W20151  17.171  16.202   4.165  0.0469 -0.0469 -0.1476
 6738W        W20152   3.247  12.994  11.052 -0.0178 -0.0088  0.1473
 6739W        W20153  15.838  14.249   4.204 -0.1473 -0.2202 -0.2260
 6740W        W20154  14.001   5.203  16.781 -0.1668  0.1997 -0.2049
 6741W        W20155  14.629   2.887   3.003  0.1689  0.1169  0.0568
 6742W        W20156  17.055   5.808   4.450 -0.0504 -0.4608  0.0990
 6743W        W20157  14.504   3.739  11.454 -0.0913 -0.2140  0.1183
 6744W        W20158  17.294  17.385  12.992  0.0787  0.0437  0.0458
 6745W        W20159  12.373   7.229   1.635 -0.2263  0.0612 -0.0070
 6746W        W20160  13.130   5.166   6.682  0.5793 -0.0970 -0.2590
 6747W        W20161  10.087   5.682  10.615 -0.0114  0.1573 -0.0653
 6748W        W20162  10.002  14.682  13.212  0.3792  0.1915 -0.1362
 6749W        W20163  16.886  10.379   0.829  0.4334  0.2804 -0.0416
 6750W        W20164   6.548   0.874  11.890 -0.0223 -0.0481  0.1302
 6751W        W20165  12.259  17.225   3.415  0.0520 -0.2898 -0.1599
 6752W        W20166   1.507   4.758   4.923 -0.0369  0.0953 -0.1559
 6753W        W20167   5.843  12.837  13.199 -0.0393 -0.1536 -0.4024
 6754W        W20168   0.446   4.068   0.550  0.1024  0.2247 -0.1048
 6755W        W20169   0.882  11.557   2.904 -0.2205  0.0530 -0.1670
 6756W        W20170  10.862   4.997  13.835  0.0519 -0.2960  0.0309
 6757W        W20171  14.340   2.727   3.966 -0.2980  0.1764 -0.0245
 6758W        W20172   0.359   6.320   4.114  0.2139  0.0754  0.1869
 6759W        W20173  15.188   3.239  10.703 -0.0346 -0.1560 -0.0769
 6760W        W20174  17.969  16.452   4.058 -0.0428  0.0093  0.0188
 6761W        W20175   3.510   9.419   6.259  0.0256  0.0466  0.1045
 6762W        W20176  17.128   8.088   0.242  0.1543 -0.2096  0.1708
 6763W        W20177  10.290   5.530  12.483 -0.0243 -0.0820  0.2318
 6764W        W20178   1.330  13.978   0.769 -0.0335  0.2235 -0.1235
 6765W        W20179   6.503  13.324  12.513 -0.1781  0.0027 -0.0758
 6766W        W20180   3.247   3.794  12.251 -0.0985 -0.2430 -0.2343
 6767W        W20181  12.797  13.713   1.366 -0.1837 -0.0361 -0.1902
 6768W        W20182   8.185   8.166  11.737  0.0634  0.1260 -0.1660
 6769W        W20183  11.119   4.741  15.947  0.0383  0.0403 -0.0512
 6770W        W20184   1.657  16.108   0.186 -0.1768  0.0722  0.1603
 6771W        W20185   6.647  10.883   4.558  0.1571  0.0308  0.2164
 6772W        W20186  17.736  12.724  12.456 -0.2206 -0.0850  0.1321
 6773W        W20187  11.676   3.355  13.709  0.0759  0.4472 -0.0085
 6774W        W20188   7.889   4.441  11.055 -0.1384  0.0009  0.0668
 6775W        W20189   7.548  10.338   0.053 -0.0806 -0.0326 -0.0116
 6776W        W20190  12.551  10.939   1.519 -0.0313  0.2220  0.1441
 6777W        W20191   7.017   6.541  12.902 -0.2885 -0.0021 -0.0393
 6778W        W20192   9.910   4.600  10.596  0.1212  0.0985 -0.2577
 6779W        W20193  17.359  11.552  11.138  0.2265  0.3556  0.1896
 6780W        W20194  17.039   4.666   5.582  0.0017  0.0952  0.3521
 6781W        W20195   5.033  14.538  12.867  0.1276  0.3319 -0.0167
 6782W        W20196  11.950  13.746   2.460 -0.0050 -0.1748  0.2588
 6783W        W20197   1.622   1.950   2.778 -0.0472  0.1934 -0.1538
 6784W        W20198   6.306   3.539   4.008  0.3441  0.0340 -0.0832
 6785W        W20199   1.354  15.311  14.488 -0.2280  0.0621 -0.0238
 6786W        W20200  16.815   2.081   5.405  0.0638  0.1742 -0.0830
 6787W        W20201   5.930  13.315  15.681 -0.1222 -0.4213 -0.0923
 6788W        W20202  17.462  14.045   5.207 -0.1147  0.3585 -0.2038
 6789W        W20203   8.911   6.324   6.241  0.0473 -0.1077  0.0531
 6790W        W20204   7.260   1.895  16.062  0.0943  0.0289 -0.1541
 6791W        W20205   8.682   3.192   9.966  0.1241 -0.1876 -0.2675
 6792W        W20206  10.494   7.620   3.520 -0.2656 -0.0663  0.0295
 6793W        W20207   0.685  13.917   5.046 -0.0133  0.0412  0.3897
 6794W        W20208  10.150   9.377   3.631 -0.4073  0.1459 -0.0107
 6795W        W20209   1.344   1.219   2.189  0.1062 -0.1546  0.2650
 6796W        W20210   6.528  12.181  14.131  0.0124  0.0699 -0.1576
 6797W        W20211   2.771   9.311   5.089 -0.0871  0.2683 -0.2674
 6798W        W20212  13.539  13.290  10.916 -0.0338 -0.0161  0.1127
 6799W        W20213   7.442   3.891  14.388  0.0016 -0.2526 -0.2387
 6800W        W20214   4.257  10.847   4.664 -0.0256  0.0327 -0.2838
 6801W        W20215  16.612   8.828   2.856 -0.1407 -0.0416  0.0049
 6802W        W20216   1.282   6.894   2.361 -0.4282 -0.1070  0.1743
 6803W        W20217   0.520  17.921   4.455  0.5801 -0.0339 -0.1485
 6804W        W20218  13.503   8.942   6.177 -0.0647 -0.1094 -0.0501
 6805W        W20219  17.880   8.847   5.185  0.0543 -0.0762  0.1396
 6806W        W20220  15.853  17.499  14.432  0.1691  0.2380  0.0247
 6807W        W20221   5.041   3.298  15.408 -0.2810  0.0784 -0.0695
 6808W        W20222   7.603  13.832   3.136 -0.2095 -0.1335 -0.1432
 6809W        W20223   3.091   7.216  14.967  0.3482 -0.0897  0.2383
 6810W        W20224  17.020   7.275   2.499  0.1048 -0.0380  0.1323
 6811W        W20225  15.305   5.303  12.794  0.0771  0.0136 -0.0775
 6812W        W20226   0.007   5.985   2.995  0.0791  0.1835 -0.3367
 6813W        W20227   9.252   5.994  11.440 -0.1121  0.1491  0.0137
 6814W        W20228   5.759   4.697   4.732  0.0954  0.0145 -0.1309
 6815W        W20229   1.089   2.225  13.103 -0.1726 -0.0639 -0.0567
 6816W        W20230  11.814   1.761   0.662 -0.2369 -0.2159  0.2119
 6817W        W20231   5.914   7.084   2.592 -0.1608  0.0000  0.4279
 6818W        W20232  14.730   9.332   2.294 -0.1286 -0.0955  0.0204
 6819W        W20233  17.278   8.879  13.537  0.0116  0.1255  0.0110
 6820W        W20234  12.049   5.611  11.183 -0.2042 -0.2201 -0.1814
 6821W        W20235   8.764   3.867   3.736  0.0639 -0.1637 -0.1828
 6822W        W20236   6.090   7.028  16.180 -0.0454 -0.1926  0.0891
 6823W        W20237  14.724   8.035  16.271  0.0887 -0.0137 -0.0652
 6824W        W20238  12.030  12.068  11.702 -0.0524 -0.2420 -0.3861
 6825W        W20239   5.012   1.388  14.272 -0.2966 -0.0752 -0.0605
 6826W        W20240  10.728  13.755  11.393 -0.1708  0.3373  0.0089
 6827W        W20241   1.454  13.784  12.353  0.1209  0.0348 -0.2109
 6828W        W20242  14.380   2.490  12.452  0.1703  0.0585 -0.0968
 6829W        W20243   5.791   7.733   4.434 -0.0746  0.0616 -0.1922
 6830W        W20244   6.326  16.559   4.247  0.0311  0.1750 -0.2936
 6831W        W20245  12.644  16.288   5.198 -0.2672  0.0445 -0.1444
 6832W        W20246   9.711  17.263  12.155 -0.3563 -0.0187  0.1053
 6833W        W20247   3.881  11.840   1.491  0.1937  0.0978 -0.0193
 6834W        W20248  11.861  10.573  11.290  0.0041  0.2028  0.0818
 6835W        W20249   1.106  10.775  12.473  0.0468  0.2028 -0.1371
 6836W        W20250  16.919  13.282   5.949 -0.0399  0.0053  0.1929
 6837W        W20251  13.379  15.465   6.319 -0.0614 -0.0397 -0.0646
 6838W        W20252  10.355  14.743   0.911  0.0784 -0.1866  0.0295
 6839W        W20253   7.336  13.839  12.004 -0.0730  0.2550  0.2303
 6840W        W20254   6.409  13.148  16.548 -0.0522 -0.0276 -0.2500
 6841W        W20255   0.176   3.164  16.370  0.0852 -0.0117 -0.0792
 6842W        W20256  13.445  15.092  14.719 -0.1429  0.2049 -0.0998
 6843W        W20257   6.823   7.019  16.705  0.1051  0.0638 -0.2343
 6844W        W20258  17.920  15.797  14.999 -0.1446 -0.0218  0.1192
 6845W        W20259   1.351  10.482   5.380  0.1135 -0.0527 -0.0238
 6846W        W20260  16.069  17.534  15.675  0.0700  0.0100  0.1513
 6847W        W20261   1.010  10.477  11.562 -0.1176 -0.0478 -0.2476
 6848W        W20262  17.129   8.922   5.827  0.0515  0.1142  0.3674
 6849W        W20263  11.213   9.014  15.036  0.0017  0.0719  0.2103
 6850W        W20264   6.538  11.328  14.341  0.2954  0.1411  0.0093
 6851W        W20265  10.608   9.069  16.207  0.0353  0.2827 -0.0145
 6852W        W20266   0.738  14.913  10.679 -0.0577  0.2625  0.1411
 6853W        W20267   6.805   7.406   5.189  0.2730  0.1440 -0.4368
 6854W        W20268   9.174   5.735  15.488  0.2939  0.3528  0.0184
 6855W        W20269   0.177  11.261   1.834  0.0562  0.0329  0.2283
 6856W        W20270   4.600   6.944  12.352  0.0570  0.0571  0.1039
 6857W        W20271  10.639  17.567  16.176  0.1099  0.0413 -0.2300
 6858W        W20272  12.054  16.073   3.979 -0.0724  0.1002  0.1809
 6859W        W20273  11.300   7.840   4.004  0.1818 -0.6866 -0.0004
 6860W        W20274   1.027   8.817  13.231  0.0336 -0.0112 -0.2534
 6861W        W20275   8.135  15.390  13.360 -0.3136 -0.0552 -0.3924
 6862W        W20276  13.294   0.801  15.101  0.2807 -0.1026 -0.2146
 6863W        W20277   3.403   2.051   5.182 -0.1062 -0.2564 -0.1237
 6864W        W20278  11.655  16.746   2.196  0.2314  0.1061  0.1310
 6865W        W20279  15.898  17.524   5.988  0.0062  0.1111 -0.0833
 6866W        W20280   2.538   9.676   0.604  0.0491 -0.0044  0.1748
 6867W        W20281   3.781   6.799   2.080  0.3126 -0.0433  0.0105
 6868W        W20282  13.800   4.553  15.642  0.2701  0.0690  0.0498
 6869W        W20283   9.529  11.807   6.132  0.1772  0.0557  0.1504
 6870W        W20284   1.376  14.748  12.469 -0.0154 -0.2327  0.1045
 6871W        W20285   0.101  14.625   5.904 -0.2734  0.2718  0.1381
 6872W        W20286  13.739  10.088   0.620  0.0547  0.0061 -0.3128
 6873W        W20287  15.525   7.881   4.690 -0.0760 -0.2228  0.3140
 6874W        W20288  12.009  17.048   5.206 -0.2109 -0.3095 -0.1685
 6875W        W20289  11.214   8.797   0.358 -0.2174 -0.0818  0.0409
 6876W        W20290   9.249   1.700   5.374 -0.0355  0.1113  0.0943
 6877W        W20291  15.081   2.852   3.235  0.2446  0.0081 -0.0325
 6878W        W20292  11.552   8.984  14.265  0.1145  0.0734  0.1049
 6879W        W20293  16.410   9.073   4.053  0.0259  0.0303  0.2774
 6880W        W20294   5.402  16.265   2.021  0.0205 -0.2516 -0.2218
 6881W        W20295  16.852   9.956   6.016  0.2477  0.2275  0.0603
 6882W        W20296   8.966  15.362  13.148 -0.0566  0.0468  0.0537
 6883W        W20297   7.376  17.755  13.928  0.0718 -0.0269  0.0116
 6884W        W20298   5.427   4.748   0.372 -0.0444 -0.3032  0.1944
 6885W        W20299  16.515   1.456   2.529  0.1805  0.0999  0.1829
 6886W        W20300  10.465  14.398  12.977 -0.3295 -0.1570  0.2264
 6887W        W20301  17.064  15.003   0.780  0.0120  0.1371 -0.0640
 6888W        W20302   6.879  12.415   4.377 -0.0023  0.1588  0.0078
 6889W        W20303   9.673   7.979  15.449  0.2389  0.1528  0.1393
 6890W        W20304   9.991   4.201  16.602  0.1649 -0.1434 -0.1227
 6891W        W20305   2.810   2.109  12.326  0.1142 -0.2949 -0.0949
 6892W        W20306   0.040   4.323   4.839  0.4326 -0.4255 -0.0097
 6893W        W20307  16.564  17.365   2.961  0.1833  0.1037  0.0671
 6894W        W20308  15.794   1.596  11.581  0.1906 -0.1216  0.1058
 6895W        W20309   0.033   0.001  11.457  0.0504  0.0921 -0.2386
 6896W        W20310   0.315   3.613  14.987  0.0798  0.0555 -0.1003
 6897W        W20311  15.564  11.140  13.345 -0.2337  0.2003 -0.3354
 6898W        W20312  17.795  10.792  15.146  0.3420 -0.2092  0.2854
 6899W        W20313   9.694   5.041  12.012 -0.1137 -0.1655  0.1873
 6900W        W20314   5.207   8.488   2.873 -0.2410  0.1156 -0.1142
 6901W        W20315   0.368  16.571   0.106 -0.3737 -0.0041  0.1443
 6902W        W20316   1.092   5.615   4.863 -0.1870  0.1577  0.1831
 6903W        W20317   5.981   3.078   0.037 -0.1383  0.2820  0.0954
 6904W        W20318  17.491   2.782   2.756 -0.2746 -0.1134  0.1208
 6905W        W20319  15.793   5.551   1.194  0.0970  0.0094 -0.2471
 6906W        W20320   1.939  13.581  12.983  0.2408  0.0478 -0.0639
 6907W        W20321  15.817   0.028   0.708 -0.0649  0.2218 -0.1118
 6908W        W20322   5.254  12.544   4.989  0.1961  0.1819 -0.0484
 6909W        W20323  17.529   4.986   2.141 -0.1747  0.0167 -0.0405
 6910W        W20324   3.829  12.674  16.296  0.1902  0.0503  0.1773
 6911W        W20325  17.356   6.259  14.497 -0.0751  0.2218 -0.1410
 6912W        W20326   7.258   1.720  10.710 -0.3315  0.3339 -0.1022
 6913W        W20327   2.493  15.899   1.522 -0.2051  0.0855  0.1404
 6914W        W20328   0.377  11.278  10.955 -0.0994 -0.0522  0.0879
 6915W        W20329  17.165   7.844   3.737  0.0124 -0.0701 -0.2567
 6916W        W20330   0.476  13.783  12.689 -0.1289 -0.1069 -0.0318
 6917W        W20331  13.401  13.982  13.355  0.0065 -0.2324  0.0267
 6918W        W20332   0.263   4.158  15.740  0.2357 -0.0599  0.3863
 6919W        W20333   9.222  11.547  11.823  0.1057  0.0352 -0.3529
 6920W        W20334  10.815  16.452  12.772  0.0868  0.0980  0.1286
 6921W        W20335  11.951   2.270   5.049  0.1652 -0.0506 -0.1431
 6922W        W20336   8.885   6.526   1.766  0.0433 -0.0635 -0.0227
 6923W        W20337   8.955   2.527  15.323  0.0389  0.1468 -0.1357
 6924W        W20338   4.915   2.679   1.680  0.4240 -0.1421  0.2025
 6925W        W20339   7.549   4.552   0.389  0.0241 -0.3315  0.0975
 6926W        W20340  17.551   6.281   4.318  0.0018  0.1078  0.0509
 6927W        W20341  12.823   1.980   5.164  0.0041 -0.0337 -0.2499
 6928W        W20342   8.418  14.957  14.926  0.1612  0.0174 -0.0328
 6929W        W20343  11.106   1.667  11.317 -0.0953 -0.2475 -0.2614
 6930W        W20344   0.247  14.769   4.113  0.2544  0.2491 -0.0595
 6931W        W20345   9.136   7.755   5.174 -0.0390 -0.0846 -0.0704
 6932W        W20346  11.279   2.346   3.579 -0.0387  0.1970 -0.0540
 6933W        W20347   7.413   0.678   4.512 -0.1104  0.1981 -0.0211
 6934W        W20348  14.781  11.164   2.137  0.0714 -0.2739  0.2018
 6935W        W20349   0.352   2.932  12.253  0.1363 -0.0284 -0.3476
 6936W        W20350   1.645  16.500   2.301 -0.0256 -0.0392 -0.3076
 6937W        W20351   8.530   9.926  13.158  0.1274 -0.1668 -0.0631
 6938W        W20352   6.293   0.086  14.474  0.1625  0.1722 -0.2830
 6939W        W20353   7.367  13.842   6.130  0.1844 -0.2530 -0.1942
 6940W        W20354  12.527   9.973   5.249  0.1536  0.0336 -0.0239
 6941W        W20355  14.147   0.563  11.544  0.0277 -0.2652 -0.0271
 6942W        W20356   6.418  12.041   1.524 -0.1732  0.1467  0.2484
 6943W        W20357   4.620   1.499  10.997 -0.2667 -0.0902 -0.2631
 6944W        W20358  17.667   9.236   4.851 -0.2593 -0.4240  0.0593
 6945W        W20359   4.124  17.980   1.950  0.0227  0.1457 -0.2946
 6946W        W20360   5.866   2.092  11.142 -0.1354  0.0809 -0.1462
 6947W        W20361  17.875  14.035  15.366  0.0622  0.1149  0.1908
 6948W        W20362   6.255   4.804  15.366  0.1433  0.2017 -0.1795
 6949W        W20363  13.937   9.511  13.023 -0.0300 -0.0537 -0.1078
 6950W        W20364  11.333  11.639   1.792 -0.2240  0.0746  0.2629
 6951W        W20365  17.594  10.468  16.148  0.1157  0.0942  0.0604
 6952W        W20366   7.501   9.823   6.291 -0.1831 -0.0076  0.0546
 6953W        W20367  10.501   6.512   5.391 -0.0964  0.0395  0.4403
 6954W        W20368  12.160  17.870   5.427  0.2545  0.1444  0.1907
 6955W        W20369   8.782   4.777  16.150 -0.0325  0.0319 -0.0495
 6956W        W20370   8.899  13.938   0.146 -0.0723 -0.2743 -0.0884
 6957W        W20371  13.061   3.960   4.191 -0.1606 -0.1028 -0.0161
 6958W        W20372  12.471   0.291  14.912  0.1901  0.3033 -0.1183
 6959W        W20373   0.123   7.321  10.063 -0.4174 -0.0254 -0.0808
 6960W        W20374   2.165   5.035   1.527 -0.1970  0.1362 -0.3024
 6961W        W20375  16.213   0.094  15.185 -0.1470  0.1541  0.1735
 6962W        W20376  11.310  16.784   5.697 -0.0624  0.1537  0.1158
 6963W        W20377   3.557   9.116   3.562  0.2119  0.1739  0.2509
 6964W        W20378  13.735   8.188   1.374 -0.0046  0.0333  0.1721
 6965W        W20379  15.495  12.551  12.386  0.1841 -0.0033  0.1311
 6966W        W20380   5.607   1.498  13.138  0.1118 -0.4802 -0.0635
 6967W        W20381  15.663   7.022   0.726 -0.0625  0.1563 -0.0204
 6968W        W20382   9.044  13.221   5.026 -0.1994 -0.5024 -0.0736
 6969W        W20383  16.794  11.395  13.630  0.0591 -0.1258  0.0878
 6970W        W20384  12.910   7.766  13.852 -0.1690 -0.0155  0.0670
 6971W        W20385  11.228  13.282  15.928  0.1660  0.4250 -0.1707
 6972W        W20386  17.801  14.328   1.588  0.1186 -0.1784  0.0488
 6973W        W20387  13.859  15.327   3.930  0.0387  0.1248  0.1086
 6974W        W20388  10.617  17.755   4.770 -0.2800  0.0677 -0.0776
 6975W        W20389  10.369   8.599  14.870 -0.2573 -0.1658  0.1297
 6976W        W20390  12.646  17.697  16.211  0.2449  0.2174 -0.0734
 6977W        W20391  11.746   7.843  15.238  0.0798  0.2360 -0.2080
 6978W        W20392   0.179   4.420  16.155 -0.3659  0.0960  0.2151
 6979W        W20393   3.166   1.930   0.146  0.2788 -0.1829 -0.0390
 6980W        W20394  11.574  13.553   2.200 -0.2486  0.1030  0.0001
 6981W        W20395  12.223  12.050  12.197 -0.0745  0.1185  0.1974
 6982W        W20396   3.492  10.200   4.246 -0.1881 -0.3489  0.0935
 6983W        W20397   3.604  12.805   2.174  0.0375  0.0635 -0.1493
 6984W        W20398  11.998  17.537   3.684 -0.2072  0.2136  0.0582
 6985W        W20399  12.991  15.139  10.705  0.0635 -0.0311  0.0188
 6986W        W20400  16.643   3.211  11.654  0.0575 -0.0117  0.3031
 6987W        W20401  15.916  11.880  14.534  0.3073 -0.1101  0.0422
 6988W        W20402   4.946   1.217  10.718  0.0770  0.1217 -0.0588
 6989W        W20403  14.696   2.990   0.929  0.1710  0.3532 -0.0288
 6990W        W20404   9.178  11.972   1.314  0.2295 -0.0601  0.3414
 6991W        W20405  16.135  14.291   3.351  0.1503 -0.0036  0.1645
 6992W        W20406   0.968   3.949   2.625  0.0402  0.1041  0.3151
 6993W        W20407   7.203   7.077   1.364 -0.0460  0.0966 -0.2078
 6994W        W20408   7.919   1.959   3.803 -0.3680 -0.0972 -0.0042
 6995W        W20409  15.030  16.080   1.348  0.1297 -0.1144 -0.2343
 6996W        W20410   9.258  11.666   1.751  0.0925  0.0293 -0.0149
 6997W        W20411   9.116  15.617  16.613  0.1403 -0.1253  0.1258
 6998W        W20412   4.697  14.610   4.130 -0.0688 -0.0380 -0.2389
 6999W        W20413  12.938  13.704   3.456 -0.2097 -0.0472  0.2501
 7000W        W20414   5.458   5.582  12.757  0.2417  0.0099  0.2309
 7001W        W20415   7.782   6.729   5.743 -0.3535  0.2946 -0.1990
 7002W        W20416  12.027   8.465   0.464 -0.1595 -0.0676  0.0755
 7003W        W20417   3.103   1.090  14.387 -0.0090 -0.1427  0.1836
 7004W        W20418  15.299   8.969  14.206 -0.0277 -0.1742  0.2557
 7005W        W20419  16.684  14.611   5.799 -0.2995  0.0446 -0.0203
 7006W        W20420   7.307  13.183   3.984  0.1282 -0.0895 -0.0397
 7007W        W20421  15.897   5.302   5.080 -0.0751 -0.3651 -0.0768
 7008W        W20422  17.105   7.439   2.979  0.2780  0.1195  0.1313
 7009W        W20423   3.499   5.052   1.134  0.2921  0.3636  0.0696
 7010W        W20424   9.677   6.373   5.844 -0.1047  0.1405  0.2616
 7011W        W20425   0.814   7.504  12.252 -0.1394 -0.1074  0.0236
 7012W        W20426  11.808  15.925   3.191  0.1314  0.0115 -0.1760
 7013W        W20427  11.232   1.212   2.638  0.1277 -0.2516 -0.3543
 7014W        W20428   9.939  11.080  13.729 -0.0081  0.1226  0.1365
 7015W        W20429   8.853   2.420  12.159 -0.2450  0.1436  0.0244
 7016W        W20430  15.437   7.610  16.277  0.1868 -0.2534  0.3912
 7017W        W20431   6.451  17.597   1.947 -0.0789  0.2234 -0.1525
 7018W        W20432  17.894   6.810  15.916 -0.1299 -0.0283 -0.1648
 7019W        W20433  11.444   0.758   3.710 -0.1222  0.1678  0.0411
 7020W        W20434   8.958   6.713  14.968 -0.0820  0.1424 -0.0680
 7021W        W20435  13.563   1.335   2.497 -0.0196  0.2352  0.1165
 7022W        W20436  17.002   8.891   5.378 -0.1892  0.0523 -0.1903
 7023W        W20437   9.029  17.992   0.226 -0.0379 -0.1265  0.0374
 7024W        W20438   8.564  12.658   0.205 -0.0087 -0.1024  0.1994
 7025W        W20439  15.590   7.973   3.003  0.2064  0.1342  0.0375
 7026W        W20440  12.125   4.362   2.937 -0.0282  0.0491 -0.0971
 7027W        W20441   3.616   9.250  15.479 -0.5205 -0.2720  0.0584
 7028W        W20442  17.585   9.274   0.852  0.0846 -0.0715  0.2541
 7029W        W20443   7.566   0.479   3.062 -0.2042 -0.2411 -0.0930
 7030W        W20444   3.814   9.685   2.331 -0.0341  0.1367 -0.0239
 7031W        W20445   1.160   8.998   4.820 -0.2298 -0.2098  0.1887
 7032W        W20446   5.237  17.275  11.303  0.2397  0.0418  0.0054
 7033W        W20447   0.722   4.928   2.678 -0.0128 -0.0949  0.0519
 7034W        W20448   6.556   9.630  13.889 -0.0182 -0.0290  0.0294
 7035W        W20449   5.289   5.304  13.734  0.0140 -0.1113  0.1396
 7036W        W20450   8.992   0.942   0.136 -0.0774 -0.1796  0.2071
 7037W        W20451   1.666   0.062  13.188 -0.0267  0.1705  0.1313
 7038W        W20452   2.533   5.180  11.259  0.3613 -0.0558 -0.0113
 7039W        W20453  17.956  14.404  15.700  0.1612 -0.0279 -0.2830
 7040W        W20454  10.825   2.011   0.982 -0.2072  0.1529 -0.2031
 7041W        W20455   6.026   3.950   5.031  0.0503 -0.3476 -0.0171
 7042W        W20456   5.574  12.017   5.017 -0.1308  0.3378 -0.2335
 7043W        W20457  12.739   6.853  15.985  0.0818 -0.1549 -0.4325
 7044W        W20458   8.976   7.543  10.486 -0.0996  0.0581 -0.0842
 7045W        W20459  14.043   0.300   2.432  0.2913 -0.3334  0.0805
 7046W        W20460  16.486   9.524  15.516 -0.4642  0.2978  0.0520
 7047W        W20461  10.267   9.325  15.567 -0.1805  0.1946  0.0222
 7048W        W20462  11.436   7.048   4.328  0.2289  0.1863 -0.1070
 7049W        W20463  16.038   2.044  14.888 -0.1132 -0.2321  0.1949
 7050W        W20464   6.394  14.069   0.156 -0.0443 -0.2041  0.1282
 7051W        W20465   5.187   2.304  15.323 -0.0216  0.2258 -0.1883
 7052W        W20466  17.314  13.595  15.084  0.1266 -0.0514  0.0507
 7053W        W20467   1.172  13.288  14.995 -0.0380  0.2091  0.0022
 7054W        W20468  10.555  10.823   3.343 -0.2114  0.0827 -0.0888
 7055W        W20469   4.152   1.717  10.742 -0.0379  0.1516  0.1558
 7056W        W20470   6.791  11.124   2.083 -0.2292 -0.1717  0.0263
 7057W        W20471   5.025  14.019   4.995 -0.1276  0.1093  0.0288
 7058W        W20472   4.076  16.528  11.541 -0.2468 -0.1250 -0.0971
 7059W        W20473   6.523   4.364  16.224 -0.0631 -0.3851  0.0593
 7060W        W20474  16.776  13.763  12.185  0.3540  0.1299  0.0309
 7061W        W20475   2.001   9.498  15.270  0.0913  0.1091  0.1612
 7062W        W20476   6.566   3.845   2.612 -0.1353 -0.1687  0.1128
 7063W        W20477   7.974   1.729  13.757  0.1356  0.0355  0.0359
 7064W        W20478  10.669  11.488   1.553  0.3539  0.0042  0.1630
 7065W        W20479   8.094  17.885   0.857 -0.2944  0.0746  0.0421
 7066W        W20480  12.606  16.647  13.474 -0.2072 -0.5200 -0.1472
 7067W        W20481  10.038  12.738   0.477 -0.1588  0.2596  0.1839
 7068W        W20482  12.566  15.944   1.095  0.2624 -0.1313  0.0775
 7069W        W20483   9.394   5.965   3.551 -0.2020  0.3683  0.1558
 7070W        W20484  14.775   2.139  15.463 -0.0116 -0.0382 -0.1412
 7071W        W20485   9.780  11.103   3.472  0.3183 -0.1840 -0.1777
 7072W        W20486  16.985  14.270  15.917  0.0136 -0.0304  0.4109
 7073W        W20487  14.267   3.862  14.706  0.0249  0.1372  0.3950
 7074W        W20488   3.981   3.949   6.089 -0.3492 -0.1786  0.0552
 7075W        W20489   3.539  16.054  10.884 -0.0077 -0.1500 -0.1725
 7076W        W20490  14.456  12.743   0.028  0.2799 -0.2630  0.1064
 7077W        W20491  12.112  10.047  11.759  0.1144  0.3231 -0.1602
 7078W        W20492  15.881  15.596  13.481 -0.0052  0.3886  0.1819
 7079W        W20493  17.752   0.012  10.739  0.1861  0.0806 -0.3653
 7080W        W20494   8.646  13.508   0.036  0.2680  0.1444  0.1897
 7081W        W20495   4.995  16.601  12.564 -0.3019 -0.0158 -0.0503
 7082W        W20496  15.381   8.639   0.187 -0.2016 -0.1442 -0.2305
 7083W        W20497   3.101   3.306   4.038  0.3723 -0.1002  0.1064
 7084W        W20498   6.368  14.685  13.113  0.0822  0.0518  0.1293
 7085W        W20499  13.051   5.849   2.614  0.0798 -0.0325  0.1721
 7086W        W20500  13.374   0.133   1.653 -0.2302 -0.1731  0.1120
 7087W        W20501  11.288  14.789  14.319  0.0581 -0.0566 -0.0052
 7088W        W20502  15.116  11.820  12.937  0.1061 -0.0058  0.2488
 7089W        W20503  16.703  13.790   0.871  0.1898 -0.1289  0.3633
 7090W        W20504   1.207   9.483  14.591  0.0116  0.1595 -0.0111
 7091W        W20505  10.095  16.215   2.210  0.1295 -0.3353  0.1600
 7092W        W20506  14.254  15.053   1.638  0.1684 -0.3353 -0.1172
 7093W        W20507  12.413   6.773  11.223  0.2689 -0.1270 -0.1733
 7094W        W20508  13.018   4.106   3.660  0.1733 -0.2288 -0.0743
 7095W        W20509   0.564  15.296  12.492 -0.0907  0.0873 -0.0481
 7096W        W20510  16.942  17.178   3.338 -0.1181 -0.1098  0.0368
 7097W        W20511  10.893  16.786   3.228  0.2375 -0.0472 -0.1772
 7098W        W20512   4.333   0.124  15.523 -0.0233 -0.1742 -0.1821
 7099W        W20513   8.505   7.080  14.061 -0.0730  0.0261 -0.0562
 7100W        W20514   4.583  13.457   9.739  0.0199 -0.1136 -0.1083
 7101W        W20515  15.114   9.286   3.426  0.0371  0.1066  0.0026
 7102W        W20516  17.738  15.197  11.650 -0.0233 -0.1496  0.1238
 7103W        W20517  16.526  10.428  11.256  0.0596  0.0832 -0.0563
 7104W        W20518   9.177   4.303   4.578  0.2085  0.1628 -0.1409
 7105W        W20519   5.800   6.328  16.638  0.1631  0.2923 -0.0539
 7106W        W20520   0.299  13.436  11.748  0.0673  0.2142  0.1416
 7107W        W20521   8.895  11.551  12.843  0.1472  0.2688  0.0809
 7108W        W20522  15.549  16.662  11.251  0.1185 -0.1681 -0.0478
 7109W        W20523   2.589  10.411   3.634 -0.1529 -0.1821  0.0112
 7110W        W20524   8.203   3.615   2.802 -0.1443 -0.3114 -0.1679
 7111W        W20525   5.776   7.700   1.780  0.3606 -0.2579  0.1309
 7112W        W20526   4.423  12.365   0.365 -0.0902  0.0619  0.1955
 7113W        W20527  13.057   8.369   3.666  0.0632 -0.1694 -0.0690
 7114W        W20528   8.639  13.776   2.747  0.2854 -0.0374  0.1018
 7115W        W20529   0.182  17.953  16.585  0.0678 -0.0505  0.1214
 7116W        W20530   3.325   8.491  14.277  0.1495  0.1144 -0.1276
 7117W        W20531   5.802   8.112   2.080 -0.0874 -0.0898 -0.0151
 7118W        W20532   1.597   9.691   2.680  0.1557  0.4109 -0.2748
 7119W        W20533   9.300   0.531   0.003 -0.3783  0.0832 -0.0788
 7120W        W20534   2.114  10.681  11.515  0.2815 -0.0868 -0.1368
 7121W        W20535   8.446   4.291   1.422 -0.0199  0.3987 -0.2366
 7122W        W20536  15.481  13.527   3.687 -0.0492  0.1075  0.1379
 7123W        W20537   5.354   3.252  14.871 -0.0959 -0.0856 -0.3049
 7124W        W20538  13.342  12.797   4.539  0.0527  0.0164 -0.1160
 7125W        W20539  13.066  14.159   2.705  0.0345  0.2223  0.0430
 7126W        W20540   5.019  10.483   0.821  0.2994 -0.1434  0.0418
 7127W        W20541   3.174  10.332   2.824 -0.0157  0.0555 -0.0980
 7128W        W20542   9.863   4.920   0.667 -0.0776 -0.2530 -0.1542
 7129W        W20543   3.141  16.919  15.447 -0.2200  0.2286  0.2208
 7130W        W20544  10.561  13.243  13.601 -0.1070 -0.1722  0.1031
 7131W        W20545   3.737  10.640  15.621 -0.2067  0.0163  0.3543
 7132W        W20546   6.416   7.294  12.309 -0.0530 -0.2169 -0.0002
 7133W        W20547   9.163   9.292   6.292  0.2295  0.3463  0.2513
 7134W        W20548   4.996   2.703   2.323 -0.1695  0.0097 -0.0679
 7135W        W20549   7.564   4.473  12.163 -0.2498  0.0099  0.0445
 7136W        W20550  12.999  11.568  13.278 -0.1040  0.0198  0.0846
 7137W        W20551  10.027  15.590  15.126 -0.0476  0.0060 -0.2599
 7138W        W20552  16.161  16.044  11.743 -0.1550  0.1428 -0.1434
 7139W        W20553   1.422   4.131   0.130  0.1156 -0.1459  0.1061
 7140W        W20554   5.501   4.857   3.052 -0.1198 -0.1051  0.0267
 7141W        W20555  15.905  17.640   2.091  0.0967 -0.0923  0.2175
 7142W        W20556   1.926  16.682   2.754  0.1293 -0.0302  0.1598
 7143W        W20557  10.593   0.540  10.895  0.1946 -0.0516  0.1581
 7144W        W20558  13.886   0.649  11.993  0.1740  0.0752 -0.0409
 7145W        W20559  10.806   9.021  13.977 -0.2166 -0.1691  0.1934
 7146W        W20560  15.685  17.411  13.945  0.1970 -0.2242  0.2001
 7147W        W20561   2.090   0.192  11.838 -0.2447  0.2761 -0.1447
 7148W        W20562  15.878   6.393  11.351 -0.3315  0.0783 -0.1237
 7149W        W20563   8.437   1.153  10.381 -0.1753 -0.3105 -0.0399
 7150W        W20564   5.727   8.092   4.934 -0.3336  0.1561  0.0180
 7151W        W20565  12.680  11.665  13.686 -0.2397  0.1922  0.0918
 7152W        W20566  14.260  15.131  16.470  0.0182  0.1797 -0.0767
 7153W        W20567  10.398  16.071   5.598  0.0108  0.0059  0.1758
 7154W        W20568   5.946   1.881   4.589  0.1414  0.0036 -0.2132
 7155W        W20569  10.275   6.951   5.365 -0.2596 -0.0528  0.1377
 7156W        W20570  17.754  10.717   4.727 -0.0955  0.0282 -0.2716
 7157W        W20571   2.472   0.557  11.819  0.0263  0.0177 -0.0942
 7158W        W20572  10.221   4.480   1.634 -0.0829 -0.0134  0.0241
 7159W        W20573  10.622   0.814   3.887 -0.0349  0.1738 -0.1955
 7160W        W20574   4.334  14.839  14.128 -0.3316  0.2782  0.2005
 7161W        W20575   6.681   5.881  14.004  0.1871  0.4053  0.0629
 7162W        W20576   1.390  12.952  14.738 -0.1784  0.1993  0.1667
 7163W        W20577   4.501   8.079   3.679 -0.0831  0.0781  0.0060
 7164W        W20578  12.390   8.418  13.347  0.1464  0.1884 -0.2184
 7165W        W20579  17.086   1.255   4.199  0.0383  0.1837 -0.3466
 7166W        W20580  14.761   8.379   6.267  0.0617  0.0666 -0.1619
 7167W        W20581  15.000   6.492   5.876  0.2544 -0.0312  0.1722
 7168W        W20582  11.624   7.639   0.008 -0.1272 -0.0201  0.0154
 7169W        W20583  17.459   6.814  11.215 -0.3469  0.0374  0.0076
 7170W        W20584  16.221   2.064  14.067  0.0117 -0.1622  0.2445
 7171W        W20585  13.815  12.689  13.200  0.4057  0.1913  0.1584
 7172W        W20586   1.001   7.336  16.323 -0.0554  0.0097 -0.1158
 7173W        W20587   8.382   5.629   5.708  0.0049 -0.1901 -0.4249
 7174W        W20588   8.234   3.154  10.997 -0.0203  0.0810  0.0092
 7175W        W20589  13.789  15.028  12.602  0.1016 -0.0662  0.1645
 7176W        W20590   7.289   3.230  11.287  0.1141  0.1987 -0.0596
 7177W        W20591  14.832   3.999   5.300  0.0252  0.1199  0.0888
 7178W        W20592   6.843   8.094   3.481 -0.1045 -0.2706  0.2857
 7179W        W20593   7.484   8.981   4.273 -0.0948  0.1661 -0.1591
 7180W        W20594  16.364   2.452   2.224  0.0659  0.1599 -0.2652
 7181W        W20595   1.733   4.174  11.089 -0.0441 -0.0834 -0.2136
 7182W        W20596  16.886   3.460  15.814  0.3211  0.2390 -0.0337
 7183W        W20597  10.775   2.964  14.772  0.0274 -0.1372 -0.1706
 7184W        W20598   4.327   0.829   2.289 -0.0078 -0.2609  0.0904
 7185W        W20599  16.620   8.430  12.531  0.0300  0.0258 -0.1121
 7186W        W20600  14.312  11.122   4.804 -0.1119  0.0070 -0.1464
 7187W        W20601  11.650   4.127  12.627  0.0035 -0.0004 -0.0171
 7188W        W20602   8.390  16.216  16.111  0.1777 -0.0954  0.0256
 7189W        W20603   7.008   1.360  11.277  0.3193 -0.1803 -0.0792
 7190W        W20604  11.645  12.408  11.809  0.1014  0.0660  0.1521
 7191W        W20605  11.195  17.542   5.533  0.3494  0.0330  0.2593
 7192W        W20606   9.719  10.185  11.834  0.0214  0.1807 -0.1752
 7193W        W20607  13.725  11.095   6.300  0.1288 -0.1475  0.2499
 7194W        W20608  17.256  13.261  15.477 -0.1084  0.0689  0.2238
 7195W        W20609   3.858   3.485  12.947  0.2354  0.1539  0.1169
 7196W        W20610   9.571   1.773  12.141  0.1130 -0.2809  0.0242
 7197W        W20611  17.368  12.854   2.154  0.2553  0.0342 -0.3115
 7198W        W20612  16.937  15.905  15.337  0.0066  0.0430 -0.1314
 7199W        W20613   9.087   3.113  12.557 -0.1506  0.0270 -0.1801
 7200W        W20614  11.344   1.868   4.306 -0.1332 -0.1976 -0.0803
 7201W        W20615   5.507  14.488   2.386 -0.1952 -0.0680 -0.1642
 7202W        W20616   5.059  11.541   3.725 -0.0024 -0.0168  0.0228
 7203W        W20617  12.204  15.521  14.959 -0.4400 -0.0272  0.1145
 7204W        W20618   9.858   3.034   4.442 -0.2705 -0.1435 -0.3412
 7205W        W20619   1.943  17.731   1.111  0.2551  0.1118  0.2155
 7206W        W20620   1.941  11.820  10.453 -0.0615  0.0533  0.2135
 7207W        W20621   2.956   4.190  13.606  0.1680 -0.0195 -0.2952
 7208W        W20622  14.545   6.158  11.884  0.0849 -0.1943  0.0425
 7209W        W20623   1.249  10.980   5.570  0.2284 -0.0607  0.1477
 7210W        W20624   7.730   1.013  11.799 -0.2379  0.1102  0.2974
 7211W        W20625  15.626   7.248   3.603  0.0339  0.0325 -0.0707
 7212W        W20626   5.291  14.857  15.208 -0.0126  0.0333 -0.2088
 7213W        W20627   4.831  17.666  11.402  0.2644 -0.1492 -0.2391
 7214W        W20628   9.290  12.975  10.801  0.1423  0.1887  0.3937
 7215W        W20629  13.805   7.291   2.471  0.2116  0.2269 -0.0373
 7216W        W20630  10.016  14.009   0.082  0.0438  0.0360 -0.0919
 7217W        W20631  17.801   3.941  14.546  0.0462 -0.3509 -0.0540
 7218W        W20632   9.379  17.333   5.072  0.1761  0.2912  0.2018
 7219W        W20633  17.435   1.981   1.608  0.1691 -0.0359  0.0366
 7220W        W20634  13.193  15.300   4.531  0.0449  0.1025  0.0137
 7221W        W20635  14.728  10.003   4.281  0.0525  0.4868 -0.1690
 7222W        W20636  15.999  15.464   4.650  0.2970  0.2032 -0.2707
 7223W        W20637   4.946   6.722  15.603  0.1369  0.1035 -0.0582
 7224W        W20638   4.613  10.139   2.602 -0.2316  0.1267  0.1217
 7225W        W20639  10.425   8.281  12.708 -0.0994 -0.0330 -0.2516
 7226W        W20640   5.300  15.916  12.834  0.1580  0.0624  0.0650
 7227W        W20641  16.635   8.040  13.697  0.1050 -0.0705  0.2138
 7228W        W20642   1.476   6.016   0.583  0.0370  0.0771 -0.1822
 7229W        W20643  13.845   5.040  14.663 -0.2557 -0.0123 -0.2241
 7230W        W20644   0.805   2.187  10.584  0.1250 -0.1082  0.0585
 7231W        W20645   0.718   5.954   1.122 -0.1056 -0.2523 -0.0862
 7232W        W20646  17.004  12.248   4.970  0.2020  0.1917 -0.0314
 7233W        W20647  14.482   2.995   2.214  0.0572  0.1096  0.3079
 7234W        W20648  17.050  16.501  13.774 -0.0220  0.0572  0.1321
 7235W        W20649   6.342   8.424   4.286  0.1658  0.0427 -0.2105
 7236W        W20650  10.689   8.345  13.136  0.1448  0.0347  0.3718
 7237W        W20651   8.310  13.434  10.894  0.0952  0.3249  0.0651
 7238W        W20652  16.376  11.112  13.371 -0.1598 -0.1666  0.4565
 7239W        W20653  13.167   5.313   5.338 -0.0466  0.1227 -0.0637
 7240W        W20654   0.238  13.110   4.328 -0.1393 -0.1237  0.0850
 7241W        W20655   1.343  16.323   5.104 -0.2366  0.1819 -0.1944
 7242W        W20656   3.371   1.892   0.901 -0.0773  0.0969 -0.0775
 7243W        W20657   9.232  16.806  11.228 -0.2479  0.1063  0.2190
 7244W        W20658   6.861   1.731  16.462  0.1195  0.1011 -0.1161
 7245W        W20659  14.029   3.562  13.715  0.1096  0.1936  0.1485
 7246W        W20660  14.163  12.248  15.140 -0.0293  0.2301 -0.1558
 7247W        W20661   0.480   5.194   5.629 -0.1314  0.2409  0.1025
 7248W        W20662   9.008   4.218  12.470  0.1278 -0.0318 -0.0795
 7249W        W20663  12.855   8.165  16.082 -0.4131 -0.1882  0.0774
 7250W        W20664  16.943  11.338   0.590 -0.1472 -0.0223  0.0271
 7251W        W20665   4.553  10.514   4.915  0.4001 -0.2228 -0.2280
 7252W        W20666  14.403   3.354   3.193  0.2618 -0.0965  0.2297
 7253W        W20667  14.215  12.165  16.092 -0.2216  0.2303  0.0131
 7254W        W20668   8.681   2.907  14.834 -0.0085 -0.2806  0.2404
 7255W        W20669   8.360   8.965  13.583 -0.2216  0.0068 -0.1430
 7256W        W20670  14.832   5.283  10.819 -0.1709 -0.0820 -0.2452
 7257W        W20671  10.601  12.706  13.848 -0.1887  0.4267  0.1450
 7258W        W20672  15.570   6.169  11.063 -0.0293  0.1004  0.4612
 7259W        W20673  10.194  16.645  13.792 -0.0728 -0.0278 -0.0386
 7260W        W20674   4.925   5.325  15.460 -0.1693 -0.0477 -0.1942
 7261W        W20675   2.177  16.455  13.160 -0.1705 -0.0740  0.3386
 7262W        W20676   2.084   7.537  11.634  0.0226 -0.0939  0.0940
 7263W        W20677  16.340   4.005  13.796  0.0840 -0.1059 -0.2316
 7264W        W20678  15.904  16.824  10.238 -0.1001  0.1319  0.1018
 7265W        W20679  13.486   1.207   5.143 -0.2198 -0.0926 -0.3999
 7266W        W20680  16.477  14.183  16.133 -0.1838 -0.0866 -0.0640
 7267W        W20681   3.966   3.363  11.120  0.1310 -0.3827  0.1569
 7268W        W20682  13.810   0.349  10.196  0.0787  0.0520  0.0741
 7269W        W20683  15.097   1.382  16.361 -0.1217 -0.0943  0.1807
 7270W        W20684  16.391   2.631   3.057 -0.1671 -0.1066 -0.1933
 7271W        W20685  14.531  15.960   3.872  0.0351 -0.0273 -0.0352
 7272W        W20686   3.372   0.485  10.112 -0.0204  0.1327  0.1283
 7273W        W20687   1.787   7.479  14.865  0.2181 -0.1689 -0.0678
 7274W        W20688  15.739   3.922   4.921  0.3394 -0.2299 -0.1101
 7275W        W20689  14.974  12.483   3.964  0.0994 -0.1988  0.2546
 7276W        W20690  11.570  10.386  15.903  0.0656 -0.2850  0.3490
 7277W        W20691  14.244  16.125  15.036 -0.3434 -0.1450 -0.1587
 7278W        W20692   5.558  11.537  13.479  0.2663 -0.0380  0.3332
 7279W        W20693  11.822   1.467  10.877 -0.0113 -0.0135  0.1527
 7280W        W20694  13.860  14.356   2.522 -0.0676  0.0127 -0.2359
 7281W        W20695   0.021   1.235  14.278  0.1281  0.1793 -0.1427
 7282W        W20696   3.400   7.141   2.185 -0.1479 -0.0725  0.1132
 7283W        W20697   9.503   6.257  12.265  0.1006  0.0688  0.0595
 7284W        W20698  13.640   9.725  13.324 -0.0720  0.2438 -0.1453
 7285W        W20699  12.330   3.971  12.597  0.0170 -0.0631 -0.0662
 7286W        W20700  15.456  14.793   1.682 -0.0989  0.1544 -0.2814
 7287W        W20701   6.111   1.402   0.454 -0.0907  0.2662 -0.0835
 7288W        W20702   9.098  12.389   1.647  0.1041  0.1533 -0.0109
 7289W        W20703  17.463   1.746  11.041 -0.3897  0.1920  0.1266
 7290W        W20704   5.052   8.548  15.533  0.0269 -0.1085  0.0417
 7291W        W20705   8.652  15.269   5.578 -0.5201 -0.0480 -0.0677
 7292W        W20706  10.663  13.869  12.124 -0.0476  0.0472 -0.3085
 7293W        W20707  16.003   7.082   0.317 -0.3448 -0.1573  0.1165
 7294W        W20708  17.618   2.121  14.134 -0.0360 -0.1091  0.0469
 7295W        W20709  15.449  15.874  12.385  0.0632  0.4765  0.1519
 7296W        W20710   9.648  17.840  13.643 -0.0000  0.0491  0.2476
 7297W        W20711   8.724   4.403   1.049  0.0400  0.0936 -0.0376
 7298W        W20712  13.411  14.243   3.158  0.1125  0.0950 -0.5426
 7299W        W20713  14.641   1.103  16.299 -0.0534 -0.0566 -0.0546
 7300W        W20714  14.534   6.394   3.873 -0.1975  0.0415 -0.0950
 7301W        W20715  15.326   5.863   0.979 -0.2352  0.1469  0.0536
 7302W        W20716  10.117  15.437   0.479  0.2391  0.1650 -0.1721
 7303W        W20717  16.484  11.709   0.680 -0.3651  0.0246 -0.0415
 7304W        W20718  15.495  16.794  13.177  0.2165  0.2312 -0.0536
 7305W        W20719  10.202   8.542   2.929 -0.0210  0.1520 -0.2321
 7306W        W20720  13.727   1.320   5.603  0.0795  0.1474 -0.1946
 7307W        W20721   2.143   9.688   1.908 -0.0621 -0.3196  0.0594
 7308W        W20722   3.681  12.319  14.033 -0.0286  0.0753 -0.1174
 7309W        W20723   0.846  11.470  14.159  0.0964 -0.0228  0.1846
 7310W        W20724   4.619   9.624   2.348 -0.0697 -0.0573 -0.0530
 7311W        W20725   4.037   4.000   0.752 -0.2331 -0.1159 -0.0084
 7312W        W20726  10.668  17.528   2.087  0.2249 -0.1137  0.1435
 7313W        W20727  16.641   9.917  12.698 -0.1191  0.1731 -0.1554
 7314W        W20728   6.344   6.232   2.492  0.4829 -0.0015 -0.1288
 7315W        W20729  10.660   7.850   4.958 -0.1133  0.0033 -0.1153
 7316W        W20730  10.027   7.668   1.576 -0.0922  0.0837 -0.0536
 7317W        W20731   2.832   0.786   4.812  0.3291 -0.0793 -0.0691
 7318W        W20732   0.614   3.216   1.660  0.0642 -0.1463  0.0565
 7319W        W20733   8.887  11.865  15.922 -0.2371  0.1262 -0.0214
 7320W        W20734  17.224  15.081  14.072 -0.2129 -0.1418 -0.0915
 7321W        W20735   7.204  17.620   5.640 -0.2706  0.1531  0.1702
 7322W        W20736   9.678   5.935  11.910  0.0340  0.0785  0.0628
 7323W        W20737   8.833  15.153  14.634 -0.2098  0.0490  0.1150
 7324W        W20738  15.483   5.471   3.508  0.1702 -0.1478  0.1739
 7325W        W20739   2.520   5.812  12.514 -0.2554 -0.2324  0.2956
 7326W        W20740  12.025  17.814   2.300  0.0288 -0.2155  0.0779
 7327W        W20741   9.754   9.818   1.805  0.1317 -0.1231 -0.2801
 7328W        W20742  15.762   2.016  13.891  0.1455 -0.2151 -0.0674
 7329W        W20743   8.096  10.187  11.315 -0.0178 -0.2955 -0.0185
 7330W        W20744   0.887  10.964  13.278  0.1521 -0.0777  0.0128
 7331W        W20745   7.282  12.076  15.503 -0.0936  0.0974 -0.1779
 7332W        W20746   0.744   9.455   2.393 -0.0514 -0.1401  0.3159
 7333W        W20747  17.308   2.181  16.457  0.2801 -0.1556  0.1991
 7334W        W20748  17.302   1.696  15.508 -0.1879  0.2457  0.0708
 7335W        W20749  13.121   0.809   3.417  0.1507 -0.3184 -0.1980
 7336W        W20750  14.237   1.446   5.505 -0.0858  0.1528 -0.2427
 7337W        W20751   6.284   4.909   2.210  0.4089 -0.0410  0.0153
 7338W        W20752  14.425   7.973   2.336  0.0470  0.0013 -0.1866
 7339W        W20753   6.259  10.988   1.794  0.1049  0.2613 -0.3740
 7340W        W20754   8.534   7.347  10.370  0.0313  0.1482 -0.2032
 7341W        W20755   8.861   4.445  12.901 -0.0332  0.2606 -0.0972
 7342W        W20756   3.656  11.640  11.583  0.1001  0.0800 -0.3378
 7343W        W20757   7.401  10.559  11.749 -0.0377 -0.0442  0.0393
 7344W        W20758  16.941   0.768   5.557 -0.0090 -0.1548 -0.0171
 7345W        W20759   1.756  17.774   2.934  0.4211  0.0677  0.0324
 7346W        W20760   0.859  11.500   4.116 -0.0833  0.0861 -0.1624
 7347W        W20761  13.029   3.309   1.972  0.0084 -0.1274 -0.4826
 7348W        W20762  13.941  10.243  14.797  0.0230  0.0852 -0.1518
 7349W        W20763   6.936  11.734  11.414 -0.3937 -0.0850 -0.0073
 7350W        W20764  16.658  15.721  13.576 -0.0031 -0.0168 -0.2133
 7351W        W20765  13.923  16.735   2.901  0.0637  0.1355 -0.0109
 7352W        W20766   3.250  14.021  13.042 -0.1330 -0.0378 -0.0493
 7353W        W20767  15.380   6.197   0.557 -0.3463 -0.1831 -0.4273
 7354W        W20768  13.797  12.499  15.384 -0.1265  0.3979 -0.0884
 7355W        W20769   1.825   3.054   0.729 -0.3419  0.0269  0.3368
 7356W        W20770  13.506  11.686   6.175 -0.0389  0.0110  0.0020
 7357W        W20771   4.726   5.516  14.077 -0.4231  0.0676  0.1784
 7358W        W20772   6.616  17.061  11.646  0.0752  0.0877  0.0927
 7359W        W20773   6.621  15.244   2.621  0.1334 -0.0816  0.0133
 7360W        W20774   8.063   1.267  14.038  0.0129  0.1072  0.1872
 7361W        W20775  11.606  12.043   5.772  0.0493 -0.1936 -0.1168
 7362W        W20776  16.408   2.152   0.684  0.1744 -0.1404  0.3269
 7363W        W20777  17.056   5.287  12.850  0.2071  0.1903  0.0002
 7364W        W20778  16.397  17.303  13.501  0.2266  0.0031  0.2987
 7365W        W20779   3.805  15.006  11.023 -0.1838 -0.4459 -0.0224
 7366W        W20780  12.390  13.387  16.621  0.4242 -0.1660 -0.0040
 7367W        W20781   8.206   6.919  11.955 -0.0671 -0.0780  0.1179
 7368W        W20782   3.470   9.276   0.717  0.1895  0.0309  0.0126
 7369W        W20783   7.861  11.932   6.452 -0.1015 -0.1220  0.2862
 7370W        W20784  11.149  14.301   4.440 -0.3189 -0.2290 -0.0851
 7371W        W20785   4.589   0.601  15.535  0.0941 -0.1199 -0.1377
 7372W        W20786   1.590   1.921   5.395 -0.1097  0.0768 -0.1358
 7373W        W20787   3.161  12.139  13.648 -0.0295  0.1060 -0.0391
 7374W        W20788  11.509  11.268   3.575 -0.1229 -0.0922 -0.0346
 7375W        W20789   8.514   6.668  12.877 -0.1932  0.0772  0.1589
 7376W        W20790  14.130  13.423   4.103  0.1211  0.1454 -0.3070
 7377W        W20791   1.884  10.156  16.632 -0.0708 -0.0979  0.1710
 7378W        W20792   9.964  13.496  15.082  0.1412 -0.0783 -0.1002
 7379W        W20793  12.376  13.372  14.688 -0.2044  0.0586  0.1362
 7380W        W20794   9.555  11.607  11.381 -0.0713  0.0906 -0.0691
 7381W        W20795   2.025  16.348   1.693  0.1687  0.1106  0.1812
 7382W        W20796   9.025   3.674  13.285 -0.0129  0.0351  0.1673
 7383W        W20797   7.799   0.284  11.358  0.1169 -0.3098  0.3568
 7384W        W20798  16.662   8.711  14.310 -0.0324  0.5951 -0.3419
 7385W        W20799  11.731   6.034  11.329  0.0834 -0.4073 -0.2074
 7386W        W20800   2.247   3.696   0.452  0.2083 -0.1065  0.1461
 7387W        W20801  17.260   0.621   5.052  0.0993 -0.0960 -0.0740
 7388W        W20802   6.957  13.063  15.244  0.1308 -0.0153 -0.2210
 7389W        W20803   3.492   6.812   4.629 -0.1610  0.0652  0.0105
 7390W        W20804   9.610  12.736   5.423 -0.0986 -0.0860  0.0053
 7391W        W20805   8.260   6.737   4.560 -0.0116  0.0161 -0.1189
 7392W        W20806   9.734   3.602   1.930 -0.1701 -0.1511  0.2248
 7393W        W20807   2.273  16.271   3.418  0.0650  0.3827  0.0904
 7394W        W20808   4.790  14.126  11.095 -0.1900 -0.2343 -0.0870
 7395W        W20809   6.846  17.210   5.715  0.0628 -0.2575  0.0466
 7396W        W20810  15.570   7.872  11.036 -0.1552 -0.1112 -0.2758
 7397W        W20811  14.659   8.373   3.838 -0.1566  0.0716  0.0688
 7398W        W20812   9.481   9.180  16.154  0.6040  0.0896 -0.1325
 7399W        W20813   7.345  11.864   1.941 -0.0992  0.2859  0.0373
 7400W        W20814   7.421   0.997   0.649  0.0259 -0.1031  0.1671
 7401W        W20815   4.132   5.718   4.917 -0.0218 -0.0956  0.1700
 7402W        W20816   0.260   8.524  15.374 -0.1383  0.0188  0.0792
 7403W        W20817  14.511   1.666   2.402  0.0710 -0.0417  0.1945
 7404W        W20818  15.074  12.145  16.414  0.0605  0.0549  0.1308
 7405W        W20819  16.950  15.506   4.678 -0.0412  0.2148  0.0939
 7406W        W20820   4.606  10.641  14.587 -0.0154 -0.1714  0.1941
 7407W        W20821  15.635  13.592  11.514  0.1732 -0.1796 -0.2317
 7408W        W20822  15.093   4.693  13.148 -0.0034 -0.2889  0.0902
 7409W        W20823  17.440  10.996  15.450 -0.0088 -0.0290 -0.0008
 7410W        W20824  13.952  14.955   0.081  0.0644  0.0357  0.1536
 7411W        W20825   5.458  14.746   1.529 -0.0173 -0.0587  0.2669
 7412W        W20826   0.242  10.003   4.028  0.0466 -0.0953  0.2728
 7413W        W20827   1.829   9.796   9.951 -0.0395 -0.1222  0.0931
 7414W        W20828   3.084   7.369  11.197  0.0151  0.0175 -0.1556
 7415W        W20829   7.298   0.925   3.044  0.1236 -0.1074  0.1996
 7416W        W20830   6.308   9.221  14.187  0.2759 -0.0081  0.0512
 7417W        W20831   0.021  11.195   5.618  0.0812 -0.2312  0.1126
 7418W        W20832   6.394   0.481  11.595 -0.1041  0.4389  0.2115
 7419W        W20833   4.362  16.503   0.180  0.0612  0.0508 -0.0608
 7420W        W20834  10.637  17.986  16.464 -0.1051 -0.0754 -0.1623
 7421W        W20835  10.761  11.255  13.215 -0.3467 -0.0339  0.0865
 7422W        W20836  11.523  12.542  13.655 -0.0861 -0.1797 -0.1515
 7423W        W20837  11.651   1.860  15.767 -0.2845 -0.5581  0.1808
 7424W        W20838  16.387   4.509   1.645 -0.1811 -0.0466 -0.2969
 7425W        W20839  17.679   8.265   9.970 -0.0893 -0.0643  0.2130
 7426W        W20840   3.463   0.714  14.330  0.3163  0.1601 -0.2195
 7427W        W20841  12.307  15.736   0.731  0.1177  0.4127  0.1092
 7428W        W20842  15.869  13.007  12.743 -0.0521  0.1544 -0.0120
 7429W        W20843   5.553  12.280   0.716  0.2041 -0.0366  0.0469
 7430W        W20844   8.515   9.266   1.137 -0.1904  0.3162  0.2859
 7431W        W20845   2.998  16.266  12.464  0.1456  0.1101  0.0229
 7432W        W20846   8.169   2.109   0.814 -0.3425 -0.3702 -0.0024
 7433W        W20847   9.264  11.105  13.915  0.2870  0.1034  0.0036
 7434W        W20848   7.497  12.030   5.048  0.3719 -0.3570 -0.0522
 7435W        W20849   9.340   1.879   2.592  0.0493 -0.1495  0.0767
 7436W        W20850  15.072  10.663   0.372 -0.2060 -0.2758 -0.0555
 7437W        W20851   3.619  12.566   1.710  0.0346  0.0898 -0.0678
 7438W        W20852   0.137   8.208  15.844 -0.2303 -0.4854  0.0622
 7439W        W20853  16.181   6.647   3.331  0.2909  0.0817  0.1756
 7440W        W20854  14.138  17.585   0.671  0.2075 -0.3306  0.1663
 7441W        W20855   3.181  13.569   5.916  0.0050 -0.0618 -0.1194
 7442W        W20856  16.407  11.687  14.438 -0.1763 -0.3090  0.0970
 7443W        W20857  10.200  11.410   5.180  0.3926  0.2408 -0.1103
 7444W        W20858   2.985  17.542  14.563 -0.1002  0.3288  0.1760
 7445W        W20859   4.388  11.524  14.264  0.1571  0.1513 -0.1453
 7446W        W20860  15.979  12.886  16.163 -0.3606 -0.2119 -0.0900
 7447W        W20861   3.699  15.609   3.000  0.0299 -0.3655 -0.0219
 7448W        W20862  17.755  16.813   4.393 -0.0465  0.0423 -0.2395
 7449W        W20863   0.511   6.165  14.961 -0.1872 -0.2699 -0.1801
 7450W        W20864  11.578  16.246   1.983 -0.1124  0.3493 -0.0748
 7451W        W20865  14.870   2.127   1.809  0.0835 -0.3501  0.0406
 7452W        W20866   9.621   5.086   3.041  0.1615 -0.2176 -0.1120
 7453W        W20867  15.766  16.168   0.032 -0.0731  0.3205  0.0467
 7454W        W20868   9.512   6.828  11.383  0.1298 -0.0060 -0.0510
 7455W        W20869  17.010   3.116   2.752 -0.0310  0.2102 -0.0676
 7456W        W20870  14.093  14.841  13.895 -0.1378 -0.1644 -0.2967
 7457W        W20871  12.736   3.523  13.350 -0.0667  0.2975 -0.0166
 7458W        W20872   4.757   3.016   0.706 -0.2633 -0.1661  0.0010
 7459W        W20873  17.488  12.332  13.064  0.0058 -0.1434 -0.0792
 7460W        W20874   3.179  14.463  12.740 -0.2651 -0.0854 -0.1229
 7461W        W20875  17.415  10.834  16.485  0.3300  0.0063 -0.1833
 7462W        W20876   6.851  16.534  11.704 -0.0628 -0.0546 -0.0450
 7463W        W20877  17.690   3.389   1.518  0.1957  0.3293 -0.2696
 7464W        W20878  17.329  15.311   4.145  0.0440 -0.1617 -0.4054
 7465W        W20879  15.528   0.842  13.258  0.1548  0.3772  0.2325
 7466W        W20880   1.268  11.003  12.908 -0.0601  0.1690 -0.2961
 7467W        W20881  17.740  11.928   5.146  0.1503  0.0779 -0.0197
 7468W        W20882   5.957   7.600  16.275 -0.0428  0.0780  0.1424
 7469W        W20883  13.222   5.849   0.564  0.1146  0.0190  0.1069
 7470W        W20884   5.221  17.640  14.454  0.0562  0.0558 -0.0324
 7471W        W20885  12.572   4.107  16.601  0.0554 -0.1396  0.1692
 7472W        W20886   9.823  17.162   1.636  0.1497 -0.0390  0.1124
 7473W        W20887   6.998   5.003  11.867 -0.0491  0.0306  0.1919
 7474W        W20888  14.403   5.718   3.527  0.1043  0.2732  0.0165
 7475W        W20889   6.408  17.676   3.555  0.1435 -0.0964 -0.1480
 7476W        W20890  12.755  16.134   2.964  0.0754 -0.1315  0.3216
 7477W        W20891   3.911   7.466  14.695  0.0205 -0.2155 -0.0744
 7478W        W20892  14.730  10.159   5.703 -0.0599  0.1124  0.0838
 7479W        W20893  17.078  14.481   3.901 -0.0761  0.4480  0.0443
 7480W        W20894  13.967  17.527  11.513 -0.4059 -0.1291  0.2617
 7481W        W20895   2.793   4.943   5.356  0.2282  0.0070  0.0553
 7482W        W20896  11.050   9.015  14.446 -0.0525  0.2201  0.1051
 7483W        W20897   2.849   1.958   0.557 -0.1595 -0.0269  0.1565
 7484W        W20898  10.524   7.762   1.701 -0.2941  0.1482  0.1434
 7485W        W20899   6.909  15.816   4.533 -0.2165  0.0370  0.2674
 7486W        W20900  13.568   8.408   2.779 -0.3007 -0.0016  0.0522
 7487W        W20901   5.823   3.058   4.301  0.0559 -0.0414  0.2590
 7488W        W20902  11.450   9.723  11.326 -0.0743 -0.0883 -0.0153
 7489W        W20903  13.522   0.183   5.490  0.2536  0.1133  0.2074
 7490W        W20904  12.422   5.224  11.007 -0.3016 -0.0532  0.2576
 7491W        W20905  17.873  15.533   6.084 -0.0707  0.1702  0.0523
 7492W        W20906   4.173   4.863   5.482 -0.1664 -0.0156  0.0671
 7493W        W20907   7.408   6.218  11.148  0.1269  0.1044  0.0336
 7494W        W20908   0.958   8.481  12.370 -0.1701 -0.1564  0.0520
 7495W        W20909   5.944  15.077   1.021 -0.2800  0.0862 -0.0878
 7496W        W20910  11.811  13.870   1.448 -0.2523  0.1806  0.3393
 7497W        W20911  14.838  11.374   5.573 -0.2447 -0.2312 -0.0891
 7498W        W20912  12.513  13.894  16.704  0.4207 -0.0585  0.1046
 7499W        W20913   8.080   7.621  11.172  0.0836  0.0863 -0.1647
 7500W        W20914  10.996   9.175   6.106 -0.2490  0.2164  0.2914
 7501W        W20915   4.517  11.699   3.033  0.0464  0.0232 -0.0883
 7502W        W20916   0.115  13.163  12.684  0.0941 -0.1020  0.2059
 7503W        W20917  17.659   1.327  10.036  0.2838 -0.2579 -0.2760
 7504W        W20918  16.026   0.321  16.564 -0.5376 -0.1314  0.0088
 7505W        W20919  15.747  11.610  15.115 -0.0012  0.0127 -0.0910
 7506W        W20920   3.456  13.074  11.862 -0.1569 -0.2804 -0.0194
 7507W        W20921  13.384  11.506  12.641  0.1589 -0.2804 -0.0212
 7508W        W20922  12.322   4.766   9.998 -0.0742  0.0288  0.0016
 7509W        W20923   2.404   6.618  13.931  0.1054  0.0861  0.1644
 7510W        W20924   8.740  16.016  15.193  0.3038  0.0759 -0.0737
 7511W        W20925   0.807  14.232  11.477 -0.0033 -0.0980 -0.1890
 7512W        W20926   8.241  10.123   4.564  0.3110  0.0661  0.0099
 7513W        W20927   2.128  15.383  13.967 -0.1487 -0.3083 -0.1491
 7514W        W20928  13.428  12.496   0.201  0.2357  0.0736 -0.1515
 7515W        W20929  17.484  10.039  15.727 -0.0932 -0.2323 -0.0536
 7516W        W20930  10.122   2.568   5.632 -0.0212  0.3419 -0.1622
 7517W        W20931  13.113   3.183   3.308  0.0617 -0.0695  0.0639
 7518W        W20932  12.984   9.146  11.129 -0.1627 -0.0329 -0.1028
 7519W        W20933   3.577   0.655   0.848 -0.2035 -0.0579  0.2240
 7520W        W20934  17.566   1.307  10.843 -0.3072  0.0788  0.2179
 7521W        W20935   7.211   6.799   0.907  0.0894  0.0665  0.1753
 7522W        W20936  14.641  15.686   3.451  0.0745  0.1505 -0.0119
 7523W        W20937   4.680   7.645   3.883  0.3389  0.1480 -0.1508
 7524W        W20938   2.897   5.595   1.655  0.2480  0.0218  0.1574
 7525W        W20939   7.292  17.699   4.670 -0.0532 -0.1808 -0.0739
 7526W        W20940   0.200   3.083  14.572 -0.0374  0.0513  0.1197
 7527W        W20941   4.181   3.440  11.605 -0.0073  0.0910  0.1281
 7528W        W20942   2.735   8.817  11.410 -0.2440  0.2161 -0.3408
 7529W        W20943   0.652   6.434   4.487 -0.1676  0.0078 -0.0730
 7530W        W20944   2.980   2.491   0.499  0.0608 -0.0890  0.1694
 7531W        W20945   3.470   5.722  15.607  0.1786 -0.0601 -0.3266
 7532W        W20946   9.808   0.527  11.678 -0.1379 -0.0135 -0.1881
 7533W        W20947   6.984  16.458  16.032 -0.1015 -0.0089 -0.2103
 7534W        W20948  11.705   3.049   4.332  0.2557  0.1396  0.2013
 7535W        W20949   9.876   4.923   4.902 -0.1070 -0.0087  0.2314
 7536W        W20950  16.486  17.813  13.506 -0.2877 -0.0414 -0.2397
 7537W        W20951   1.503   3.804   9.900  0.1453  0.0936  0.0968
 7538W        W20952  14.090   3.492  11.048 -0.1870  0.1315 -0.0888
 7539W        W20953   7.725   4.975  12.580  0.1636  0.1908 -0.1419
 7540W        W20954   7.354   8.280  11.674 -0.0866  0.1302  0.2206
 7541W        W20955  10.558  13.779   4.866  0.0566  0.2465 -0.0140
 7542W        W20956   8.427  15.727  14.517  0.0632  0.2050 -0.2020
 7543W        W20957  11.161  17.462   6.285 -0.2163  0.0804 -0.0508
 7544W        W20958   9.094   5.680  12.742 -0.0280 -0.0856  0.0680
 7545W        W20959   2.018   3.230  10.778 -0.0108 -0.2955 -0.1714
 7546W        W20960   6.912  10.576  11.818  0.0343 -0.2076 -0.0800
 7547W        W20961  13.614  17.325  14.689  0.1831  0.2584  0.2900
 7548W        W20962   4.183   8.276  14.394  0.0530  0.0959 -0.0627
 7549W        W20963  14.717  13.247  13.299  0.1251  0.2138  0.1786
 7550W        W20964   0.968  13.073   2.138 -0.1917  0.3470  0.0207
 7551W        W20965  17.109   5.945   2.948 -0.0653 -0.0201  0.0884
 7552W        W20966   2.103  17.834   3.788 -0.2531 -0.1773  0.4501
 7553W        W20967  12.145  11.603  12.005  0.0923  0.1738  0.1606
 7554W        W20968   5.681  17.740   1.695  0.2127 -0.0199 -0.0483
 7555W        W20969   6.660  14.906   5.395 -0.0434 -0.0824 -0.2193
 7556W        W20970   4.847  13.127  11.742 -0.0550 -0.1536 -0.0766
 7557W        W20971   7.925  10.948   6.612 -0.0741 -0.2845  0.2011
 7558W        W20972   2.519   3.884   4.482  0.2298 -0.1417  0.2036
 7559W        W20973   1.147  10.279  13.412 -0.1740  0.0957  0.3831
 7560W        W20974  12.684  10.606   1.134 -0.0745 -0.2205  0.1163
 7561W        W20975  11.415  13.077   2.941 -0.1223 -0.0691 -0.0296
 7562W        W20976  11.852   6.980  14.166 -0.0325 -0.0245  0.0813
 7563W        W20977   8.897   1.065  15.936  0.2982 -0.0832  0.0423
 7564W        W20978   7.690  12.259   4.102  0.1065 -0.0392  0.0618
 7565W        W20979  17.017  15.141  13.361 -0.0638  0.2255  0.0460
 7566W        W20980   6.932  10.060   5.424 -0.0565  0.1775 -0.1709
 7567W        W20981   1.016  13.703   4.710 -0.1040 -0.0625 -0.1541
 7568W        W20982   7.390   4.733  10.163 -0.0764 -0.3481 -0.1826
 7569W        W20983  17.356  14.811   3.682  0.2761  0.1826 -0.2087
 7570W        W20984   4.034  10.076   3.122 -0.1804 -0.2867  0.0481
 7571W        W20985  17.846   7.256   0.732 -0.2255 -0.0993  0.4201
 7572W        W20986   4.882  13.268  12.318 -0.5757  0.1471 -0.2295
 7573W        W20987  10.665  15.156  12.887  0.0665  0.1216  0.1423
 7574W        W20988  14.214  14.518  14.813  0.1712  0.1154 -0.1291
 7575W        W20989   1.792  16.747  16.098 -0.0721  0.1007  0.0820
 7576W        W20990   2.165   0.044  15.424 -0.0782  0.3241 -0.1810
 7577W        W20991   5.894   6.772  14.669  0.1253 -0.1910 -0.0383
 7578W        W20992   9.628   3.124   3.695 -0.1489 -0.0552  0.1419
 7579W        W20993   1.942  11.072  15.811  0.0074 -0.2291  0.0840
 7580W        W20994   5.032   4.015  11.748  0.0623  0.0444 -0.1196
 7581W        W20995   2.666  11.168   3.821 -0.0639  0.2273 -0.1467
 7582W        W20996   8.603   7.184  13.555 -0.3241 -0.0750  0.0113
 7583W        W20997   7.673   6.369  14.935  0.4582  0.0796  0.0331
 7584W        W20998   2.840   5.174  11.955 -0.0787  0.1646 -0.0826
 7585W        W20999   4.519   1.095  16.433 -0.0087  0.0621 -0.0631
 7586W        W21000   6.975   9.629  12.744 -0.5906 -0.1817 -0.0882
 7587W        W21001  10.765  15.915   0.757 -0.1962 -0.0667  0.1289
 7588W        W21002   7.565   5.234   4.522  0.3504  0.1060 -0.0867
 7589W        W21003  15.073   3.211   3.734 -0.1914 -0.1505 -0.0525
 7590W        W21004   0.901   5.804  16.404  0.1744  0.1385 -0.1274
 7591W        W21005   4.788  13.766   2.210  0.3555  0.0262 -0.0748
 7592W        W21006   1.516   4.360  13.886  0.1581 -0.0667  0.0810
 7593W        W21007  16.656  16.065   1.236  0.5073 -0.0166 -0.0344
 7594W        W21008  17.429  16.481  16.739  0.0899  0.0884 -0.3245
 7595W        W21009   5.350   4.429  10.269 -0.2977 -0.0983  0.0242
 7596W        W21010   8.136   8.416   3.191  0.3325 -0.2760 -0.3037
 7597W        W21011  17.344   6.273   2.408 -0.4661  0.1133  0.0781
 7598W        W21012  12.081   6.888   5.237 -0.1875  0.1325 -0.2818
 7599W        W21013  13.347   0.710   4.387 -0.3935  0.0229  0.1735
 7600W        W21014  15.489  10.285  12.183  0.4157  0.2112  0.0695
 7601W        W21015  13.934  13.869   0.821  0.0026 -0.0802 -0.3773
 7602W        W21016  13.587   2.775  12.491  0.0508  0.1285  0.3409
 7603W        W21017  13.006  14.810  14.717 -0.2204  0.0492 -0.1579
 7604W        W21018   0.790   8.108  16.613 -0.2183 -0.0628  0.0986
 7605W        W21019  14.668   1.688   5.495 -0.2073 -0.0417 -0.1269
 7606W        W21020   5.862  17.023   3.174  0.1901  0.0034 -0.0229
 7607W        W21021  16.806   2.572   5.537 -0.1784  0.0547 -0.2936
 7608W        W21022   3.308  16.701   2.976  0.0828  0.3552  0.2700
 7609W        W21023   6.306   9.583  16.302 -0.4260 -0.0457 -0.0029
 7610W        W21024   2.822   4.460   5.575  0.1267  0.2096  0.0985
 7611W        W21025   7.682   0.277  15.508 -0.4080 -0.0305 -0.1714
 7612W        W21026  13.929   5.478  14.851 -0.1045 -0.0800 -0.3597
 7613W        W21027  16.664   0.495  15.974  0.0203  0.1482 -0.1548
 7614W        W21028  16.514  16.358  10.552  0.1474  0.0098  0.4012
 7615W        W21029   2.838   9.614  14.285  0.1243 -0.2371  0.2110
 7616W        W21030  14.752   5.877  11.582 -0.1965  0.2845 -0.0669
 7617W        W21031   4.305   7.475   4.803 -0.0772 -0.0819 -0.1153
 7618W        W21032   2.831  16.154  14.387 -0.0454  0.0899 -0.1148
 7619W        W21033  15.788  11.656  12.105 -0.1177  0.0917 -0.2273
 7620W        W21034  13.088   4.400  11.022 -0.3158 -0.3431 -0.1589
 7621W        W21035   6.880  16.073   0.392  0.0068 -0.1322  0.1715
 7622W        W21036   3.533   1.456  10.523  0.0869  0.1042  0.2230
 7623W        W21037  13.892   5.012  15.609  0.0247 -0.0471 -0.0942
 7624W        W21038  14.472   2.155  10.705  0.0491 -0.2027 -0.0504
 7625W        W21039   4.327   9.662   4.499  0.0370  0.1754  0.0954
 7626W        W21040  17.365   2.967  12.242  0.0606 -0.0905 -0.0038
 7627W        W21041  11.335  13.019  13.631 -0.2966  0.1348  0.0612
 7628W        W21042  14.171   5.651   0.155 -0.0819 -0.2046 -0.1218
 7629W        W21043   2.853   8.474  14.769  0.2281  0.0657  0.3448
 7630W        W21044   9.347   3.839   1.652  0.2874 -0.1651  0.1127
 7631W        W21045   3.315   4.654  16.657  0.1092 -0.0954 -0.0664
 7632W        W21046  12.784   8.702  14.753 -0.0557  0.1941  0.1892
 7633W        W21047   2.626   5.263   0.840  0.0505 -0.0758 -0.3208
 7634W        W21048  12.748   3.170   2.957 -0.0370 -0.0367  0.0794
 7635W        W21049   0.306  11.605  12.265  0.2926  0.0241  0.0681
 7636W        W21050   6.002   8.207   4.568 -0.3490  0.4889  0.1267
 7637W        W21051  11.649   5.534  13.180  0.1378 -0.1030  0.0997
 7638W        W21052   0.585  16.554  13.415 -0.1613 -0.1582  0.1448
 7639W        W21053   0.424   2.445  16.281 -0.3509 -0.0437 -0.0152
 7640W        W21054  11.084   9.161  16.283 -0.2655 -0.0714 -0.0679
 7641W        W21055  12.727   3.872   2.153 -0.0047 -0.0268 -0.0119
 7642W        W21056  15.388   2.706  10.904  0.2027  0.1761  0.2279
 7643W        W21057  14.383   0.970  12.927 -0.0993 -0.2228 -0.0168
 7644W        W21058   4.966   1.864  16.523  0.2562 -0.0392  0.3701
 7645W        W21059   8.781   9.798  13.614  0.1090  0.1231 -0.0117
 7646W        W21060   4.848   5.315   4.357 -0.2059  0.0381 -0.0147
 7647W        W21061  10.192   6.009  11.555  0.1101  0.0031 -0.0069
 7648W        W21062   8.937  14.225  15.878 -0.0792  0.1657  0.0268
 7649W        W21063  17.838   9.060  16.172  0.0349  0.2225 -0.1592
 7650W        W21064   0.214   5.513  13.381 -0.1602 -0.1425 -0.0564
 7651W        W21065  10.029   0.705   3.852 -0.2940  0.2093  0.3102
 7652W        W21066  15.830  13.005  15.198 -0.0678  0.1348 -0.1407
 7653W        W21067   9.707  13.460  11.808  0.0612 -0.0183 -0.0897
 7654W        W21068  11.856   4.243  13.725 -0.1676  0.1518  0.1668
 7655W        W21069   0.598  13.219  10.573  0.1245  0.1680 -0.0585
 7656W        W21070  10.354   3.295   5.731  0.0984 -0.2436  0.2968
 7657W        W21071   8.348  11.963  14.978  0.2571 -0.1848 -0.1329
 7658W        W21072  11.726  17.936   3.067 -0.1125  0.1810  0.0428
 7659W        W21073   7.245  12.731   2.382 -0.0138  0.0550  0.0100
 7660W        W21074  14.344   6.169   4.717  0.0425  0.1086 -0.2276
 7661W        W21075  14.045   6.117   5.529  0.0799  0.1468  0.1427
 7662W        W21076   1.446   8.197  14.211 -0.2115 -0.1304 -0.1178
 7663W        W21077   5.597  10.015  13.006 -0.1507  0.0199 -0.1609
 7664W        W21078  17.083  16.188   3.628  0.3649 -0.1395  0.5133
 7665W        W21079  11.722  10.269  16.406 -0.1023 -0.0226 -0.0089
 7666W        W21080  10.937   4.044   0.322  0.2412 -0.0931 -0.1019
 7667W        W21081  12.163  11.697  15.286 -0.0431 -0.0922  0.2033
 7668W        W21082   5.020   0.894  15.107  0.2006 -0.0104  0.0313
 7669W        W21083  15.258   4.545  15.085  0.0558  0.1109 -0.0610
 7670W        W21084  13.291  14.672   4.134 -0.3007  0.0218  0.0852
 7671W        W21085   8.378  12.012   2.005  0.1194  0.2800  0.0128
 7672W        W21086   6.373   3.269   2.727  0.1910 -0.1425 -0.0328
 7673W        W21087   4.253   6.577  12.396 -0.1994  0.1879  0.4892
 7674W        W21088  15.779  12.429   1.808  0.1656 -0.0367  0.0510
 7675W        W21089   3.108   7.137  16.392 -0.1316 -0.1061  0.0579
 7676W        W21090  13.497   5.296   3.660  0.0747  0.0366 -0.3261
 7677W        W21091   4.412   4.405  12.085  0.0390  0.1547  0.0013
 7678W        W21092   3.162   1.838  13.684  0.0208  0.2154  0.0927
 7679W        W21093  15.344   4.160  13.321  0.0502  0.0809  0.0733
 7680W        W21094  14.062  15.597  10.729  0.3208 -0.2611  0.0833
 7681W        W21095   4.060   6.207   6.045  0.0296 -0.1887 -0.3296
 7682W        W21096   0.420  10.725  10.707 -0.0047 -0.0463 -0.3571
 7683W        W21097   2.135  11.910   5.865 -0.1149 -0.0382  0.1915
 7684W        W21098  12.718   2.010  15.752  0.1250 -0.0198 -0.1539
 7685W        W21099  11.637  17.677   4.004  0.1210 -0.1388  0.0893
 7686W        W21100   6.571   0.622  11.114  0.1502  0.2128 -0.0800
 7687W        W21101   7.931  11.444  14.366 -0.0354  0.1206  0.1655
 7688W        W21102  12.672  17.840  15.743 -0.0180 -0.0975 -0.0803
 7689W        W21103  17.547  12.270   1.166 -0.0456  0.0051  0.2941
 7690W        W21104   5.874   5.602   4.880  0.6193 -0.0915  0.1122
 7691W        W21105   8.472  11.624  16.171  0.1706  0.0535 -0.1877
 7692W        W21106   2.873   0.972   3.399 -0.2723 -0.0454  0.2669
 7693W        W21107  11.092  11.049  16.121 -0.2808 -0.1974 -0.1871
 7694W        W21108  13.206  16.909  16.340  0.0258 -0.0266 -0.0039
 7695W        W21109  11.445  12.178  14.049 -0.1478 -0.0545 -0.2131
 7696W        W21110  12.506   3.231  15.933 -0.1229  0.1474 -0.0369
 7697W        W21111   2.735   6.822  14.892  0.1513 -0.0591 -0.0994
 7698W        W21112   2.243   0.285   3.906 -0.1667 -0.2261  0.1368
 7699W        W21113   0.971   0.178  10.903 -0.1987  0.0874 -0.2029
 7700W        W21114  16.971  12.702   2.429  0.2683 -0.0677 -0.0861
 7701W        W21115   3.794  13.733  14.542  0.3443  0.0533  0.0517
 7702W        W21116   0.814   0.963  16.131  0.1073  0.1063 -0.2435
 7703W        W21117   1.500   4.653   0.192 -0.1277 -0.0454 -0.2242
 7704W        W21118  15.371   7.401   0.464  0.1463 -0.0932 -0.1102
 7705W        W21119  12.986  15.671  12.608  0.0151 -0.0802 -0.1159
 7706W        W21120  16.700   7.325  16.390 -0.0817 -0.1354 -0.0222
 7707W        W21121   0.783  16.992  13.252 -0.2451  0.1340  0.0503
 7708W        W21122   9.992   3.888   4.033 -0.0410 -0.1199  0.1501
 7709W        W21123  10.240  12.713   4.599  0.1912  0.1433  0.1428
 7710W        W21124   4.896   1.709  11.845  0.1950  0.4210  0.0370
 7711W        W21125  14.533   4.393   5.331  0.0778 -0.0371 -0.0604
 7712W        W21126  11.023   6.851   0.109  0.1374 -0.0124  0.1311
 7713W        W21127   9.013   3.680  11.469  0.0045 -0.1038 -0.3172
 7714W        W21128   8.129   1.357  12.378  0.0659 -0.0945  0.0138
 7715W        W21129  11.083   4.332   2.224 -0.0148  0.0937  0.0392
 7716W        W21130  14.910   3.721   1.345  0.0036 -0.1185 -0.0306
 7717W        W21131  17.769   9.400  10.905 -0.0004  0.1476 -0.1443
 7718W        W21132  17.173  17.909  12.116  0.4286 -0.2025  0.0300
 7719W        W21133   6.489  15.691  13.001  0.0664  0.0133  0.0180
 7720W        W21134  11.609   4.843  12.548  0.0120  0.1814 -0.0857
 7721W        W21135   5.091   3.248  13.373 -0.0067 -0.1627  0.0465
 7722W        W21136  10.145  13.574   3.706  0.2459 -0.0791 -0.2524
 7723W        W21137  15.158   8.585  16.444 -0.0211 -0.2411  0.0607
 7724W        W21138  15.437   5.979   3.536  0.0656  0.0900  0.1779
 7725W        W21139   0.431  11.630   2.739  0.0575 -0.1880 -0.1604
 7726W        W21140  11.233   5.050  14.304 -0.0972  0.1544 -0.1501
 7727W        W21141   7.712  13.837  14.733  0.1650  0.0088 -0.1189
 7728W        W21142  12.313  15.642   1.415 -0.0743  0.0207  0.1055
 7729W        W21143   6.058  17.450   3.961  0.1757  0.1855 -0.0831
 7730W        W21144  11.914   6.197   1.225  0.1140  0.0288  0.2941
 7731W        W21145  14.355  17.112   2.119 -0.1478 -0.0296 -0.2711
 7732W        W21146   6.780  16.129  13.362 -0.0064 -0.1708  0.3115
 7733W        W21147  11.442   9.356   6.175  0.1219 -0.3679 -0.0889
 7734W        W21148  14.136   4.841   3.930  0.1491 -0.1150 -0.1686
 7735W        W21149   2.029  12.473   3.962 -0.0606  0.0926  0.2186
 7736W        W21150   9.028   9.750  11.995 -0.0789  0.2723  0.1691
 7737W        W21151   7.372  14.310  14.096 -0.1251  0.1744 -0.2040
 7738W        W21152   7.377   4.083  11.823 -0.1026  0.2520 -0.1354
 7739W        W21153   6.020   8.449  13.132  0.0703 -0.0404  0.0381
 7740W        W21154   1.647   1.532  12.716  0.0228 -0.2439 -0.0228
 7741W        W21155   3.748  16.465   2.715  0.0058 -0.1024  0.1176
 7742W        W21156   4.204   2.462  10.202 -0.0728  0.1830 -0.1704
 7743W        W21157   7.412  16.023   4.637  0.0057 -0.0889 -0.1936
 7744W        W21158   1.088   3.960  15.752  0.2380  0.0416  0.1558
 7745W        W21159   6.138   7.594  14.195 -0.0885  0.1226  0.0267
 7746W        W21160  14.355   3.225  11.352  0.0763 -0.0209  0.2949
 7747W        W21161   4.074   0.072   9.663  0.1144  0.0419  0.3326
 7748W        W21162   4.266  13.169   1.027 -0.0177  0.0787  0.3470
 7749W        W21163  14.510  10.778   0.095  0.1044 -0.1615 -0.1085
 7750W        W21164   5.244   7.579  13.187 -0.0001 -0.0043 -0.2050
 7751W        W21165  14.669  12.950   1.596 -0.1354  0.1870  0.0226
 7752W        W21166   7.082  17.205  12.503  0.2069  0.0509 -0.0707
 7753W        W21167   9.370   3.501  12.935  0.3183 -0.1028 -0.1942
 7754W        W21168  10.737  17.629   0.040 -0.2437  0.4219 -0.1257
 7755W        W21169   5.882  10.030  15.571  0.0606 -0.0993  0.3888
 7756W        W21170   3.794   8.462  13.671  0.3734 -0.3150  0.0865
 7757W        W21171   5.389  17.070   3.024  0.0463 -0.4562  0.0791
 7758W        W21172   9.959  16.928  16.013  0.1756 -0.0917 -0.1009
 7759W        W21173   7.775   7.249   2.540  0.2580  0.0238  0.1910
 7760W        W21174   3.696   6.925   5.472 -0.1081  0.2718 -0.1106
 7761W        W21175  12.585   6.151  14.529  0.0295  0.3444 -0.2159
 7762W        W21176  11.404   6.980  16.089 -0.2980 -0.1273 -0.1659
 7763W        W21177  13.688   7.376  11.172  0.1784 -0.1347  0.1543
 7764W        W21178   8.944   4.610   4.172 -0.1187 -0.0988  0.2777
 7765W        W21179  15.632  10.767  12.057  0.1864 -0.1918 -0.1502
 7766W        W21180  16.299   2.344   4.208  0.5443  0.3426  0.0119
 7767W        W21181  17.288   0.441   0.355  0.1598 -0.2833 -0.1324
 7768W        W21182   6.205  13.393  13.799 -0.2140 -0.0869  0.1036
 7769W        W21183   0.609  11.086   6.233 -0.1602  0.1869  0.3087
 7770W        W21184  13.027  16.012   3.742  0.0219  0.4130 -0.1629
 7771W        W21185   2.424  14.038   5.397 -0.0492  0.0126  0.0788
 7772W        W21186  12.157   7.151  12.418  0.0697  0.0362  0.1233
 7773W        W21187   0.247   3.875  13.561 -0.0520 -0.1164  0.1708
 7774W        W21188  11.999  15.716   5.290  0.1129 -0.2455 -0.1126
 7775W        W21189  16.456   3.566  16.051  0.2071  0.3616 -0.1972
 7776W        W21190  10.465  12.667  16.468  0.0704  0.1015 -0.1622
 7777W        W21191  12.070  13.023   6.650 -0.2983 -0.0579 -0.4868
 7778W        W21192   4.821   1.049  15.659  0.1490 -0.0276  0.1660
 7779W        W21193   7.503   9.002  13.259  0.0011  0.1918 -0.1179
 7780W        W21194  10.438   9.136  14.833 -0.1669 -0.1377 -0.1589
 7781W        W21195  15.709   7.171  16.474  0.2339  0.0263 -0.0061
 7782W        W21196   9.759  11.225  14.572  0.0980  0.1274 -0.0995
 7783W        W21197  13.454   4.271   0.508 -0.1025  0.0091  0.0716
 7784W        W21198  17.671  10.262   2.853  0.0698 -0.5625  0.1401
 7785W        W21199  17.717   3.985  15.604  0.1328  0.0912  0.1764
 7786W        W21200   1.142   2.640  15.897  0.1650 -0.3434  0.1030
 7787W        W21201   5.901   3.488   0.493 -0.1630 -0.0783  0.0567
 7788W        W21202  10.080   5.804   2.396  0.0566  0.4942  0.2642
 7789W        W21203  13.736  15.785   2.423 -0.0946 -0.1830 -0.0292
 7790W        W21204   3.181   9.291   6.657  0.1630  0.1533 -0.2594
 7791W        W21205  14.992   6.504   1.372  0.0170  0.3319 -0.1357
 7792W        W21206   1.988  16.363  13.666 -0.2249 -0.3133  0.1020
 7793W        W21207  11.234   8.121   0.932 -0.2075  0.1110 -0.0905
 7794W        W21208  16.641   6.041   3.065  0.1120 -0.0465 -0.0743
 7795W        W21209   9.819  15.056   0.260  0.0108  0.1123  0.2328
 7796W        W21210  12.792  15.548   4.872 -0.2071 -0.2160  0.1122
 7797W        W21211   3.363   3.030  12.821 -0.1630 -0.0618  0.1206
 7798W        W21212   1.914   6.878   3.693 -0.0829 -0.0186  0.1300
 7799W        W21213   7.925  16.437  14.581 -0.1537  0.0240  0.2150
 7800W        W21214  10.150   5.832  12.072  0.0168  0.1046 -0.1436
 7801W        W21215  10.466   0.091   2.227  0.1405 -0.0965  0.0559
 7802W        W21216   9.975  11.239  11.400  0.0060 -0.0092  0.0254
 7803W        W21217   5.920  11.782  12.818  0.0944  0.1872  0.2027
 7804W        W21218  10.603   1.378   3.865 -0.0007 -0.3098  0.0946
 7805W        W21219  12.726  11.244   0.314  0.2720  0.2430 -0.0772
 7806W        W21220   8.775  13.102   5.427  0.0946 -0.0277 -0.0822
 7807W        W21221  15.409  11.260   5.383  0.1408 -0.0996  0.2185
 7808W        W21222  14.232   2.505  10.871 -0.0415 -0.0054  0.2371
 7809W        W21223   9.942   6.941   2.175 -0.2810  0.0214 -0.0345
 7810W        W21224   3.622   7.459   0.361 -0.1864  0.1612 -0.1941
 7811W        W21225  10.252  14.507   4.904  0.1820 -0.3404 -0.1382
 7812W        W21226   8.294  10.190   2.628  0.0842  0.3041 -0.2162
 7813W        W21227  16.924  12.740   3.072 -0.0565  0.0316 -0.0708
 7814W        W21228  10.962  14.286  12.755 -0.1127  0.0536 -0.2250
 7815W        W21229   3.292   5.001   1.578 -0.1101  0.1944 -0.2712
 7816W        W21230   8.306   8.837  14.986 -0.1494  0.0251 -0.0509
 7817W        W21231   2.726  17.671  16.314  0.2262 -0.1171  0.1396
 7818W        W21232  16.475   6.258  11.349 -0.2283  0.0702  0.3363
 7819W        W21233  14.868   8.085  15.084 -0.2223 -0.0973  0.0232
 7820W        W21234   4.471   0.214  16.534 -0.2190  0.0131 -0.1350
 7821W        W21235   8.755  17.373   4.228 -0.0877 -0.0067 -0.1440
 7822W        W21236  12.455   2.375   3.120  0.0814 -0.1013  0.3598
 7823W        W21237   5.612   6.761   2.890  0.0148  0.2020 -0.2234
 7824W        W21238   3.408  14.166  15.323 -0.0741 -0.0689  0.1704
 7825W        W21239  10.002  14.111   1.623  0.4118  0.1192 -0.1297
 7826W        W21240   7.335   4.119   2.258 -0.2578 -0.0402 -0.0955
 7827W        W21241  16.416   1.434   5.033  0.0201 -0.0072 -0.1321
 7828W        W21242  16.519   2.416   5.895  0.0641 -0.0356 -0.2717
 7829W        W21243  12.660  14.919   3.472 -0.0688  0.3781  0.1590
 7830W        W21244  12.956   5.146  10.161 -0.1937 -0.0680 -0.0206
 7831W        W21245  12.570   3.507  16.693  0.1479 -0.1775  0.2398
 7832W        W21246   5.256   6.115   4.074 -0.2902  0.3028 -0.2618
 7833W        W21247   3.359  12.055   2.885  0.1862  0.4278 -0.4255
 7834W        W21248   2.416  10.823   2.548  0.0164 -0.1618 -0.1435
 7835W        W21249  14.733   0.497   3.390  0.0013  0.0001 -0.1910
 7836W        W21250   2.117  16.331  11.956 -0.0431  0.0965  0.1164
 7837W        W21251  12.793  14.655  12.789  0.1290  0.0412  0.1515
 7838W        W21252   5.081   8.971  13.396 -0.1729 -0.1623 -0.1404
 7839W        W21253   4.387  10.035   4.143 -0.1074 -0.2744  0.1611
 7840W        W21254   9.672  10.256  16.172 -0.0830 -0.0068  0.0586
 7841W        W21255   4.692  14.188  12.612  0.0057 -0.2280  0.1025
 7842W        W21256   7.945   0.007   3.488 -0.0364  0.0556  0.3142
 7843W        W21257  11.232   0.181  12.032 -0.0284 -0.1341  0.0124
 7844W        W21258   4.584   1.418   4.585 -0.0776  0.1343  0.3750
 7845W        W21259  16.148   8.674  13.115  0.0333 -0.2217  0.1785
 7846W        W21260  10.542  15.519   3.093  0.1280  0.0034 -0.2763
 7847W        W21261  11.447   9.096   3.350  0.1459 -0.0037  0.0150
 7848W        W21262   0.529   1.526   2.445  0.1104 -0.0619 -0.4020
 7849W        W21263  11.895  12.356   2.668  0.1371 -0.2542  0.0205
 7850W        W21264   5.956   3.403   2.956  0.4864  0.1226 -0.0059
 7851W        W21265  16.835  16.691   2.282 -0.2746 -0.0717 -0.0340
 7852W        W21266  13.430  17.391   3.496 -0.0261 -0.1376 -0.1586
 7853W        W21267   8.434  15.938   0.676 -0.0283  0.0953  0.0289
 7854W        W21268  15.135   2.574   2.703  0.3386 -0.3089  0.1420
 7855W        W21269  17.566   8.324   1.813 -0.0262 -0.3596 -0.1115
 7856W        W21270  14.046  13.870  11.370  0.2023 -0.2969 -0.1448
 7857W        W21271   6.043   2.476  10.217 -0.0285  0.0457 -0.1130
 7858W        W21272   7.361   0.617   5.484  0.1464 -0.0283 -0.0962
 7859W        W21273  15.357   6.185   5.114  0.1843  0.1398  0.0977
 7860W        W21274  13.810   0.139  16.640  0.0632  0.1333 -0.0708
 7861W        W21275  12.129   7.311   3.945 -0.1703  0.1278  0.3972
 7862W        W21276   6.057   5.411   6.119 -0.0833  0.0282  0.2230
 7863W        W21277  10.737   9.173  10.967  0.2922  0.0799 -0.3568
 7864W        W21278  12.241   9.191  11.931 -0.0433  0.0629 -0.1660
 7865W        W21279   3.546  17.300   1.277 -0.0782 -0.1335  0.1798
 7866W        W21280   8.643  13.185   4.580  0.0276 -0.2481 -0.0703
 7867W        W21281  12.436   0.012   2.117 -0.0479 -0.0632 -0.2755
 7868W        W21282   3.946  15.993  15.866  0.0204 -0.0242 -0.1217
 7869W        W21283   8.383   5.422   1.139  0.2595 -0.2038  0.1212
 7870W        W21284   2.162   8.854   2.645 -0.1827  0.0603 -0.0582
 7871W        W21285  17.085  10.107  15.437  0.1892 -0.2527 -0.2084
 7872W        W21286  17.480   1.798   3.369 -0.0234 -0.0223  0.0574
 7873W        W21287   2.215   6.257  13.196 -0.0530 -0.1260  0.1580
 7874W        W21288  16.682   4.074  11.039 -0.1071 -0.2714 -0.1982
 7875W        W21289  17.640   0.974  13.310  0.0224  0.2217 -0.3973
 7876W        W21290   0.960   8.460  14.160 -0.2174 -0.1691 -0.0562
 7877W        W21291  15.151   8.277   4.644  0.0510  0.0741 -0.2073
 7878W        W21292  15.580  13.554   5.563  0.0766  0.2661  0.0257
 7879W        W21293  16.198  10.492  13.385 -0.0630 -0.3490  0.0829
 7880W        W21294  12.770   7.461  12.342 -0.4185 -0.0812 -0.0867
 7881W        W21295  15.090   3.112   1.557  0.0839 -0.0160 -0.0676
 7882W        W21296   6.358  14.229   5.966 -0.1518 -0.1795  0.0012
 7883W        W21297   2.776  11.194  13.214 -0.3222 -0.0436  0.0232
 7884W        W21298   1.218   4.382   0.527 -0.1773  0.1409  0.0609
 7885W        W21299   9.163   6.088   0.917 -0.0334 -0.1772  0.2274
 7886W        W21300   9.907   8.520   1.958  0.0855  0.2166  0.1594
 7887W        W21301   2.389  15.576  15.144 -0.1329 -0.2552 -0.0413
 7888W        W21302   8.498   4.592  15.601 -0.0067 -0.3649  0.1553
 7889W        W21303  10.891  11.581   4.196  0.0768  0.2863 -0.2148
 7890W        W21304  17.761  10.135   4.736  0.0935 -0.1765 -0.2082
 7891W        W21305   2.134  14.604   1.485  0.0410 -0.1526 -0.0557
 7892W        W21306   9.786  15.976  10.624  0.1075  0.1147 -0.0729
 7893W        W21307  17.814  12.307   0.686  0.1280 -0.0813  0.0046
 7894W        W21308   8.155  10.521  12.727  0.4066  0.0389  0.2648
 7895W        W21309  15.158   2.973   4.932 -0.1086  0.0535  0.1471
 7896W        W21310   5.450   4.209  16.570  0.1828 -0.0482  0.1510
 7897W        W21311  13.477  11.087   4.507  0.0493 -0.3121 -0.1041
 7898W        W21312  12.906   8.451   5.549  0.1665 -0.1482  0.1088
 7899W        W21313   6.481   7.755   2.520  0.1988  0.0328  0.2342
 7900W        W21314  12.141   2.785   4.966  0.1667 -0.0664 -0.0510
 7901W        W21315   1.127   8.060  13.814  0.0534 -0.0891 -0.2797
 7902W        W21316   5.682  12.631  15.579  0.3540  0.0486  0.0581
 7903W        W21317   8.415  15.514  16.663 -0.0510  0.2092 -0.2530
 7904W        W21318   6.715  12.980  12.940  0.1055  0.0625 -0.1365
 7905W        W21319   0.772   5.342  12.304  0.2568  0.2390 -0.1207
 7906W        W21320  16.580  14.435   3.021 -0.0690 -0.1149  0.2549
 7907W        W21321   4.910   3.946  15.897  0.0097  0.0712 -0.2406
 7908W        W21322   7.313  16.852   3.465 -0.0057 -0.2369  0.4572
 7909W        W21323   6.396   4.307  15.054 -0.1492 -0.3237 -0.0058
 7910W        W21324   4.093   3.397  15.585  0.4128  0.2077 -0.2019
 7911W        W21325   2.536   3.429  10.940 -0.2161  0.2473  0.2651
 7912W        W21326   1.974  10.570   1.243 -0.0516  0.0016  0.3571
 7913W        W21327   0.853   3.232  10.931  0.1266 -0.2370  0.2248
 7914W        W21328   1.486  12.281  14.329 -0.1245 -0.3902 -0.2429
 7915W        W21329   2.172   7.072  14.438  0.1108  0.0412  0.1180
 7916W        W21330  11.255  10.021  14.242 -0.2602  0.2688  0.0803
 7917W        W21331   6.355   0.383   2.201 -0.3558  0.1175  0.0336
 7918W        W21332  15.398  15.441   5.604 -0.0553 -0.1284  0.0344
 7919W        W21333   6.402  13.958  10.877 -0.0809  0.0540  0.0188
 7920W        W21334   6.518   8.241  14.782 -0.0453  0.0899  0.2407
 7921W        W21335   1.948   9.501   4.485 -0.2040  0.5173 -0.2057
 7922W        W21336   2.351  16.762  13.954  0.1621  0.0677 -0.1063
 7923W        W21337  11.991   5.990  16.655  0.2680 -0.2460  0.0423
 7924W        W21338   8.300   7.622   1.246 -0.0677  0.4803 -0.1356
 7925W        W21339   2.552   0.280   2.590  0.0844 -0.0638 -0.1157
 7926W        W21340  10.089   7.605  14.904  0.1861  0.3059  0.0054
 7927W        W21341   1.977   1.593   5.027  0.2592  0.0147 -0.2767
 7928W        W21342  17.392  12.666   4.723 -0.0872 -0.0727  0.1058
 7929W        W21343  13.773   2.566   1.259  0.2116 -0.0508 -0.1328
 7930W        W21344  16.624  15.401  15.267  0.3056  0.3347  0.0469
 7931W        W21345  17.222   4.529  14.763  0.0592 -0.1365 -0.1897
 7932W        W21346  14.337   6.927   4.778 -0.1342 -0.2289  0.1001
 7933W        W21347  13.972  13.907   2.501  0.2136  0.1981 -0.1771
 7934W        W21348   8.337  15.948   3.548  0.0308 -0.1619  0.1681
 7935W        W21349  15.473   3.090   1.869  0.2740 -0.0824  0.0054
 7936W        W21350   0.242   8.760   0.372 -0.0085  0.1152 -0.2009
 7937W        W21351  11.986  13.085  15.638  0.2276 -0.1168  0.0175
 7938W        W21352   9.964   5.113  14.726  0.1255 -0.2963  0.0702
 7939W        W21353   6.590   0.464  13.762  0.0049  0.0711 -0.0370
 7940W        W21354  15.815   9.030   0.954  0.1863 -0.0478  0.1549
 7941W        W21355   3.736  11.676   4.443 -0.0412 -0.3285 -0.1361
 7942W        W21356   1.902  15.474   3.453  0.1157  0.3911 -0.3995
 7943W        W21357   9.156   3.958  16.669 -0.2131 -0.0082 -0.1451
 7944W        W21358   6.663   7.540   6.740 -0.0691 -0.1203 -0.2266
 7945W        W21359  17.571   7.185   3.276  0.2338 -0.1073  0.4856
 7946W        W21360   1.777   7.123  11.717 -0.1962 -0.1321  0.0657
 7947W        W21361   0.697   1.633  11.741 -0.1372  0.1428 -0.1627
 7948W        W21362  15.476  13.681   3.183 -0.1971  0.1177 -0.0309
 7949W        W21363   2.128   8.743   6.049  0.3968  0.0593  0.0565
 7950W        W21364   1.010   7.295   4.416  0.1095  0.0697  0.1531
 7951W        W21365   8.063  14.104  12.027 -0.1525 -0.0089  0.0044
 7952W        W21366  16.037   7.879  14.151  0.0414 -0.1050  0.0777
 7953W        W21367  12.416   7.679   1.351 -0.0895  0.3495 -0.0566
 7954W        W21368   5.565  11.711  15.560  0.0541  0.0264  0.2246
 7955W        W21369   7.484  11.189   1.553 -0.1077 -0.2860 -0.0534
 7956W        W21370   0.459   6.252   3.010 -0.0430  0.0517  0.3136
 7957W        W21371   1.569  13.106   4.164 -0.0755  0.0564 -0.0484
 7958W        W21372  10.168  13.040  14.980  0.0639  0.0545  0.1016
 7959W        W21373  16.244  12.328   6.222  0.4958 -0.0449  0.0027
 7960W        W21374   8.087  16.983   3.716 -0.2080 -0.3877 -0.2437
 7961W        W21375  10.360  15.664   5.323 -0.0765  0.1325  0.3022
 7962W        W21376  17.839   6.536   2.009 -0.0924  0.2101 -0.0186
 7963W        W21377  14.986  14.639   4.597 -0.1378 -0.3336 -0.2496
 7964W        W21378  16.416   1.612  13.998 -0.1781 -0.0535  0.1664
 7965W        W21379  15.746  17.314  13.110  0.1641  0.0280  0.1263
 7966W        W21380   3.998   0.649  14.419  0.2144 -0.0058 -0.0334
 7967W        W21381   5.344  13.860   1.916  0.0790  0.0715 -0.0325
 7968W        W21382  10.680  10.669  13.145  0.1964  0.2644  0.0871
 7969W        W21383   3.188   6.619  16.475  0.1666  0.3519 -0.0266
 7970W        W21384   0.842  16.743  16.747 -0.0566  0.2134 -0.0435
 7971W        W21385  17.454  11.033  11.449 -0.2365 -0.4425  0.2214
 7972W        W21386  17.096   2.256   0.126  0.3390 -0.0648  0.0212
 7973W        W21387  10.412  15.554  15.423  0.1110 -0.2151  0.0777
 7974W        W21388  15.712   8.881  16.696 -0.1483  0.0740 -0.2294
 7975W        W21389   4.598   8.487   1.692 -0.3996 -0.2936 -0.0244
 7976W        W21390  13.926  16.214   4.064  0.1329 -0.0211  0.1846
 7977W        W21391  16.407  16.544  11.842 -0.0933 -0.1530  0.1259
 7978W        W21392   7.321  12.434  10.974  0.0126  0.0318  0.0778
 7979W        W21393  15.263  12.911   6.855  0.0357  0.0413  0.3163
 7980W        W21394   9.537   5.056   5.260  0.0325  0.0536  0.0112
 7981W        W21395  11.124  14.830   3.671  0.0654  0.1711 -0.0590
 7982W        W21396  11.073  14.441   0.601  0.0147 -0.0964  0.2449
 7983W        W21397  12.246  11.752   1.484 -0.0175 -0.2541  0.2119
 7984W        W21398   5.257  16.883   0.718 -0.2720  0.1731 -0.3419
 7985W        W21399  15.178  15.271   3.940  0.2475 -0.0761 -0.2654
 7986W        W21400  15.304   4.303   2.859 -0.2479  0.2118 -0.0823
 7987W        W21401  14.764  13.869   1.356  0.1825 -0.0961 -0.0245
 7988W        W21402   0.990  10.337  12.113  0.0738 -0.0463 -0.0170
 7989W        W21403  11.380  13.907   5.171  0.0608  0.0591 -0.0982
 7990W        W21404  14.372   5.660  13.166 -0.0695 -0.0656  0.2117
 7991W        W21405   6.529  14.928  11.825 -0.0020  0.3605  0.0233
 7992W        W21406   2.720   2.947  11.575 -0.0177 -0.1884 -0.1819
 7993W        W21407  17.550  15.832  16.116  0.0171 -0.3827  0.1735
 7994W        W21408   8.397  10.199  14.356 -0.2068 -0.0889 -0.0803
 7995W        W21409   4.557   9.729   1.412  0.3263  0.0133  0.3610
 7996W        W21410   7.762  12.542   2.383 -0.1600 -0.2712  0.0331
 7997W        W21411  11.941   4.917   5.439 -0.0438 -0.0898  0.1240
 7998W        W21412  17.165  13.963  14.008  0.2561 -0.1215  0.2169
 7999W        W21413   2.408   1.908  15.853 -0.1045 -0.3763  0.0863
 8000W        W21414   8.955  12.844   2.917 -0.2653 -0.2720  0.2915
 8001W        W21415   0.597   4.792   1.356  0.0015  0.1518 -0.3856
 8002W        W21416   5.354  11.476  10.350  0.0382 -0.2780  0.1780
 8003W        W21417   6.501   7.841  13.885  0.0420 -0.1151 -0.0881
 8004W        W21418   3.515  11.422   3.464 -0.2585  0.3765 -0.1439
 8005W        W21419   1.000   2.361   4.967 -0.0038 -0.2113 -0.0322
 8006W        W21420  15.663  13.433  13.562  0.0410 -0.1664  0.3165
 8007W        W21421   0.270  15.235   3.844  0.0373 -0.5206 -0.2921
 8008W        W21422  13.658  10.894   3.133  0.2832 -0.1399 -0.1057
 8009W        W21423   8.035   6.797   1.907  0.0281  0.1461 -0.2500
 8010W        W21424   4.588   3.481   1.681 -0.0475 -0.1394 -0.0953
 8011W        W21425  10.618   1.775  14.679  0.2516  0.0164 -0.1446
 8012W        W21426  10.076   0.570   4.657  0.0691  0.1270  0.1202
 8013W        W21427  15.439   8.680   4.609  0.0729 -0.1012 -0.0932
 8014W        W21428   5.674  17.388  15.817  0.1124  0.0222 -0.3619
 8015W        W21429  16.437  13.892   5.255  0.0871  0.3705 -0.0280
 8016W        W21430  16.949   6.130   3.427  0.0335 -0.1658  0.2242
 8017W        W21431  17.765   9.406  11.450 -0.3958 -0.4151 -0.1739
 8018W        W21432   0.650   9.468  13.066 -0.2348 -0.1070 -0.2137
 8019W        W21433   8.273   2.232  16.542  0.1321  0.0956 -0.1867
 8020W        W21434   6.882   5.216  14.789  0.0503  0.1855  0.0948
 8021W        W21435  13.824  14.111   5.476 -0.0003 -0.2994  0.3884
 8022W        W21436  15.855   6.706   1.635  0.1694 -0.4979 -0.3204
 8023W        W21437   5.129   5.293  12.348 -0.0636 -0.0575 -0.0452
 8024W        W21438   7.979   8.837   4.775  0.2319 -0.1536  0.2091
 8025W        W21439  15.698   4.250  12.152  0.3123  0.0045  0.2388
 8026W        W21440   5.918   9.464   0.428  0.0370 -0.2362  0.0395
 8027W        W21441   7.771  16.542  15.851  0.1201 -0.0623 -0.1246
 8028W        W21442   7.444   2.694  16.783  0.3991 -0.0715 -0.1931
 8029W        W21443   9.516   1.677  14.855  0.0280  0.0384  0.0156
 8030W        W21444  17.455  15.782  14.842 -0.2196 -0.0722  0.0708
 8031W        W21445   2.711  17.238  11.264 -0.1366  0.0326 -0.2221
 8032W        W21446   2.311  16.759   1.903 -0.2104 -0.0393 -0.2303
 8033W        W21447   1.538  14.454   4.459  0.1591  0.1498  0.0694
 8034W        W21448   5.398   1.582   5.598 -0.2398 -0.0099 -0.1349
 8035W        W21449   2.609   9.599   4.299 -0.2170 -0.0905  0.1475
 8036W        W21450  13.778   2.653  15.702  0.1918 -0.1657  0.0225
 8037W        W21451   2.952   2.915   1.067  0.1019 -0.4399  0.0557
 8038W        W21452   9.540  13.360   3.757  0.0041  0.0847  0.3070
 8039W        W21453   5.347  12.744   4.298 -0.1178  0.0511  0.0132
 8040W        W21454  10.152  12.368  11.580  0.0093 -0.1828 -0.0238
 8041W        W21455   6.190  12.147  16.391  0.1670 -0.3142 -0.1387
 8042W        W21456   5.040  10.989   1.146  0.3676 -0.0464 -0.1633
 8043W        W21457   4.451   0.377  15.110 -0.2876 -0.0463  0.1268
 8044W        W21458   9.711   0.218  14.100 -0.1719  0.0351 -0.0186
 8045W        W21459  17.231  11.143  13.979  0.0406 -0.0941  0.0251
 8046W        W21460   1.510  13.218   1.387  0.1829  0.1308 -0.1534
 8047W        W21461  16.105   8.320  16.124 -0.0950  0.2336 -0.2186
 8048W        W21462   1.207   0.721   2.318 -0.0580  0.0973  0.0054
 8049W        W21463  10.472  13.780   4.323  0.0990  0.1514 -0.4524
 8050W        W21464  11.648   2.310  12.386 -0.0499 -0.0061 -0.0974
 8051W        W21465  15.872   5.749   3.588  0.0210 -0.1073 -0.0345
 8052W        W21466   2.507   4.494   6.410 -0.3026  0.0726 -0.2453
 8053W        W21467  10.087  11.855   1.147  0.0729  0.1019 -0.2665
 8054W        W21468   2.909  13.408  11.054  0.1386  0.0366  0.1222
 8055W        W21469   5.845  11.406   1.016  0.0077 -0.0719 -0.2860
 8056W        W21470  17.921  15.056  16.491  0.0252  0.0954  0.1632
 8057W        W21471  13.929  13.228   6.046 -0.0691 -0.0418 -0.1405
 8058W        W21472   9.251  13.440  13.395  0.2122 -0.0027  0.0477
 8059W        W21473  12.457  13.420   3.379  0.0336 -0.0769 -0.2032
 8060W        W21474   9.530   7.721   2.423  0.0653  0.1008 -0.0280
 8061W        W21475  15.100   4.794  15.775 -0.2683 -0.0452 -0.0474
 8062W        W21476  16.572   0.056   0.064  0.0899  0.1618 -0.0166
 8063W        W21477  11.414   5.392   2.822 -0.2389 -0.0466 -0.0849
 8064W        W21478  17.749  15.308  12.686 -0.2124  0.4437  0.2545
 8065W        W21479   9.711  11.105  12.338 -0.1290 -0.3605  0.2164
 8066W        W21480   2.898   0.202  12.090 -0.0201 -0.0114  0.0040
 8067W        W21481   7.958  11.881   5.022  0.0571  0.0848  0.2717
 8068W        W21482   9.374  10.616   2.836  0.0949 -0.0237  0.0721
 8069W        W21483  12.714   7.972   3.272  0.1629 -0.0443 -0.0244
 8070W        W21484  16.367  14.846  13.685 -0.1957  0.0536  0.1693
 8071W        W21485  10.125   4.447   0.658  0.1629  0.0942  0.5032
 8072W        W21486  16.426   9.953  10.655 -0.2700  0.1406 -0.0745
 8073W        W21487  12.566  16.067   3.949  0.0233  0.3859 -0.1458
 8074W        W21488  16.618   2.262  15.761 -0.1792  0.0194 -0.1787
 8075W        W21489  10.704   6.965   1.349  0.3003 -0.0428  0.0651
 8076W        W21490  16.363   8.650   4.946 -0.1405 -0.1913  0.1282
 8077W        W21491  15.424   6.897  12.372 -0.0965 -0.0465 -0.0873
 8078W        W21492  13.078   8.273   1.437  0.1084  0.1546  0.0572
 8079W        W21493   4.901  16.572  11.968 -0.2452 -0.0165 -0.0482
 8080W        W21494   6.869   9.716   1.375  0.0637 -0.2292 -0.0640
 8081W        W21495   1.840   5.361   3.184  0.1034  0.1341 -0.0194
 8082W        W21496  10.934   2.257   0.555 -0.0815  0.0111  0.0970
 8083W        W21497   3.467  13.153  13.533  0.2394 -0.2777 -0.0958
 8084W        W21498   5.284  13.581   5.276 -0.1554 -0.1985 -0.0764
 8085W        W21499  14.829  17.758  15.207 -0.1575 -0.0338  0.2794
 8086W        W21500  16.431   6.283   3.527  0.0983  0.1519 -0.1648
 8087W        W21501  15.546  15.878   0.468  0.0441 -0.0130 -0.1629
 8088W        W21502  13.683  13.682   2.090  0.0242 -0.2289 -0.0788
 8089W        W21503   8.577   2.162   3.301  0.0163 -0.0013  0.0614
 8090W        W21504  12.320   3.357   2.731 -0.2837  0.1009  0.2330
 8091W        W21505  15.129   0.547   4.705 -0.0309 -0.1017 -0.0681
 8092W        W21506  15.950   2.952  12.343 -0.2453  0.1427  0.0727
 8093W        W21507   0.378   6.905   2.862  0.0958 -0.3386 -0.0482
 8094W        W21508  12.273   4.235   4.337  0.0769  0.3853 -0.0400
 8095W        W21509   2.099  15.152  16.737  0.1149  0.0661  0.0864
 8096W        W21510   1.901   6.414   0.363 -0.0992 -0.2198  0.1146
 8097W        W21511   1.507  15.342   2.395 -0.0951 -0.0749  0.3557
 8098W        W21512   3.015   9.997  12.916  0.1074  0.1705 -0.0230
 8099W        W21513   5.988  13.982   0.541  0.0860 -0.2221  0.3174
 8100W        W21514  14.840  10.584   6.425  0.1810  0.0893 -0.1110
 8101W        W21515   8.895   4.776  13.939  0.1903 -0.0522  0.0828
 8102W        W21516   3.621  16.408  12.295  0.0954  0.0388 -0.2081
 8103W        W21517   7.816  12.895   6.527 -0.4919 -0.1393  0.0219
 8104W        W21518  15.442   1.751   1.613 -0.4061 -0.0824  0.0524
 8105W        W21519   5.720   2.140  13.600 -0.0076 -0.2302 -0.4271
 8106W        W21520  10.054   8.947  14.244 -0.2112  0.1304 -0.2275
 8107W        W21521  16.135  11.650  12.499  0.1081  0.0695  0.1676
 8108W        W21522  17.830   8.209   5.605 -0.3045  0.1263 -0.0500
 8109W        W21523   9.204  16.315  15.002 -0.0713  0.0026 -0.1738
 8110W        W21524   1.007   5.769  10.722 -0.1352 -0.1208 -0.1682
 8111W        W21525  10.039  15.285   3.681  0.0087  0.0166 -0.1859
 8112W        W21526   2.246   0.417  11.347  0.1119 -0.2420 -0.1219
 8113W        W21527   3.897   2.095  10.981  0.0560  0.0901 -0.1526
 8114W        W21528  10.671   3.499  11.017 -0.1569  0.2443 -0.3288
 8115W        W21529   5.562  10.102  16.528  0.1390  0.0564 -0.0308
 8116W        W21530  16.377   7.765   4.234  0.1188  0.2624 -0.3300
 8117W        W21531  15.262  13.391  10.807 -0.1874 -0.1014  0.1664
 8118W        W21532  13.934   9.072  16.469 -0.1334 -0.1090  0.1644
 8119W        W21533  15.379   8.696   1.408 -0.1195  0.0216 -0.1807
 8120W        W21534   7.316   3.885  14.887  0.2231 -0.2778 -0.0172
 8121W        W21535   5.653   0.771  14.622  0.0386  0.0066 -0.0908
 8122W        W21536   4.624   9.074   2.197  0.1266 -0.1125  0.0646
 8123W        W21537  11.405   4.003   0.433 -0.1721  0.0280  0.2370
 8124W        W21538   7.254  16.839  13.730 -0.2560  0.0015  0.2333
 8125W        W21539  12.272   1.912   5.296 -0.2859 -0.3893  0.1819
 8126W        W21540   4.259   1.314  12.333  0.0675  0.1148 -0.0604
 8127W        W21541   0.297  13.143   3.811  0.0727  0.1043  0.2301
 8128W        W21542  12.513   1.620  13.446  0.0220 -0.3213 -0.1469
 8129W        W21543  12.462   0.118  14.460 -0.0101 -0.1114  0.2261
 8130W        W21544  13.050   9.218   2.315 -0.2214 -0.0238 -0.0074
 8131W        W21545  17.657  10.640   3.202 -0.0279  0.2542 -0.3005
 8132W        W21546   6.549   6.700   3.849  0.0345  0.4578 -0.1809
 8133W        W21547  15.993   5.527  13.500 -0.1120 -0.0464 -0.0504
 8134W        W21548   5.106   6.005   0.683 -0.0213  0.3291 -0.2623
 8135W        W21549  16.691   2.960  10.824  0.1298  0.1450 -0.2437
 8136W        W21550  16.741   0.729   1.382  0.0804 -0.2811  0.1338
 8137W        W21551  16.747   5.224  13.826 -0.1161  0.0606  0.0190
 8138W        W21552   5.217   0.997   2.379 -0.0320 -0.1633  0.0265
 8139W        W21553   9.219   5.691  10.286 -0.0546 -0.1300  0.1334
 8140W        W21554   7.666   3.674   2.990  0.2655 -0.4390  0.1586
 8141W        W21555  11.032  16.011  12.815 -0.0572  0.1377 -0.0046
 8142W        W21556  11.536  17.415   5.921 -0.2842  0.0707  0.0352
 8143W        W21557  10.622  17.813  14.588 -0.1449 -0.0018  0.0115
 8144W        W21558   2.442   8.896   2.242  0.0268 -0.0151  0.1703
 8145W        W21559  13.635   6.168   3.672  0.0835  0.0881  0.1430
 8146W        W21560   6.137   6.337   6.045  0.0357 -0.0330 -0.4384
 8147W        W21561   8.586  11.802   3.376 -0.1646  0.1589 -0.4384
 8148W        W21562   0.489  13.245  15.907 -0.3047  0.1845 -0.0740
 8149W        W21563  14.754  16.274   0.141 -0.2253 -0.1823 -0.1886
 8150W        W21564   9.522  16.331   5.353  0.1398 -0.0026  0.3359
 8151W        W21565  10.174  13.350  13.936  0.3015 -0.2626 -0.0024
 8152W        W21566   7.701   2.396   4.846 -0.0023  0.0376  0.0351
 8153W        W21567  11.770  10.589  15.460 -0.0539 -0.0010  0.0990
 8154W        W21568  10.976   4.656  11.951 -0.1714 -0.3013 -0.1180
 8155W        W21569  15.071   2.845   9.994  0.0616 -0.2923  0.1014
 8156W        W21570   1.776  12.895   2.232 -0.0406  0.2436  0.3094
 8157W        W21571   8.985   6.170  10.124 -0.0165 -0.1978  0.2709
 8158W        W21572   9.545   4.620   0.956 -0.1858  0.3725 -0.2561
 8159W        W21573   1.152   3.060  16.189  0.1215  0.2587  0.2100
 8160W        W21574   7.484   9.550   0.599 -0.0509  0.0166  0.0844
 8161W        W21575   9.718  12.036   5.727  0.0468  0.0118  0.1461
 8162W        W21576  15.402   8.702   2.319  0.1264  0.0895  0.2973
 8163W        W21577   4.685   8.194  14.257 -0.3036 -0.0457 -0.1725
 8164W        W21578   9.438  17.689  10.754 -0.0914  0.0831 -0.0960
 8165W        W21579  16.186   6.463  10.916 -0.3160 -0.0030  0.2089
 8166W        W21580  13.489   3.469  14.523  0.0231  0.1083 -0.3177
 8167W        W21581  15.994   8.680  15.267 -0.1929 -0.0711 -0.1183
 8168W        W21582   8.758  11.725   2.167 -0.0974 -0.1206  0.3360
 8169W        W21583   4.234   9.279   3.568 -0.1533  0.1096 -0.0892
 8170W        W21584   7.098   5.713  14.945 -0.0596 -0.2444 -0.0321
 8171W        W21585   6.595   3.241  12.920  0.0083 -0.0496 -0.3570
 8172W        W21586   0.305  15.376  16.692 -0.0501  0.1624 -0.0489
 8173W        W21587  11.459   3.122   5.119 -0.0018  0.0921  0.0812
 8174W        W21588  16.763   9.881   0.099 -0.1636  0.2062 -0.0606
 8175W        W21589   6.874  13.333   0.405  0.0984 -0.1520  0.0412
 8176W        W21590  13.030   9.174   5.062 -0.1448  0.2466  0.0796
 8177W        W21591  10.648   5.939   1.551 -0.1439 -0.2604  0.1679
 8178W        W21592   9.753  12.861   4.639 -0.4725 -0.2676 -0.0214
 8179W        W21593  16.750  15.518   2.441  0.3297  0.0679 -0.0975
 8180W        W21594   9.319  17.393  13.007 -0.1023 -0.1324  0.1131
 8181W        W21595  10.676  10.146   2.714  0.0436  0.3039 -0.0344
 8182W        W21596  14.943  14.873  15.928 -0.2776  0.1645  0.1925
 8183W        W21597  12.368  11.380  15.707 -0.0009 -0.3136 -0.1540
 8184W        W21598   8.603  10.882  15.740 -0.1898 -0.0989 -0.1726
 8185W        W21599  15.551  17.667   5.715 -0.2028  0.0613  0.1130
 8186W        W21600  15.336  11.911   2.129  0.0776  0.0955 -0.0608
 8187W        W21601  12.703  17.838  12.100  0.0907 -0.0451  0.2759
 8188W        W21602   0.326   8.643   2.473 -0.0540 -0.4111  0.3995
 8189W        W21603  15.184   3.416  13.544  0.1141  0.1341  0.0003
 8190W        W21604  17.278  10.035   1.898 -0.2051 -0.3016  0.1951
 8191W        W21605   9.191   3.889  15.084  0.0954  0.0602  0.2560
 8192W        W21606  14.812   4.582   1.132  0.1846  0.1836  0.1136
 8193W        W21607   4.274   8.271   0.316  0.3150 -0.1443 -0.4288
 8194W        W21608   4.502   6.246  13.400  0.1804 -0.1228  0.2220
 8195W        W21609   5.828  12.545   2.249  0.0610 -0.2392  0.2275
 8196W        W21610   6.851   9.074  13.370 -0.3452  0.1952  0.2158
 8197W        W21611  15.728  11.026   6.052 -0.3592 -0.0797  0.0106
 8198W        W21612   6.750  11.118   4.031 -0.3226 -0.0604  0.0575
 8199W        W21613   9.777   7.262  10.239 -0.3004  0.3634 -0.1467
 8200W        W21614  13.224   2.753   3.017 -0.1099 -0.1541 -0.0772
 8201W        W21615   4.710   5.788  13.302 -0.1119 -0.1197 -0.0293
 8202W        W21616   6.486  13.786  12.739 -0.0130  0.1754 -0.0161
 8203W        W21617   7.893   5.518   0.424  0.0276 -0.2946  0.1316
 8204W        W21618  12.844  12.849  12.366  0.1771 -0.2283 -0.1202
 8205W        W21619  17.840  13.831   4.280  0.4912  0.1396  0.1292
 8206W        W21620  17.199   4.823  16.460 -0.2101  0.1816 -0.2005
 8207W        W21621   0.974   1.685  13.163  0.0675  0.2407 -0.4401
 8208W        W21622  13.152   0.821   5.146  0.1530  0.1917 -0.1286
 8209W        W21623  11.894  15.424   3.204  0.5652  0.4079 -0.1387
 8210W        W21624   1.220   6.767   5.465 -0.0822 -0.0792  0.1034
 8211W        W21625  10.875   5.483   0.385  0.0527  0.2198 -0.0910
 8212W        W21626  11.142   2.848   2.224 -0.3063  0.0479  0.0951
 8213W        W21627  11.485   1.433   1.485 -0.2716  0.1187 -0.0392
 8214W        W21628   4.000   5.838  13.678  0.3120 -0.3656 -0.2126
 8215W        W21629  14.427  14.942   6.934 -0.3764 -0.1437 -0.0789
 8216W        W21630   0.153   7.736   6.186  0.3047 -0.1243  0.1423
 8217W        W21631   8.348  14.084   1.679  0.0251  0.1721  0.1541
 8218W        W21632   8.191  17.109   1.724  0.0830  0.0594  0.2498
 8219W        W21633   1.631  14.447   2.067  0.2235  0.0915 -0.1396
 8220W        W21634  10.841  14.597  16.024 -0.0511 -0.0098  0.1454
 8221W        W21635   7.319  17.494   0.531 -0.1744  0.3174  0.1254
 8222W        W21636  13.970  15.338  13.945 -0.1373 -0.1721 -0.0316
 8223W        W21637   2.368   6.945   2.320 -0.2524  0.2307  0.0765
 8224W        W21638   0.470   5.316  10.120  0.0334  0.3303  0.3216
 8225W        W21639   5.951  14.232  16.079  0.1003 -0.0551 -0.4219
 8226W        W21640   3.313   9.887   5.970 -0.1048  0.0848 -0.2360
 8227W        W21641  17.176  13.244  11.768 -0.2401  0.3453  0.2281
 8228W        W21642   7.989  11.448   4.499 -0.0540 -0.0713 -0.2860
 8229W        W21643   8.181  17.608  11.246  0.4201  0.1607 -0.1315
 8230W        W21644   9.785  10.567   0.090 -0.1765 -0.0064 -0.0060
 8231W        W21645   8.455   6.489  12.089 -0.1081  0.0281 -0.1753
 8232W        W21646  17.051   7.386   6.525 -0.1877  0.4027  0.1271
 8233W        W21647  16.364   1.974  15.225  0.1450  0.0725  0.1619
 8234W        W21648  12.373   5.794  12.550 -0.0466  0.2097  0.0024
 8235W        W21649   1.069  16.118  15.651  0.1006 -0.3615  0.1868
 8236W        W21650  12.245  15.639   4.647  0.1473 -0.1814 -0.1659
 8237W        W21651  11.831   5.359   1.033  0.0825 -0.1731  0.1447
 8238W        W21652  10.003   6.657  13.245 -0.2564 -0.1611  0.0775
 8239W        W21653   1.066  13.014   1.573  0.2902 -0.0576  0.0295
 8240W        W21654   5.067   1.500   2.202 -0.2260  0.1769  0.0203
 8241W        W21655  12.838   6.200   2.309  0.1480 -0.0458  0.0768
 8242W        W21656   1.020   4.661   3.552  0.0934 -0.3777 -0.1564
 8243W        W21657   2.200   0.835   4.891 -0.1603 -0.1330  0.0699
 8244W        W21658   9.338   0.112   4.151  0.0875 -0.3816 -0.0875
 8245W        W21659   7.547   0.644  16.498 -0.1197  0.1440 -0.0364
 8246W        W21660  12.942   2.363   0.931 -0.0014  0.2605  0.1919
 8247W        W21661  13.058   4.240   0.101  0.2165 -0.1423  0.2198
 8248W        W21662   2.371  10.680  13.788  0.0903  0.4625 -0.0234
 8249W        W21663  13.130  15.293   1.823 -0.1005 -0.0564  0.0040
 8250W        W21664   8.996   7.702  11.026 -0.2124  0.1328 -0.0191
 8251W        W21665  10.195   4.404  13.107  0.1386 -0.0261  0.2324
 8252W        W21666  16.758   9.384  11.068 -0.0661 -0.0973  0.0021
 8253W        W21667   6.283   3.887  11.194  0.1291 -0.0468  0.0965
 8254W        W21668   7.055   6.508  11.354  0.1229  0.0143  0.0887
 8255W        W21669   4.804  10.105  12.441  0.1695  0.1114 -0.0950
 8256W        W21670  16.216  13.945   1.258 -0.5649  0.2746 -0.0854
 8257W        W21671  13.207  15.822   4.503  0.2466  0.2500 -0.0428
 8258W        W21672   2.854  12.992   1.510 -0.3321 -0.1044 -0.0024
 8259W        W21673   9.237  14.685   6.283 -0.2147  0.3000 -0.0561
 8260W        W21674   4.525   7.870   1.055 -0.2397  0.1690  0.2797
 8261W        W21675   2.527   3.272  11.949  0.1052 -0.1580 -0.1203
 8262W        W21676  16.043  14.831  11.919 -0.4443 -0.0589 -0.3930
 8263W        W21677  10.796  15.454   0.492  0.0156  0.2295 -0.0057
 8264W        W21678   7.992   6.674  15.978  0.3059 -0.0444 -0.0720
 8265W        W21679  15.885   4.612   4.250 -0.0356  0.3076  0.0960
 8266W        W21680  14.510  15.388   4.425  0.1433 -0.1267 -0.1154
 8267W        W21681  17.381   0.095  13.426  0.0554  0.0966  0.2710
 8268W        W21682  12.287   8.538  16.427  0.0477 -0.1418  0.0133
 8269W        W21683  12.604  14.663  13.307  0.0608  0.1394 -0.0527
 8270W        W21684   6.149   6.207  15.705 -0.3013 -0.1576  0.1604
 8271W        W21685   5.419  14.320   4.177 -0.4631  0.0381 -0.3303
 8272W        W21686   3.944   2.368  15.406  0.0888  0.1266 -0.1918
 8273W        W21687   7.788  14.633  13.817  0.5647 -0.3469  0.0272
 8274W        W21688  11.154   0.047  16.266 -0.0251 -0.1706 -0.0548
 8275W        W21689  14.118   4.408   5.042 -0.0341 -0.2769  0.3126
 8276W        W21690   6.911  14.399  14.902 -0.1371 -0.0221 -0.1353
 8277W        W21691   4.434  11.753  14.887  0.0330  0.0657  0.0116
 8278W        W21692   3.623   3.500  12.513  0.0299  0.3250 -0.3679
 8279W        W21693   6.860   1.162  14.815 -0.0032 -0.2580  0.1532
 8280W        W21694  14.598   5.641   5.440  0.0268 -0.1548  0.1997
 8281W        W21695   6.725   9.265  15.654  0.1767 -0.0398 -0.3304
 8282W        W21696   8.268   1.581  11.641 -0.0568 -0.1032 -0.0302
 8283W        W21697   5.409   2.341  11.504  0.1698  0.2964  0.0630
 8284W        W21698  11.745   0.439  13.126  0.1407  0.2269 -0.0124
 8285W        W21699   9.741   2.874  12.393 -0.0882 -0.2834 -0.0557
 8286W        W21700   9.924  16.144  13.621  0.0060 -0.1610  0.2535
 8287W        W21701   9.012   1.347   1.562 -0.2795 -0.2801 -0.2880
 8288W        W21702   3.989  11.792   4.934  0.3791  0.0724  0.0533
 8289W        W21703  14.344   4.916  13.977 -0.0823 -0.0052 -0.0680
 8290W        W21704   2.770   1.604   0.181 -0.0943  0.2029  0.2041
 8291W        W21705   5.404  14.885  16.190 -0.0860 -0.2111  0.1093
 8292W        W21706   8.512  14.350   1.117  0.1325 -0.1731  0.0671
 8293W        W21707   3.052   5.677  12.679  0.0948 -0.1269 -0.1773
 8294W        W21708   8.750  12.726  14.611 -0.1046  0.0338 -0.0026
 8295W        W21709  12.372   5.707  16.682 -0.0422  0.2714  0.0829
 8296W        W21710   3.200   7.610   4.711 -0.1486 -0.3244  0.0720
 8297W        W21711  16.541  13.151  16.012 -0.1452 -0.1954  0.2779
 8298W        W21712  11.929   8.723  14.487  0.1639  0.1160  0.1224
 8299W        W21713   2.916   5.345   2.599  0.0233 -0.0352  0.0325
 8300W        W21714   5.985  13.726   1.962 -0.1745  0.1541 -0.2740
 8301W        W21715  12.364  13.391   2.827  0.3700  0.0195 -0.0032
 8302W        W21716  14.928  12.384   7.108 -0.1188 -0.0967 -0.0208
 8303W        W21717   7.500  10.894  16.302  0.1724 -0.0436  0.2914
 8304W        W21718  10.140   3.235  13.046 -0.4195  0.0963 -0.3311
 8305W        W21719  16.827   2.340   3.297  0.2301  0.0337 -0.3659
 8306W        W21720  10.236  13.421   2.979  0.2581  0.1355  0.0664
 8307W        W21721   1.877  13.145   2.731 -0.2178  0.0731  0.3337
 8308W        W21722  13.279   3.914  15.378 -0.1161  0.0781 -0.4203
 8309W        W21723  15.108   9.327  11.988 -0.0256  0.0052  0.0152
 8310W        W21724   9.044  17.907  14.213 -0.0296  0.2250  0.0329
 8311W        W21725   5.037  14.208   2.260 -0.0023 -0.0293  0.0655
 8312W        W21726  15.893   4.047   5.457  0.1028 -0.0404  0.2103
 8313W        W21727   9.362  10.626   0.522 -0.0532 -0.0391 -0.0017
 8314W        W21728  11.398  17.455   2.908 -0.3447  0.0023  0.0158
 8315W        W21729   3.008  14.394   2.444 -0.0801 -0.0880  0.1495
 8316W        W21730   3.274   0.699   4.544 -0.0514 -0.1289 -0.0217
 8317W        W21731   9.938  11.240   1.661  0.0455  0.0691  0.1239
 8318W        W21732  16.023   5.077  12.207 -0.5430 -0.2396 -0.0561
 8319W        W21733   7.608   8.813   2.793 -0.4366 -0.0020 -0.1010
 8320W        W21734   0.211   5.121   5.175  0.2708 -0.0736  0.0700
 8321W        W21735   6.988   0.049   4.942  0.0040 -0.3058 -0.0909
 8322W        W21736   3.855  14.320   9.693  0.0185  0.4429 -0.1656
 8323W        W21737   3.444  16.825   0.069 -0.2208  0.1201  0.0619
 8324W        W21738   2.108   0.929  11.146 -0.1072  0.3175 -0.0071
 8325W        W21739   2.665  17.073   1.679 -0.0067 -0.0316  0.1667
 8326W        W21740  10.329  14.129   6.364 -0.0692 -0.0748 -0.0037
 8327W        W21741  13.437   8.800   2.496 -0.0545  0.0064  0.0921
 8328W        W21742  16.346   5.721  12.219  0.1608 -0.0479  0.0148
 8329W        W21743   7.919   9.020   3.977  0.0892 -0.0690  0.2870
 8330W        W21744  13.273   9.588   5.277 -0.3474 -0.0231  0.1220
 8331W        W21745   6.045  11.575  13.741  0.0543  0.1555  0.1102
 8332W        W21746   6.277   3.131  16.252  0.2786 -0.2140 -0.2077
 8333W        W21747  15.367  11.600  16.339  0.0328 -0.2814  0.1030
 8334W        W21748   4.823   5.957  12.064  0.0024 -0.1522 -0.0157
 8335W        W21749  15.140   0.709  10.433  0.1180  0.0732  0.0994
 8336W        W21750   3.845   0.750  16.031  0.1148  0.2320 -0.1115
 8337W        W21751   3.492  12.576  13.550  0.0333  0.1798 -0.0217
 8338W        W21752   6.780   2.333   0.431 -0.4163  0.2176 -0.1459
 8339W        W21753  15.632   5.718  12.689  0.1378 -0.0400  0.0774
 8340W        W21754   3.326   7.844   0.596  0.0513  0.2407  0.0280
 8341W        W21755  12.035  16.483   1.778 -0.2220 -0.0855 -0.2046
 8342W        W21756   0.430   0.546  12.773 -0.1096 -0.2015 -0.1375
 8343W        W21757   0.905  16.632   1.749 -0.1923  0.0880 -0.0566
 8344W        W21758   0.341   4.702  11.944  0.1779 -0.1003  0.1880
 8345W        W21759   2.081  15.124  15.836  0.0102  0.0844 -0.1704
 8346W        W21760   6.778   9.604  16.011  0.1650 -0.0822 -0.0445
 8347W        W21761   5.231   9.165  14.236 -0.0588  0.0022  0.0265
 8348W        W21762   1.328   1.027   4.904  0.1237  0.1529  0.1421
 8349W        W21763  13.224  11.966  13.539  0.0210  0.4756  0.0306
 8350W        W21764  12.011   8.654  15.967 -0.2161 -0.1601 -0.1121
 8351W        W21765  12.209   3.434   3.654 -0.1156  0.0050  0.3084
 8352W        W21766  11.949  17.258  11.544 -0.1014 -0.0199 -0.0674
 8353W        W21767  14.881  16.506   0.575  0.1659 -0.0723  0.2767
 8354W        W21768  15.461   2.095  10.139  0.3056  0.1227 -0.1462
 8355W        W21769   4.657   5.887  16.183 -0.1279 -0.0279  0.0435
 8356W        W21770   3.872  15.662   3.756  0.0907 -0.2833  0.1298
 8357W        W21771   7.527   5.413  12.409 -0.5409  0.0963 -0.1881
 8358W        W21772   4.753  17.138  14.040  0.2076  0.0987  0.0843
 8359W        W21773   8.640  13.076  11.002 -0.0054  0.1666  0.1367
 8360W        W21774  11.034   0.762   2.605 -0.3228  0.2211 -0.0614
 8361W        W21775   8.589   8.846  12.258  0.0114  0.3598  0.1415
 8362W        W21776   7.866  17.933   2.191  0.0086  0.1378 -0.1467
 8363W        W21777   1.225  16.768   4.894 -0.0822  0.1814  0.0391
 8364W        W21778   7.725  12.732  11.895  0.1010 -0.2104  0.2159
 8365W        W21779   5.672   3.507   4.179  0.0066  0.2234  0.1000
 8366W        W21780   4.426  13.296  15.764  0.1113 -0.3547 -0.1088
 8367W        W21781   8.308  10.941  14.956 -0.0471  0.1879 -0.1198
 8368W        W21782  16.092   7.170  15.074 -0.3111 -0.0283 -0.1664
 8369W        W21783   2.361   6.529   0.570  0.0253 -0.1576  0.1203
 8370W        W21784  17.347  10.475   4.428 -0.0189  0.1636 -0.0068
 8371W        W21785  15.886  16.589  11.845  0.1105 -0.0226  0.4980
 8372W        W21786  11.637  16.231  12.787 -0.0624  0.0343 -0.3876
 8373W        W21787  10.312   3.824  10.945 -0.0921  0.0402  0.0465
 8374W        W21788  16.075   3.241  13.454 -0.1457  0.0651  0.0574
 8375W        W21789  10.184   0.775  16.004 -0.1446 -0.0468  0.1398
 8376W        W21790   2.774   8.221  15.226  0.1295  0.1619 -0.0672
 8377W        W21791  10.876   7.932   1.341 -0.1718 -0.0316  0.1100
 8378W        W21792  17.586  16.843   4.844  0.0607 -0.0107 -0.2921
 8379W        W21793   7.977   3.399   2.442 -0.1849 -0.0354  0.1459
 8380W        W21794   3.256   9.702  11.016  0.1711 -0.2619  0.4094
 8381W        W21795   8.197  11.663   6.212  0.0119 -0.0874  0.0260
 8382W        W21796   3.270  10.441  15.773 -0.1993  0.3085 -0.0680
 8383W        W21797  10.602  10.531  12.670 -0.2539 -0.2836 -0.1480
 8384W        W21798   4.915   5.038  16.493  0.1180  0.0293 -0.1445
 8385W        W21799  16.583   7.911  11.573  0.4196 -0.1649  0.0400
 8386W        W21800  12.865  15.415  15.753 -0.0591 -0.0747  0.1898
 8387W        W21801  11.899   8.821  10.603  0.3649 -0.2117 -0.2088
 8388W        W21802   2.268   1.451  15.679 -0.2649 -0.1162  0.3413
 8389W        W21803   6.818  12.331   1.272 -0.1178  0.1884  0.2487
 8390W        W21804   4.020   4.255   5.609 -0.3216  0.0308 -0.3763
 8391W        W21805  10.672  12.483  11.586 -0.3483  0.0765 -0.0863
 8392W        W21806   5.252   0.250  12.575 -0.1099  0.2636 -0.1539
 8393W        W21807   0.413  11.743   3.231 -0.0263  0.1383 -0.0296
 8394W        W21808   7.703  11.978   1.053 -0.3017  0.0332  0.0833
 8395W        W21809  14.637   8.858  15.571  0.0685  0.0436  0.1912
 8396W        W21810   1.707  15.705  10.637 -0.1158  0.3427  0.4048
 8397W        W21811   7.696   3.610  14.000  0.1272 -0.5342  0.0962
 8398W        W21812  12.692   9.028   1.945  0.0895 -0.1164 -0.1400
 8399W        W21813  10.645   0.066  10.801 -0.0269  0.1301 -0.2383
 8400W        W21814   7.061   2.503  15.423  0.2378 -0.1449 -0.2496
 8401W        W21815  16.169   4.435  12.317 -0.0584  0.1919  0.0297
 8402W        W21816   2.664   3.449  11.484  0.1565 -0.1082  0.0385
 8403W        W21817   6.048  15.340   3.742  0.0028 -0.3054 -0.1505
 8404W        W21818  16.834   3.801   5.657 -0.2988  0.0559 -0.1415
 8405W        W21819  14.723  17.224   5.601 -0.1593 -0.2843  0.1970
 8406W        W21820   3.973   4.714  13.111 -0.0484  0.0889  0.0597
 8407W        W21821   0.525   9.659   6.406 -0.2715  0.0277 -0.0159
 8408W        W21822   9.883  11.887   4.331 -0.1742  0.2997  0.0946
 8409W        W21823   9.897   7.609   5.647  0.0840  0.2000 -0.0131
 8410W        W21824   1.194   1.586   2.995 -0.0998 -0.1977 -0.0242
 8411W        W21825   1.318   8.115  16.487 -0.3259 -0.0695 -0.3305
 8412W        W21826   0.774   2.654   5.352  0.1316 -0.0204 -0.1288
 8413W        W21827  11.820  16.681  16.091  0.1380  0.1911  0.2170
 8414W        W21828  13.542  11.749  15.613  0.0688  0.1768  0.0852
 8415W        W21829   1.330   0.330   0.573 -0.2734  0.2045  0.0768
 8416W        W21830  17.517   2.948   4.837 -0.0691  0.0118  0.0614
 8417W        W21831   2.837   6.646  12.448 -0.1044  0.0224  0.5560
 8418W        W21832   3.417   5.528  10.999  0.1720  0.0843  0.1014
 8419W        W21833   4.045   3.174   3.823 -0.0504 -0.1652  0.1514
 8420W        W21834  10.139  14.899   6.281 -0.3306 -0.0324  0.0452
 8421W        W21835   6.993   2.735  13.615 -0.1104 -0.0829 -0.1856
 8422W        W21836  14.897   7.969  13.063 -0.0330 -0.0544 -0.1160
 8423W        W21837  12.914  11.384  14.646  0.1680  0.1941  0.0795
 8424W        W21838   0.483  10.655   1.386  0.2711  0.2972 -0.3886
 8425W        W21839   0.124  13.190  15.538  0.2626 -0.1294 -0.0538
 8426W        W21840  15.070   8.521  14.337 -0.1083 -0.0649 -0.2356
 8427W        W21841   0.134  16.231   0.947 -0.2069  0.1596  0.2038
 8428W        W21842   8.778   8.683  16.210  0.1974  0.2938  0.1606
 8429W        W21843  10.531   0.429  15.186 -0.1010 -0.1315 -0.2454
 8430W        W21844  16.500   2.081   1.885 -0.1070 -0.1993 -0.3737
 8431W        W21845   4.316   6.266  11.963  0.0143 -0.3065 -0.2747
 8432W        W21846   8.640   1.728   6.065 -0.0541 -0.0166 -0.1127
 8433W        W21847  14.283  12.969   4.301  0.0559  0.1136 -0.5350
 8434W        W21848  13.328   0.188  14.649 -0.0574  0.1341 -0.3496
 8435W        W21849   4.914  17.615  12.495  0.0507 -0.1005  0.1671
 8436W        W21850   5.239  14.189  10.357  0.0529  0.1086  0.0114
 8437W        W21851  16.027  13.365   3.787  0.0341  0.4043 -0.1309
 8438W        W21852  15.383   3.442   4.076  0.1274  0.2325 -0.0765
 8439W        W21853   2.832  11.449   0.506 -0.1908 -0.2059 -0.0148
 8440W        W21854  13.617   4.009  12.162  0.0951 -0.0724 -0.1484
 8441W        W21855   6.831   1.360   4.201 -0.0067 -0.0403  0.1025
 8442W        W21856  13.397   6.518   0.256 -0.1023  0.0847 -0.1628
 8443W        W21857  11.194  13.441   6.115  0.0133  0.2543  0.2497
 8444W        W21858   3.152   1.540   5.901  0.0886 -0.2668 -0.0421
 8445W        W21859  10.886   5.610  15.808  0.0359 -0.1939  0.0810
 8446W        W21860  14.528   1.466   3.302 -0.2920 -0.1763  0.2899
 8447W        W21861   7.984  12.330  13.550  0.0768 -0.2845  0.2261
 8448W        W21862   5.201  14.156  12.402  0.0657 -0.0635 -0.3486
 8449W        W21863   7.874  16.873   2.848  0.3351  0.0395 -0.2943
 8450W        W21864   5.268  13.250  15.860 -0.2767  0.2014 -0.0283
 8451W        W21865   9.741  15.806   2.031 -0.0955  0.0482  0.0546
 8452W        W21866  10.393   3.566  14.702  0.3611 -0.1018  0.1521
 8453W        W21867   5.600  13.487   2.172  0.0551  0.0522  0.1248
 8454W        W21868  15.517  16.841   1.246  0.1768  0.3284  0.3740
 8455W        W21869  16.076   6.818   5.780  0.0289  0.2080  0.1373
 8456W        W21870   1.147   0.623   4.580  0.1960  0.1660  0.0771
 8457W        W21871   8.663   9.445   6.305 -0.0928  0.1250  0.0095
 8458W        W21872  15.415   1.126   0.164  0.0004 -0.1621  0.0192
 8459W        W21873  12.408  17.395  12.904 -0.1263  0.1753  0.2206
 8460W        W21874   5.869   4.397  13.115  0.2849  0.0519  0.2430
 8461W        W21875  11.179   3.796   4.516  0.0573  0.3281  0.0746
 8462W        W21876   8.109   0.731   2.560 -0.1019 -0.0487 -0.2104
 8463W        W21877   7.144   3.612  11.050 -0.2432 -0.0050  0.0198
 8464W        W21878   7.199   1.339  16.689 -0.0127 -0.0110  0.0242
 8465W        W21879  13.147   5.510  11.482  0.1241  0.0743  0.0525
 8466W        W21880  16.372  17.767  11.072 -0.0457 -0.1664 -0.3066
 8467W        W21881   0.866   8.651  14.832 -0.1758  0.2537  0.0053
 8468W        W21882  16.210  11.405  12.106  0.0868  0.2643 -0.2054
 8469W        W21883  10.490  13.549  15.283  0.0007 -0.0471  0.3002
 8470W        W21884  14.796   1.691  13.390  0.0272 -0.2216  0.2078
 8471W        W21885  13.684   4.076   2.947  0.4085  0.2739  0.2552
 8472W        W21886   8.669  15.835  10.846  0.0727  0.2878  0.2299
 8473W        W21887   0.164   2.550   4.599  0.0303 -0.0776 -0.1733
 8474W        W21888   9.288  11.601  16.783  0.1169  0.0216  0.0531
 8475W        W21889  14.356   7.459   3.974  0.2811  0.0791  0.0499
 8476W        W21890  10.515  16.064  12.142  0.0095 -0.1535 -0.2497
 8477W        W21891  17.307   9.068  15.054  0.0770 -0.2498 -0.2285
 8478W        W21892   4.591   0.558   0.773  0.1056  0.0437  0.1835
 8479W        W21893   0.518  15.542   1.321 -0.0643 -0.0457  0.0767
 8480W        W21894   1.362  15.761  14.874 -0.2669 -0.1383  0.0365
 8481W        W21895  10.128  15.199   2.377  0.0417 -0.2378  0.6019
 8482W        W21896  17.263  15.819  15.716  0.1154 -0.0408  0.3807
 8483W        W21897  13.185  15.058  15.994  0.0647 -0.0403  0.1386
 8484W        W21898   6.433   3.982   0.684 -0.0848 -0.0301 -0.1428
 8485W        W21899  14.482  12.214   4.100 -0.1115  0.1579  0.2466
 8486W        W21900  16.270  11.679  15.975 -0.0989 -0.0064  0.4920
 8487W        W21901  13.118  11.337   2.785 -0.2443  0.0141  0.0328
 8488W        W21902   5.860  11.873  13.286 -0.0772  0.2404  0.2699
 8489W        W21903  13.024   1.539  13.461  0.0624 -0.1978  0.1596
 8490W        W21904   5.318  12.373  12.018 -0.1066  0.0910 -0.0469
 8491W        W21905  12.686  17.745   0.440 -0.1117  0.1495 -0.1835
 8492W        W21906   9.651  13.066   0.340  0.0557 -0.2746 -0.1168
 8493W        W21907   8.372   7.910   0.734  0.0411 -0.0066  0.0507
 8494W        W21908   3.655  13.337   1.107 -0.1019  0.2313 -0.2237
 8495W        W21909  10.610  15.760   1.235  0.0378  0.2848  0.1672
 8496W        W21910  14.806   9.829   2.385  0.1245 -0.4079 -0.1669
 8497W        W21911  17.410   3.815  13.219 -0.2128 -0.0885 -0.0170
 8498W        W21912   8.097  11.775  11.757 -0.0442  0.0333  0.1538
 8499W        W21913   2.866  11.367  12.658  0.1917 -0.0297 -0.0547
 8500W        W21914   7.165  10.564   6.058  0.0493  0.1296 -0.1877
 8501W        W21915   1.953  15.983  16.161 -0.1507 -0.1430 -0.0952
 8502W        W21916   6.138  11.980  11.985 -0.3500  0.1069  0.3632
 8503W        W21917  13.432  17.238  16.631  0.2047  0.0388 -0.1674
 8504W        W21918   5.158   6.201   1.183  0.0152 -0.0620 -0.1202
 8505W        W21919  17.355  17.524   0.137 -0.3129  0.1037 -0.1238
 8506W        W21920  11.331  10.343   6.085  0.3216  0.0327 -0.2400
 8507W        W21921  15.772  11.227  16.441  0.2021  0.1806  0.2390
 8508W        W21922  11.565   5.376  11.200  0.1451  0.0365  0.2061
 8509W        W21923  12.913   9.346   3.425 -0.1321  0.1329  0.0458
 8510W        W21924   2.147  17.461  16.317  0.1241  0.0474  0.0845
 8511W        W21925  13.550   3.866  11.683  0.2633  0.0599  0.2390
 8512W        W21926  11.391   0.193   3.887  0.1183  0.1323 -0.1814
 8513W        W21927  12.211   5.003  14.153 -0.2060 -0.1808  0.0118
 8514W        W21928   7.437  15.371  15.774  0.1868  0.0158 -0.1375
 8515W        W21929   3.111   8.489   4.195  0.0644 -0.0908 -0.1341
 8516W        W21930   0.250  16.536   2.428  0.3243  0.0978 -0.3847
 8517W        W21931  10.577   9.535   1.260 -0.1677 -0.0162 -0.1099
 8518W        W21932  10.239  12.405  13.691 -0.2132 -0.2618 -0.0292
 8519W        W21933  11.351  13.554   5.644  0.1352  0.0327  0.2701
 8520W        W21934  10.012   7.191   2.964  0.0731 -0.1231  0.2007
 8521W        W21935   7.423  11.761   0.608 -0.1367 -0.2461 -0.2065
 8522W        W21936   8.595  12.407  15.885  0.0938 -0.0455 -0.0104
 8523W        W21937  11.103   2.274   4.103  0.0097  0.0397 -0.1737
 8524W        W21938   7.195  17.112   5.367  0.2014 -0.1284 -0.0060
 8525W        W21939   8.160  16.741  14.269  0.3459 -0.1145 -0.1562
 8526W        W21940  15.823  11.802  12.944  0.2345  0.0814 -0.0030
 8527W        W21941   6.679   3.299  14.788 -0.0463 -0.2571  0.3385
 8528W        W21942   1.895   4.117   5.628 -0.0545  0.0261  0.0331
 8529W        W21943  14.509   1.146   1.790 -0.1959 -0.1414 -0.0424
 8530W        W21944   6.741  13.044  15.692 -0.1441  0.1388  0.1036
 8531W        W21945   5.041   9.463  13.456  0.0044  0.0894 -0.1060
 8532W        W21946  17.547  17.691   2.071 -0.1850 -0.1719 -0.1172
 8533W        W21947   5.497   0.186   2.658  0.2456 -0.3805  0.3575
 8534W        W21948   5.138   0.700   3.381 -0.1143 -0.3266 -0.0163
 8535W        W21949   6.650   7.507   1.965 -0.2633 -0.0674  0.1978
 8536W        W21950  14.279  11.282  12.186  0.1933 -0.2174  0.0386
 8537W        W21951  16.240   4.491   4.717  0.0398 -0.0854 -0.0614
 8538W        W21952  16.812   6.361   2.520  0.0065  0.1659  0.0766
 8539W        W21953   9.350   3.144  11.970 -0.4217  0.1965 -0.0437
 8540W        W21954   3.715  11.208   5.368 -0.0514 -0.2806 -0.0952
 8541W        W21955   9.320  15.203  11.578 -0.2411 -0.1992  0.2492
 8542W        W21956   2.773   4.070  16.475  0.4119  0.0507 -0.0321
 8543W        W21957   8.590  10.461  12.008  0.1301  0.0746  0.0920
 8544W        W21958  16.226   3.010  11.824 -0.0433  0.0940 -0.1028
 8545W        W21959   9.296   4.259  15.835 -0.0906 -0.2516 -0.0250
 8546W        W21960   7.671  16.350  16.654 -0.0229  0.1464 -0.1373
 8547W        W21961   9.694   6.210   3.829  0.0499  0.0035  0.2565
 8548W        W21962   6.363  13.650  14.912  0.1381  0.2020  0.0449
 8549W        W21963  13.712   4.869   3.626  0.1963  0.0806  0.0655
 8550W        W21964   5.502   9.804  11.621  0.2542 -0.4651 -0.1548
 8551W        W21965  12.044  15.710   1.902 -0.2061 -0.1377 -0.0901
 8552W        W21966   6.780  17.592  12.474  0.1561 -0.0034  0.1261
 8553W        W21967  10.017   3.278   1.539  0.1578  0.1232 -0.1427
 8554W        W21968   6.214   9.871  13.609  0.0122 -0.1347  0.0613
 8555W        W21969   0.767  14.924  15.947  0.1460 -0.2385 -0.1206
 8556W        W21970   7.699  17.059   1.930 -0.3321 -0.1819  0.3380
 8557W        W21971   6.355   1.724   2.655  0.1055 -0.0872  0.0853
 8558W        W21972  14.212  10.425  13.454  0.1956 -0.1445 -0.1032
 8559W        W21973  17.886  11.572   3.981 -0.0885 -0.0738 -0.0392
 8560W        W21974   6.840  10.568   5.372 -0.0046 -0.1021 -0.2642
 8561W        W21975   0.308   0.762  14.750 -0.0073  0.3658  0.3014
 8562W        W21976   8.107  10.713   6.130  0.2638  0.0468 -0.0617
 8563W        W21977  12.991   5.817   6.744  0.1727 -0.0347 -0.0309
 8564W        W21978  12.857  13.176   4.669 -0.3004  0.0962  0.3323
 8565W        W21979  17.595   8.406  10.978  0.0654  0.1711  0.0765
 8566W        W21980   3.229   1.141  11.666  0.1811  0.0992  0.2628
 8567W        W21981   3.236   2.554  15.202  0.0848  0.3394 -0.0492
 8568W        W21982   7.749   8.654   1.352 -0.1389  0.0224 -0.1427
 8569W        W21983  17.550  15.672  14.404  0.0687 -0.0334  0.1190
 8570W        W21984  10.095   2.913  13.387 -0.0749  0.1458 -0.1998
 8571W        W21985   8.158   3.763  12.271 -0.0396 -0.0315 -0.1762
 8572W        W21986  15.571   9.586  16.108 -0.2025  0.1086 -0.1789
 8573W        W21987  17.861   1.141   1.205 -0.0422  0.2100 -0.0156
 8574W        W21988  11.949   7.136  14.669 -0.3328  0.3675  0.3054
 8575W        W21989  10.343  10.891   5.250  0.1966 -0.2528 -0.1853
 8576W        W21990  14.100  17.503   2.800 -0.0381  0.1076 -0.2543
 8577W        W21991   3.474  10.280  15.321  0.1217  0.3439 -0.0287
 8578W        W21992   8.447   2.893   4.324  0.1707  0.2461 -0.2685
 8579W        W21993   3.160  18.012  16.081  0.1385 -0.0750  0.1939
 8580W        W21994   4.516  13.258   0.518 -0.1433  0.0168  0.0504
 8581W        W21995   9.030   0.364  11.958 -0.0336 -0.2013 -0.2614
 8582W        W21996   1.502   3.286  12.303  0.0535 -0.0300 -0.2081
 8583W        W21997   9.286  14.202  15.484 -0.0084 -0.1411  0.1627
 8584W        W21998  10.872   7.223  13.987  0.1097 -0.0671  0.1124
 8585W        W21999   9.277   0.890   1.293 -0.0194 -0.0314 -0.0189
 8586W        W22000  12.885  12.127  11.471  0.3437  0.1783  0.0860
 8587W        W22001   3.578  17.920   2.973  0.2947  0.2576 -0.1835
 8588W        W22002   0.713   8.732   5.624  0.0438  0.1316  0.0245
 8589W        W22003  15.998  12.556   5.824 -0.0730 -0.0418 -0.1354
 8590W        W22004   4.470   3.401  15.887  0.0308 -0.0531 -0.2027
 8591W        W22005   9.262   9.963   2.067  0.0039  0.1522 -0.0410
 8592W        W22006  17.760  12.693  11.539 -0.1982 -0.2961  0.0168
 8593W        W22007  15.804  12.129   6.002  0.0821 -0.0162 -0.2410
 8594W        W22008  11.448   2.268  15.890  0.0597 -0.0745 -0.3866
 8595W        W22009  12.169   5.737   1.259 -0.0530 -0.0339 -0.2480
 8596W        W22010   6.549  15.195   1.104 -0.2282 -0.3579  0.0321
 8597W        W22011  17.217  11.859   1.206 -0.4135  0.0944  0.2355
 8598W        W22012   2.075   4.458   6.035  0.0270  0.1769 -0.0478
 8599W        W22013   7.624   2.205   0.009  0.3175 -0.2902 -0.2433
 8600W        W22014   8.761   7.810   1.135  0.1469  0.1018 -0.0915
 8601W        W22015  11.927   4.824  16.494 -0.0076 -0.2396  0.1125
 8602W        W22016   2.873   9.122  13.200  0.2521  0.1729 -0.1228
 8603W        W22017  17.261  18.001   2.344  0.0237  0.1840 -0.0447
 8604W        W22018   0.628   4.558   0.521 -0.2628 -0.1213  0.1700
 8605W        W22019   9.201   5.274  10.769  0.1105  0.1900 -0.0683
 8606W        W22020  10.812  14.903  15.027 -0.0878  0.0869  0.1035
 8607W        W22021   4.021   1.748   1.980  0.3387  0.1832  0.1058
 8608W        W22022   7.188  10.748   2.857 -0.1121  0.2803  0.0445
 8609W        W22023   3.097   2.213  16.017 -0.1038 -0.1414  0.2057
 8610W        W22024  12.609  10.230   4.481 -0.0696  0.0209 -0.0998
 8611W        W22025   8.916   0.883   3.017  0.0166 -0.5339 -0.5755
 8612W        W22026   1.382  13.574   3.430  0.0652  0.1460  0.2377
 8613W        W22027  15.940   9.575   4.500  0.1149 -0.2225 -0.0189
 8614W        W22028  11.737  14.976  14.994 -0.1311  0.1216  0.0862
 8615W        W22029  16.569  11.291  15.831  0.1058  0.1982  0.1623
 8616W        W22030   3.480  11.944  16.773 -0.1027 -0.1351 -0.0615
 8617W        W22031  11.699  16.846   1.180 -0.2867 -0.2418 -0.1465
 8618W        W22032  10.281   4.664  16.479  0.1089 -0.2488  0.4995
 8619W        W22033   6.736   0.759   1.317  0.1351 -0.2576 -0.1115
 8620W        W22034  11.241   0.282  11.463 -0.1839 -0.0384  0.1810
 8621W        W22035   1.345   0.317   1.709  0.2417 -0.2465  0.1134
 8622W        W22036   7.083  16.917   4.510  0.0809  0.1333  0.2747
 8623W        W22037   0.438  14.836   2.957  0.0409  0.0534  0.3834
 8624W        W22038  15.268  10.903  15.645 -0.1750 -0.2846  0.2416
 8625W        W22039  10.169   6.588  15.452 -0.1875  0.4411  0.4402
 8626W        W22040   8.229  16.902  12.197 -0.1530  0.4766 -0.1582
 8627W        W22041   8.444  16.193  15.603 -0.0152  0.0251  0.2255
 8628W        W22042  11.513  12.635  11.315  0.0044  0.1809  0.0547
 8629W        W22043  10.301   7.599   3.041 -0.1717 -0.1369 -0.0918
 8630W        W22044  17.313   9.741   3.246  0.1074 -0.0200  0.0419
 8631W        W22045  17.812   7.307   0.224 -0.0318 -0.0686  0.0051
 8632W        W22046  15.323   8.443  10.939  0.0246 -0.2660 -0.3125
 8633W        W22047  16.734   7.524  13.076  0.1647  0.2090  0.1507
 8634W        W22048  18.002   9.771  15.966  0.1006  0.0512  0.1217
 8635W        W22049   4.083  10.362   1.859 -0.1028  0.1775  0.0971
 8636W        W22050  16.773   9.757  13.129 -0.1165 -0.0112 -0.1478
 8637W        W22051   0.495  13.600   3.766  0.0570 -0.2482 -0.1425
 8638W        W22052   2.515  14.195   3.106 -0.2072 -0.0627  0.0900
 8639W        W22053   4.289   6.144   4.123  0.1556 -0.0778  0.1909
 8640W        W22054   1.786  17.933   3.383  0.1330 -0.0964 -0.1460
 8641W        W22055   0.870   4.180  11.176 -0.4823 -0.0008 -0.1374
 8642W        W22056   4.374  17.478  11.299 -0.0862  0.4289 -0.0282
 8643W        W22057   9.381  15.590  12.469 -0.1684  0.2014 -0.0484
 8644W        W22058   2.411  14.363  14.571  0.0398 -0.0138 -0.1838
 8645W        W22059   6.252  12.921  15.737  0.3287 -0.1450  0.0151
 8646W        W22060   4.802   3.608  10.623 -0.0913  0.0523 -0.0971
 8647W        W22061  17.832  10.825   1.831  0.0600  0.1419  0.1165
 8648W        W22062   9.634   7.819   5.296 -0.0533  0.0112  0.2095
 8649W        W22063   3.911   1.684  12.305 -0.1907  0.0045  0.0142
 8650W        W22064   8.916  16.989  14.272  0.2047 -0.3782 -0.0359
 8651W        W22065   1.659   4.412   5.213 -0.0003 -0.0786 -0.1921
 8652W        W22066   0.012   9.376   1.145 -0.0008  0.1779 -0.0342
 8653W        W22067   0.796   1.432  16.355  0.1581 -0.1279 -0.0486
 8654W        W22068  14.429   6.887  11.483 -0.1817 -0.3035  0.0340
 8655W        W22069  14.325  16.718  14.091 -0.0545  0.3976  0.0232
 8656W        W22070   2.172  11.223  16.666 -0.0471  0.2277  0.0694
 8657W        W22071   5.444   3.202   0.197 -0.0165 -0.1819 -0.1724
 8658W        W22072   2.342  15.086   4.190  0.2331  0.0090 -0.0469
 8659W        W22073  15.581   3.631   5.425 -0.2233  0.0065  0.1746
 8660W        W22074   4.542   4.140  10.771 -0.3039 -0.0386 -0.0727
 8661W        W22075   1.665   4.442  12.108 -0.0642 -0.2232 -0.0415
 8662W        W22076  17.364  11.020   3.371 -0.2755 -0.1784  0.0233
 8663W        W22077   5.401   2.155   5.488  0.0683 -0.2644  0.1685
 8664W        W22078   0.762   8.727   1.235  0.1946 -0.0600  0.0301
 8665W        W22079   4.270  13.138  10.543  0.0656  0.0144  0.2419
 8666W        W22080  17.816   9.420   2.409 -0.1193 -0.1027  0.1457
 8667W        W22081  15.789  13.689   0.449 -0.1201 -0.0882 -0.1054
 8668W        W22082   0.589   3.776  15.658  0.0702 -0.0144 -0.0021
 8669W        W22083   5.490  16.166  11.698 -0.2373 -0.1336  0.2561
 8670W        W22084   3.488   1.570   2.631 -0.0163  0.0373  0.0106
 8671W        W22085   3.329   6.004   5.243 -0.0107 -0.1821  0.1652
 8672W        W22086  10.156  17.503  12.989  0.0669  0.2343 -0.1306
 8673W        W22087   3.187   4.463  14.466  0.2997 -0.1795 -0.1073
 8674W        W22088   8.627   2.584   2.327  0.0667 -0.2911  0.2450
 8675W        W22089   2.184  13.822  11.846  0.1115  0.1886  0.3345
 8676W        W22090   5.363   6.975   1.648  0.0395 -0.2511 -0.0284
 8677W        W22091  17.735   0.117   4.653  0.3077 -0.0320  0.2126
 8678W        W22092  14.524   3.642  12.439 -0.0469 -0.2326  0.1066
 8679W        W22093   6.169  10.330   4.493  0.0174  0.2673  0.0523
 8680W        W22094  17.080   8.511   2.162 -0.5531  0.1608  0.2388
 8681W        W22095   9.391  15.942   2.412 -0.0907  0.1212 -0.0370
 8682W        W22096   0.597  14.451  13.228 -0.2372  0.3397  0.0811
 8683W        W22097  16.989  17.521  11.748 -0.0487 -0.2546  0.1404
 8684W        W22098  16.833  13.242  12.149  0.1220 -0.0213 -0.2301
 8685W        W22099   1.354   8.640  12.061 -0.0136  0.0272  0.1927
 8686W        W22100  17.372  13.183   1.239  0.0743 -0.1132 -0.0871
 8687W        W22101   8.480  15.027   0.891  0.1081  0.2292  0.0908
 8688W        W22102   9.140   2.360  13.371 -0.2144  0.1748  0.1421
 8689W        W22103   9.031   3.515  14.324  0.1537 -0.0977  0.2094
 8690W        W22104   0.034   9.296  14.908 -0.1143 -0.3003 -0.4262
 8691W        W22105   7.900   3.698   3.787 -0.0648 -0.0216 -0.0909
 8692W        W22106   9.359  10.926   0.114 -0.0739 -0.1558  0.0528
 8693W        W22107  14.452  17.960  13.043 -0.0166 -0.0645 -0.1256
 8694W        W22108  16.416  15.761   5.827 -0.4157  0.0446  0.0104
 8695W        W22109   7.460   3.235  13.652  0.0868  0.3137  0.0684
 8696W        W22110  14.679  13.935  15.944  0.0849  0.0362  0.2414
 8697W        W22111  10.290  16.798  11.394  0.2614  0.1418 -0.1346
 8698W        W22112   2.954  11.557   5.000  0.1469  0.2331 -0.0390
 8699W        W22113  14.051  10.299   4.321  0.3142  0.0382  0.2518
 8700W        W22114  11.554  15.009   5.628  0.1065  0.0481 -0.0932
 8701W        W22115   0.796  15.912   5.110 -0.3920  0.2336  0.1335
 8702W        W22116  14.675   6.174  10.592  0.0060  0.1376 -0.1468
 8703W        W22117   6.372   4.210  11.569 -0.0046 -0.2154 -0.0818
 8704W        W22118   6.951   1.353   2.019 -0.2351 -0.2043  0.1872
 8705W        W22119   2.014  13.015  11.288 -0.2787 -0.1222  0.1215
 8706W        W22120   6.606   1.577  12.144  0.2283 -0.0657 -0.0866
 8707W        W22121  11.661  13.054  16.160  0.0877 -0.1366 -0.0645
 8708W        W22122  14.808   8.899  12.892  0.0769  0.0311  0.2511
 8709W        W22123  17.265   8.947   1.248 -0.3016 -0.0064  0.2951
 8710W        W22124   3.174   4.237  16.253  0.2205 -0.2342  0.0650
 8711W        W22125  16.089  14.820  14.693  0.2795 -0.0198 -0.0116
 8712W        W22126   7.377  13.464  12.392  0.1079 -0.0716  0.3555
 8713W        W22127   8.733   0.121  15.082  0.1377  0.1727  0.0368
 8714W        W22128  17.651   0.946   5.219 -0.0308 -0.2900 -0.0665
 8715W        W22129   6.257   2.734  14.282  0.2371  0.2576 -0.0294
 8716W        W22130   7.676  13.204   0.356 -0.0598  0.0637  0.1578
 8717W        W22131   5.221  13.104  14.172 -0.0101 -0.3613  0.1747
 8718W        W22132   8.331  10.302  13.457 -0.4505 -0.2137  0.1654
 8719W        W22133   4.012  17.922   3.219  0.1274 -0.0363  0.2155
 8720W        W22134   1.482   4.691  12.560 -0.0941 -0.1488 -0.2489
 8721W        W22135   8.056   7.200   5.629 -0.3426 -0.0253  0.2039
 8722W        W22136   0.994  15.775  11.391 -0.2759 -0.0011  0.1142
 8723W        W22137   6.394  14.718   5.993  0.0682 -0.0566 -0.5296
 8724W        W22138   3.421  11.543  12.523  0.2597  0.1355 -0.0139
 8725W        W22139  15.520   5.955  14.822  0.1742 -0.1740  0.1952
 8726W        W22140  16.552   7.196  12.315 -0.1173  0.2186  0.0552
 8727W        W22141   6.102   7.653   3.859 -0.2750 -0.0515 -0.0466
 8728W        W22142   0.101   0.117  15.368 -0.0206  0.1926  0.1141
 8729W        W22143   9.321  11.855   5.436  0.2446 -0.2039 -0.0548
 8730W        W22144   2.580  16.749  10.435 -0.0008 -0.0215 -0.1031
 8731W        W22145   0.665   5.627   1.733  0.1439  0.2383 -0.1935
 8732W        W22146   9.374  15.555   1.852  0.1618  0.0293  0.0469
 8733W        W22147  15.001   7.646   0.861  0.1989 -0.1572  0.0819
 8734W        W22148  10.371  14.457   0.018 -0.3054 -0.0980  0.0026
 8735W        W22149   5.374  13.590  15.479  0.0968 -0.1356 -0.1115
 8736W        W22150  13.139  10.737  12.583 -0.2886  0.0113 -0.0880
 8737W        W22151   8.232   6.375  13.537 -0.0327  0.2264 -0.2299
 8738W        W22152   6.283   3.121   2.161  0.0874 -0.0608 -0.0373
 8739W        W22153  16.621   3.646  13.556 -0.0875  0.1290  0.3264
 8740W        W22154   9.809  12.349   4.466 -0.2238  0.0680  0.0794
 8741W        W22155   9.583   2.252   2.324  0.2529 -0.0204  0.1270
 8742W        W22156  16.429  16.953  12.612 -0.0643  0.1892  0.1860
 8743W        W22157  12.312  11.383   5.009 -0.1177  0.0724 -0.2361
 8744W        W22158   4.729   3.921   1.973  0.1281 -0.1047  0.2335
 8745W        W22159  16.398   9.597   4.724  0.0044 -0.0499  0.1170
 8746W        W22160   2.026  15.531   1.316 -0.1608  0.1113  0.0156
 8747W        W22161  17.208   2.452   4.608  0.0781 -0.0779  0.0679
 8748W        W22162  13.880  13.986  15.501  0.1853  0.0006  0.2159
 8749W        W22163   8.095  16.612   4.128 -0.0143 -0.0942 -0.1720
 8750W        W22164  15.973   2.796   0.329 -0.2178  0.1396 -0.1300
 8751W        W22165   2.848  13.609  10.237 -0.1034  0.1263 -0.0938
 8752W        W22166   8.487   3.798   5.369 -0.1651  0.3930 -0.1761
 8753W        W22167   9.831   6.875  15.086 -0.0113  0.2737 -0.3308
 8754W        W22168   7.779   3.960  14.763 -0.1329 -0.1864  0.0965
 8755W        W22169   1.462  17.278   4.472 -0.0463  0.3261 -0.2229
 8756W        W22170  10.974   6.079  11.928 -0.3393 -0.1216 -0.1091
 8757W        W22171  14.785   7.493  15.062 -0.4137 -0.0165  0.3303
 8758W        W22172  14.772  13.449   0.661  0.2124  0.0617  0.2242
 8759W        W22173   8.549  10.417   5.342 -0.2907 -0.2291 -0.1754
 8760W        W22174  16.342   6.366  15.197 -0.0415  0.3273  0.0810
 8761W        W22175  15.726  13.724  11.049 -0.1391 -0.1398 -0.0758
 8762W        W22176  16.318   4.118   0.023  0.0752 -0.1092  0.1214
 8763W        W22177   8.250   3.311   0.983 -0.2565  0.0713  0.1344
 8764W        W22178  16.447   8.692  16.128  0.0235 -0.3076 -0.1229
 8765W        W22179  14.308  12.916   5.407 -0.0413 -0.1898 -0.1787
 8766W        W22180   5.487  13.957   4.727 -0.0870  0.0904 -0.0815
 8767W        W22181   2.903  17.719   3.866 -0.1503 -0.0357 -0.0061
 8768W        W22182  14.191   2.016  14.743  0.2848 -0.3272  0.0614
 8769W        W22183   4.370  12.816  16.087  0.2609  0.1587  0.0590
 8770W        W22184   6.394  11.267  15.216  0.0779  0.0940 -0.0556
 8771W        W22185   4.459  11.143   1.224  0.1097 -0.1125  0.1344
 8772W        W22186  12.728   1.040  16.728 -0.1374 -0.1719  0.0883
 8773W        W22187  16.092  16.091  14.694  0.1159 -0.1501  0.1796
 8774W        W22188  14.014  16.262   2.877 -0.0177  0.0096  0.2276
 8775W        W22189   3.118   2.730  11.407 -0.4049  0.4104 -0.0981
 8776W        W22190  16.507   0.315  16.421 -0.1646 -0.0801  0.0558
 8777W        W22191   7.970  10.521  15.083  0.2097  0.1699  0.1226
 8778W        W22192   1.487  13.099   3.650 -0.0699  0.0868  0.0052
 8779W        W22193   7.672  12.675   3.797 -0.2446  0.0087  0.3660
 8780W        W22194  17.118  16.706  15.797  0.1576  0.1056 -0.0489
 8781W        W22195  11.142   6.753   2.095  0.0064  0.0935  0.0061
 8782W        W22196   7.315   3.946  16.483 -0.3744 -0.1035 -0.0284
 8783W        W22197   3.577  16.604  10.081 -0.2014 -0.0539  0.1213
 8784W        W22198   1.506   9.002  13.085 -0.0801  0.1115  0.2660
 8785W        W22199  16.849   3.433  16.326 -0.1955  0.2581 -0.1003
 8786W        W22200  13.484   8.421   4.921 -0.0842  0.0083  0.0359
 8787W        W22201   8.066  12.834  15.220 -0.1608 -0.1629 -0.0166
 8788W        W22202  14.246  12.144   5.525  0.0262  0.0587 -0.0459
 8789W        W22203   2.686   6.857   5.545 -0.0068  0.2478 -0.1633
 8790W        W22204   6.117  17.605  14.234 -0.0683 -0.1456 -0.0379
 8791W        W22205   7.293  11.704   5.838 -0.0110  0.1645  0.2271
 8792W        W22206   8.968   2.469  15.953 -0.0281 -0.4557  0.1151
 8793W        W22207   2.515   6.707   1.509  0.2164 -0.2819  0.0721
 8794W        W22208  13.455   3.177   2.312 -0.0213 -0.0131 -0.1274
 8795W        W22209   7.501  14.354   2.957 -0.0875  0.0917  0.1752
 8796W        W22210   9.560  14.202   2.869  0.2286  0.2308  0.0207
 8797W        W22211  16.891   2.588  13.407  0.2129 -0.2648 -0.6526
 8798W        W22212   4.796  11.095   5.933  0.1290  0.1092  0.1541
 8799W        W22213   8.204  12.612  11.960  0.0359 -0.3910  0.2838
 8800W        W22214   7.644  14.679  16.524 -0.1535  0.1023  0.0609
 8801W        W22215   5.191   4.174   4.963  0.1611  0.1309 -0.0944
 8802W        W22216   1.402  11.906  15.861  0.1526 -0.0720 -0.0016
 8803W        W22217  12.920  12.716   1.768  0.1744  0.1602 -0.2213
 8804W        W22218   9.360   7.468   0.350  0.0449 -0.2318 -0.0137
 8805W        W22219  12.993   1.259   3.167  0.1308 -0.0159  0.1682
 8806W        W22220  15.663  15.841   2.438  0.2701  0.1218  0.0507
 8807W        W22221  17.522  12.525   0.344  0.0674  0.2786 -0.3080
 8808W        W22222  11.174  11.693   3.686  0.0756  0.4011 -0.0986
 8809W        W22223   9.279  14.218   1.815 -0.0526 -0.0533  0.1231
 8810W        W22224   3.605   3.789   3.026 -0.0083  0.0063 -0.1712
 8811W        W22225   1.605  13.844   3.052 -0.1146 -0.3529  0.2158
 8812W        W22226   3.284  12.055  11.657  0.0234 -0.1015  0.2590
 8813W        W22227  10.391   8.082  14.257 -0.0792  0.2037 -0.2983
 8814W        W22228  12.496   0.047  11.609 -0.1406  0.1045 -0.0270
 8815W        W22229   9.631   1.862   4.575  0.1334 -0.2425  0.2194
 8816W        W22230   7.054  17.451   1.417 -0.0475 -0.0056  0.1632
 8817W        W22231  11.300   7.711   1.857 -0.2548  0.1376  0.1864
 8818W        W22232  16.778  15.589   1.018  0.2894 -0.0840 -0.2795
 8819W        W22233   5.321  15.076  14.131 -0.0353 -0.0645  0.1121
 8820W        W22234   4.059  12.295  11.077 -0.1364  0.2767 -0.1265
 8821W        W22235  15.882  11.284   3.437 -0.0752 -0.0895  0.3046
 8822W        W22236   8.233  10.266  15.847 -0.0759  0.0752  0.4534
 8823W        W22237   1.993   2.630  13.282  0.0524  0.0766 -0.0502
 8824W        W22238  12.529  15.839  12.144 -0.0835  0.2865  0.0163
 8825W        W22239   5.456   7.792  15.398  0.3218 -0.1190  0.2561
 8826W        W22240   0.584  12.700   3.645  0.0861 -0.2468 -0.1015
 8827W        W22241   0.971  13.712  16.766  0.1161 -0.0733 -0.0939
 8828W        W22242   9.850   3.765  14.362  0.1357  0.1853  0.1006
 8829W        W22243  15.451   8.853   3.645 -0.0985 -0.4138 -0.0253
 8830W        W22244   0.981   7.042  13.119  0.1077  0.1686 -0.0170
 8831W        W22245  14.089  12.231  12.326  0.2258  0.1959 -0.0205
 8832W        W22246  17.029   1.600  13.184 -0.2190 -0.3828  0.0466
 8833W        W22247  16.484   7.647   6.976  0.0308 -0.2085  0.1194
 8834W        W22248   3.409   2.236   0.523 -0.1359 -0.1117 -0.1638
 8835W        W22249   4.680   9.211   3.228 -0.1829  0.0352 -0.0040
 8836W        W22250  16.311  11.589  16.636 -0.0778 -0.2741  0.1031
 8837W        W22251   6.973   6.691  11.803  0.3167 -0.0209 -0.0860
 8838W        W22252   1.098  10.222   2.242 -0.0898 -0.1628 -0.0035
 8839W        W22253  13.037   8.560   4.125  0.1480 -0.0538 -0.1693
 8840W        W22254   0.454   4.512  15.288  0.1215  0.1912 -0.0507
 8841W        W22255   3.419   8.861   0.439  0.0727 -0.0299  0.1680
 8842W        W22256  13.057   3.897  13.180  0.2891  0.1931  0.0129
 8843W        W22257   8.094   4.742  16.543 -0.0029 -0.1309 -0.1839
 8844W        W22258  12.813   8.330  16.667  0.1181 -0.0215 -0.0333
 8845W        W22259   8.333  15.231   0.312  0.0167  0.1925 -0.1776
 8846W        W22260  13.731   6.010  15.775  0.0131  0.1032  0.0025
 8847W        W22261   8.489  12.342   3.535  0.1577 -0.1744 -0.2200
 8848W        W22262   3.489  13.983  16.517  0.0825  0.2529 -0.0747
 8849W        W22263  10.207  12.406   4.169 -0.0471 -0.0472 -0.1905
 8850W        W22264  15.574   9.922   1.750 -0.1194 -0.1550 -0.1850
 8851W        W22265  17.301   0.120   4.998  0.2420  0.1798  0.0595
 8852W        W22266   0.569   0.608   4.016 -0.1885  0.3389 -0.0947
 8853W        W22267   9.807  14.639  12.742  0.1444  0.1173 -0.1275
 8854W        W22268  10.347   5.851  15.980  0.1520  0.0299 -0.1770
 8855W        W22269   6.337   0.846  13.473 -0.0993 -0.0476 -0.2601
 8856W        W22270   1.711   5.961  12.066 -0.1757 -0.2061 -0.2313
 8857W        W22271   5.417   7.688  11.369  0.0808 -0.0096 -0.5346
 8858W        W22272   3.818  12.273  14.575 -0.1123 -0.3027 -0.2242
 8859W        W22273  16.903  12.822   1.903 -0.2353  0.0502  0.1309
 8860W        W22274  17.941  15.307   3.425  0.0390  0.0429 -0.0994
 8861W        W22275   0.520   1.107  14.425  0.0846  0.0198 -0.0314
 8862W        W22276   5.417  10.368   3.065 -0.1542  0.1627 -0.1349
 8863W        W22277  16.527   4.246  13.247  0.4256 -0.1925 -0.2792
 8864W        W22278  10.542  12.665   0.690  0.0049  0.3397  0.0119
 8865W        W22279  17.637  10.885  14.132 -0.1386 -0.1785  0.4018
 8866W        W22280  17.515  16.565   3.961  0.2194  0.3718  0.3399
 8867W        W22281  14.945   6.370  11.674  0.1538 -0.0178 -0.0925
 8868W        W22282  13.542  10.689  14.155  0.0620  0.1758  0.0490
 8869W        W22283  12.283  10.515   1.787  0.0430 -0.2447  0.1304
 8870W        W22284   6.365   7.300  13.849 -0.2150  0.1850 -0.2877
 8871W        W22285   4.366   6.840   4.855 -0.3430  0.2818  0.1423
 8872W        W22286  12.735  17.896  15.243 -0.0283  0.0602 -0.0603
 8873W        W22287   3.166  14.769   2.888  0.0033  0.1764 -0.2959
 8874W        W22288   6.603  15.812   4.168 -0.1588  0.2358  0.0180
 8875W        W22289   3.868   2.213   2.015 -0.2004 -0.0974 -0.0243
 8876W        W22290   7.295  11.458  11.718  0.1712  0.1482 -0.1785
 8877W        W22291  12.706   4.885   0.254 -0.0022  0.1729 -0.0174
 8878W        W22292   3.596   4.515  16.178 -0.0033  0.0115 -0.0778
 8879W        W22293  16.915  11.928  16.622 -0.0421 -0.2321  0.0567
 8880W        W22294   3.175  12.274  15.514  0.1292  0.2328  0.2988
 8881W        W22295   9.593  14.332   3.617 -0.1654 -0.0427 -0.3076
 8882W        W22296   9.923  10.865   5.532  0.0246 -0.0499  0.4061
 8883W        W22297   6.011   8.123   0.403  0.0036  0.2745  0.1271
 8884W        W22298   9.093  15.074  16.409 -0.2288 -0.0781 -0.2503
 8885W        W22299  16.598  15.606   1.553 -0.0248 -0.1145  0.1500
 8886W        W22300   0.587   1.001  12.469 -0.0379 -0.3507 -0.0429
 8887W        W22301  14.055  16.256  16.521  0.1102 -0.4004  0.2648
 8888W        W22302   6.305   3.441   5.653 -0.0454  0.1558 -0.0317
 8889W        W22303   2.542  15.974   0.162 -0.0581  0.0301  0.1226
 8890W        W22304   3.237  13.440   3.579  0.1400 -0.2567  0.0437
 8891W        W22305   2.620   5.290   4.988 -0.0154 -0.0071 -0.0273
 8892W        W22306  11.332   7.698   5.218 -0.2857  0.1323 -0.0871
 8893W        W22307   8.543  11.398  15.140 -0.0699 -0.2786  0.0999
 8894W        W22308   1.118  10.847  15.417  0.0307 -0.4705 -0.2605
 8895W        W22309  16.674  14.279  12.332 -0.0697  0.0893 -0.1539
 8896W        W22310  15.424   1.123   1.591 -0.0533  0.1012 -0.1253
 8897W        W22311  14.940   9.780   3.421  0.1852  0.0518 -0.1967
 8898W        W22312  13.492  13.843  15.109 -0.0551 -0.1523  0.0358
 8899W        W22313  17.505   1.769  14.660  0.1128 -0.0588  0.0426
 8900W        W22314   1.602   4.838  10.338  0.0756  0.1250 -0.0490
 8901W        W22315  11.910  12.839  12.198 -0.1607  0.0348  0.0235
 8902W        W22316   0.866  10.876   1.170  0.2099 -0.3232  0.0308
 8903W        W22317   2.017  12.766  16.441 -0.1572 -0.0682  0.3811
 8904W        W22318   1.561   0.756   3.957 -0.2189 -0.0789  0.0819
 8905W        W22319   9.150   3.107   1.257 -0.0707 -0.1486 -0.0891
 8906W        W22320   2.721  12.845  15.959  0.3333 -0.1812  0.1299
 8907W        W22321  16.745  17.504  12.354 -0.1334 -0.1698  0.2524
 8908W        W22322   9.508  14.082  12.945 -0.1315 -0.1315  0.3000
 8909W        W22323   3.731   9.417   6.743 -0.0939 -0.0877  0.0713
 8910W        W22324  16.157  16.641  16.770 -0.0296 -0.1775  0.0681
 8911W        W22325   1.349   9.972   3.299  0.0166  0.3449 -0.0394
 8912W        W22326  15.947  15.819  15.778 -0.3211 -0.0870  0.1092
 8913W        W22327   4.929   3.398   0.385  0.2901  0.1359  0.0231
 8914W        W22328   3.971   9.575  11.141 -0.0582 -0.2503 -0.3788
 8915W        W22329   8.272  15.255   2.795 -0.2247 -0.0603  0.0084
 8916W        W22330   4.105  10.170  11.816 -0.0883  0.0940 -0.3475
 8917W        W22331   8.046   7.774  13.068 -0.1312  0.0496  0.2079
 8918W        W22332  11.378  12.667   3.846 -0.1515  0.2779 -0.1887
 8919W        W22333   1.677  16.092  11.863 -0.3271 -0.0612  0.0570
 8920W        W22334   1.768  11.432   0.685  0.0240  0.0737  0.0694
 8921W        W22335   2.128   5.119  13.147 -0.3338  0.2641 -0.0097
 8922W        W22336  15.927   1.622  14.233  0.1573  0.1443  0.1286
 8923W        W22337   2.252  17.537  13.295  0.1853 -0.0930 -0.1062
 8924W        W22338  14.040   6.716  12.367  0.1463 -0.1627  0.1290
 8925W        W22339   4.761  15.904   3.830 -0.2677 -0.2236  0.0227
 8926W        W22340   8.559  11.706  15.545  0.1126  0.0325 -0.2831
 8927W        W22341  16.257   9.654   3.006  0.2016 -0.1538  0.3591
 8928W        W22342  10.822   6.588  12.706 -0.2102  0.1227 -0.1687
 8929W        W22343   0.094  14.655  13.120  0.3376 -0.0438  0.2233
 8930W        W22344  17.945  15.966  12.844 -0.1117 -0.0019  0.0293
 8931W        W22345   3.526  10.419   1.872  0.2932  0.3752  0.0759
 8932W        W22346   2.362  11.191  12.607  0.1925 -0.2883  0.1755
 8933W        W22347   4.825  13.736  11.456  0.2009  0.0781 -0.0262
 8934W        W22348  11.024  16.687  11.157  0.0323  0.0521  0.4470
 8935W        W22349  16.956  15.419  15.660 -0.2416 -0.3128  0.0104
 8936W        W22350   6.454   8.341   3.279  0.5160 -0.1198 -0.0230
 8937W        W22351   8.823   5.258  16.713 -0.1613 -0.0251 -0.0003
 8938W        W22352  10.592   8.866   5.225 -0.3923 -0.0998  0.3479
 8939W        W22353   0.315   8.219   0.650  0.0069  0.3259  0.1372
 8940W        W22354   3.974  11.937  14.158  0.2577  0.2981  0.1827
 8941W        W22355  12.802   4.309   4.519 -0.0444 -0.1923  0.0027
 8942W        W22356   3.995  16.088  11.707  0.1926  0.0690 -0.0368
 8943W        W22357  16.896   7.201   5.498  0.0737  0.0680  0.3183
 8944W        W22358  16.285   5.200   2.146 -0.1786 -0.1093 -0.1962
 8945W        W22359   5.523   9.522  13.240  0.2219 -0.0406  0.1217
 8946W        W22360   9.907  13.456   2.364 -0.0305  0.1287 -0.4629
 8947W        W22361  14.196   9.021  12.054 -0.1436  0.1165  0.0047
 8948W        W22362   8.996  17.436  11.512  0.3511  0.0185  0.5031
 8949W        W22363  13.914   9.219   5.900  0.1194 -0.2243  0.1706
 8950W        W22364  14.615  12.511   5.335 -0.0026 -0.3074 -0.0954
 8951W        W22365   9.813   7.311  13.765 -0.1739  0.0841  0.0018
 8952W        W22366   7.367  16.693  12.449 -0.4096 -0.0436  0.0058
 8953W        W22367   2.756   8.360  12.510 -0.0845 -0.2082 -0.2486
 8954W        W22368   2.004   8.083  15.447  0.1961 -0.2332  0.0226
 8955W        W22369   8.206  16.480  15.173  0.0548 -0.0004  0.2968
 8956W        W22370   8.245   0.923   1.016 -0.0483  0.0564 -0.2196
 8957W        W22371   1.876  11.001   0.480  0.0180 -0.1444  0.2207
 8958W        W22372   4.307  10.352  16.327 -0.1645  0.1373  0.0674
 8959W        W22373  13.031  13.126  11.755 -0.1218 -0.0157 -0.1751
 8960W        W22374   9.665   8.127   1.141  0.1048  0.0013  0.1135
 8961W        W22375   6.140  11.026  11.741 -0.0273  0.0757  0.1383
 8962W        W22376  13.854   4.137   0.225  0.0886  0.0965  0.1033
 8963W        W22377  17.209   3.363  15.407 -0.1132 -0.1446 -0.0271
 8964W        W22378   5.878   2.577  11.576  0.1689  0.0298 -0.0050
 8965W        W22379  15.303   4.319   2.157 -0.0368 -0.1214  0.3076
 8966W        W22380   8.563   2.506   3.775  0.1769  0.1651 -0.2766
 8967W        W22381   0.592  17.495   2.196  0.1066 -0.3292  0.0918
 8968W        W22382  14.056   9.900   3.025  0.1692 -0.3676  0.0088
 8969W        W22383   2.148  12.467   1.326  0.2535  0.0839  0.5878
 8970W        W22384  10.498   4.931  12.735 -0.2018  0.1247  0.1736
 8971W        W22385  14.662  13.534  15.657 -0.4166  0.0134  0.1424
 8972W        W22386  17.214   9.323   3.045  0.0701  0.0401 -0.3228
 8973W        W22387  15.185   8.971  15.367  0.0363  0.1396  0.0782
 8974W        W22388   3.180  10.799   0.670  0.1059  0.1530  0.0868
 8975W        W22389   7.886  15.786   3.908  0.0674 -0.1005  0.1020
 8976W        W22390   4.722  12.942   4.206  0.0468  0.0641  0.0751
 8977W        W22391  16.932   0.621   3.515 -0.0107  0.1092  0.1135
 8978W        W22392   2.766   3.393   2.003  0.0167  0.1127 -0.0917
 8979W        W22393   3.542  17.528  12.615  0.0246 -0.0243  0.1560
 8980W        W22394   4.105   0.781   1.053 -0.0884 -0.1397  0.2354
 8981W        W22395  13.297   6.160  11.504 -0.2621 -0.0541  0.0861
 8982W        W22396   4.440   4.469   5.368  0.0984 -0.1017  0.0280
 8983W        W22397  13.149   2.086   6.465 -0.0723  0.1894  0.0321
 8984W        W22398   7.297   3.927   3.232 -0.1384 -0.0068  0.1785
 8985W        W22399  10.422  10.170   4.401  0.0340  0.0088 -0.2210
 8986W        W22400   1.019   8.630  15.666  0.0271  0.1860 -0.2584
 8987W        W22401  12.702  17.502  14.525 -0.0248 -0.1532  0.0511
 8988W        W22402  13.889   7.570  15.636 -0.0932  0.3440  0.0702
 8989W        W22403   9.458  13.572  12.234  0.1374 -0.0814  0.1762
 8990W        W22404  11.102  12.024   5.895  0.0143 -0.1098  0.0279
 8991W        W22405   3.482   2.928   0.234  0.2508  0.1356  0.0618
 8992W        W22406   2.322   1.966  12.309  0.1559 -0.0135  0.0478
 8993W        W22407   8.688   0.538  15.610 -0.3201 -0.2680 -0.2248
 8994W        W22408  12.050   5.854   1.755  0.4364 -0.2236 -0.1953
 8995W        W22409  12.871   5.388  11.009 -0.1208  0.0423 -0.0601
 8996W        W22410  11.410   4.606  15.258  0.1536  0.0065  0.0294
 8997W        W22411   8.422  17.601   1.662 -0.1224 -0.1098  0.1508
 8998W        W22412  10.386   2.330   0.845 -0.2589  0.0816 -0.1874
 8999W        W22413  11.579   1.748  13.121 -0.1853  0.1335 -0.1581
 9000W        W22414   8.793  13.751   4.846 -0.0327 -0.1105  0.0842
 9001W        W22415  12.252   5.452   2.693 -0.2226  0.0679 -0.0118
 9002W        W22416  12.681  12.322  14.778  0.0157  0.2541 -0.3568
 9003W        W22417  13.484  11.815   5.690  0.1216  0.0943  0.0375
 9004W        W22418  15.194   3.001   0.734 -0.0916 -0.1299  0.1993
 9005W        W22419  16.515  17.639   5.364 -0.1108  0.0501 -0.1960
 9006W        W22420  10.309  11.103  13.425  0.2842  0.1763  0.0874
 9007W        W22421  12.006  13.472   3.586 -0.1114 -0.1444 -0.3485
 9008W        W22422  17.107  15.054   1.246 -0.0362 -0.4093 -0.1230
 9009W        W22423   6.957   8.270   5.699 -0.0094 -0.3976 -0.1196
 9010W        W22424   7.708  17.880  16.133  0.2424  0.3015 -0.1082
 9011W        W22425   5.921   8.908  11.700 -0.0607  0.0495  0.0609
 9012W        W22426  15.927  13.723   5.010  0.2153  0.0655 -0.0998
 9013W        W22427  10.028  12.698  11.969 -0.0273  0.1566  0.1594
 9014W        W22428  14.873   8.051   2.186 -0.2449 -0.1357 -0.2628
 9015W        W22429  14.344  14.672  16.620 -0.3427  0.4512 -0.0602
 9016W        W22430   7.224   4.442  14.227 -0.4102 -0.2330 -0.3961
 9017W        W22431  15.027   8.625   1.048  0.0140  0.0792 -0.0745
 9018W        W22432   9.351   3.478  13.642  0.0110  0.3534 -0.3537
 9019W        W22433  11.289   1.971  11.685  0.1712 -0.1636  0.1231
 9020W        W22434  15.134   3.925  15.450  0.0782  0.1190  0.1320
 9021W        W22435   6.695   5.652   0.605 -0.1247 -0.3920  0.0582
 9022W        W22436   5.618  16.235  10.923  0.1340  0.0765 -0.2284
 9023W        W22437   3.209   6.740  13.909  0.0149 -0.3465  0.1813
 9024W        W22438   2.741   7.675  15.413 -0.0534 -0.0676  0.0223
 9025W        W22439  10.192  13.510  11.424  0.2225 -0.0755  0.6207
 9026W        W22440  16.606   5.756  10.254  0.1000 -0.0132 -0.1967
 9027W        W22441  11.469   2.514   0.515 -0.0879  0.0736  0.1697
 9028W        W22442  15.923   4.551  16.505  0.1129 -0.0980 -0.1882
 9029W        W22443   6.238  17.507  13.095  0.1448  0.0375 -0.0374
 9030W        W22444   4.318   7.313  14.410  0.2120 -0.2517 -0.1599
 9031W        W22445   7.186   2.532  14.389 -0.0564 -0.3474 -0.0089
 9032W        W22446   4.237   4.994  16.629 -0.1822  0.2266 -0.0229
 9033W        W22447   2.329   1.977   1.438 -0.0943 -0.3681 -0.1584
 9034W        W22448   2.565   9.506  13.274 -0.0954  0.0364  0.3669
 9035W        W22449  17.989   5.103  14.054 -0.1718 -0.0071 -0.2606
 9036W        W22450  15.480   1.630   1.024  0.0775  0.1149  0.1111
 9037W        W22451  17.099   1.153  15.603 -0.2875 -0.1117  0.0046
 9038W        W22452  10.897   3.635   0.654  0.1792  0.1695  0.0386
 9039W        W22453   7.639   6.490   1.808  0.2826  0.3655 -0.0844
 9040W        W22454   6.106   9.760  13.094  0.3572  0.1433 -0.2909
 9041W        W22455  10.217   6.189  14.484  0.1608 -0.1728  0.3852
 9042W        W22456  13.949   5.923   2.708  0.3657  0.0912  0.4502
 9043W        W22457   8.019  16.981  12.894 -0.1284 -0.1712  0.1737
 9044W        W22458   8.168  15.637   4.862 -0.0348 -0.1581  0.0024
 9045W        W22459  15.259   7.829   1.252 -0.1741 -0.2100 -0.0251
 9046W        W22460  17.533  15.191   1.556 -0.2734  0.0065 -0.0239
 9047W        W22461  15.733   1.874   0.703 -0.2137 -0.0639  0.2040
 9048W        W22462   1.538   8.284  15.582 -0.2327  0.1164  0.1734
 9049W        W22463  11.471  17.351  11.662  0.1440 -0.0391  0.1101
 9050W        W22464  17.620   2.176   0.145 -0.0531  0.4694 -0.1699
 9051W        W22465   6.914   4.905  13.908 -0.1578  0.0448  0.0533
 9052W        W22466  11.324  10.255   1.466 -0.4455 -0.0959  0.0593
 9053W        W22467   1.146   0.576  11.694 -0.0110  0.2310 -0.0530
 9054W        W22468  12.263   3.309  15.018  0.1014 -0.0552  0.0216
 9055W        W22469   9.805   2.402  15.915 -0.1334 -0.3085 -0.4717
 9056W        W22470  11.351   9.567  13.460  0.0133 -0.0069  0.1528
 9057W        W22471   3.752  13.927  10.043 -0.0436  0.3942 -0.1414
 9058W        W22472   4.364  16.685  14.607 -0.2131 -0.1094 -0.1686
 9059W        W22473   0.033   8.190   1.649 -0.0564 -0.0585 -0.3312
 9060W        W22474  12.237   8.786   1.950  0.0696 -0.1043 -0.0320
 9061W        W22475   6.806   5.592  14.426  0.1316  0.0089 -0.4656
 9062W        W22476   2.155  10.189  13.889 -0.1658 -0.0643 -0.1763
 9063W        W22477  17.029  10.384  13.517  0.2172  0.1889  0.0566
 9064W        W22478   2.392  17.609  15.338  0.1135  0.2614  0.0800
 9065W        W22479  17.402   9.080   4.046  0.2659 -0.4074 -0.4494
 9066W        W22480   3.895  17.644  14.465 -0.3116  0.0343 -0.1708
 9067W        W22481   8.045   9.605  11.519 -0.2790 -0.0444  0.1483
 9068W        W22482   7.401  16.393  11.296  0.0629  0.1195  0.1433
 9069W        W22483  14.921   9.663   2.832 -0.0241 -0.0450  0.0190
 9070W        W22484   9.846  16.669   2.543  0.1300 -0.2929  0.0895
 9071W        W22485   0.206  11.434   4.461 -0.0748  0.1935  0.0782
 9072W        W22486   2.980  10.306   1.832 -0.0799  0.0135  0.0356
 9073W        W22487  13.345  14.852  10.912  0.0304  0.0460 -0.1484
 9074W        W22488   8.786   2.488  10.634 -0.0676 -0.2366 -0.1571
 9075W        W22489  12.665   3.331   1.625 -0.2779  0.0658 -0.1283
 9076W        W22490   6.804   7.129   3.423  0.2062  0.2728 -0.1197
 9077W        W22491  12.209  16.989   2.032  0.3671 -0.1448  0.1594
 9078W        W22492   4.452  14.689  16.031 -0.1297 -0.2512  0.0645
 9079W        W22493  10.793  11.255  14.058  0.1224  0.0286  0.0963
 9080W        W22494  12.913  14.379   4.223  0.1934  0.1571  0.0895
 9081W        W22495  16.263  13.383   5.162 -0.2066 -0.0371 -0.2324
 9082W        W22496   8.814  12.172  16.273  0.2500  0.0629  0.1539
 9083W        W22497   9.221   0.191   3.346  0.2073 -0.0187  0.1673
 9084W        W22498  16.045  12.864   3.087  0.2096  0.1387  0.0813
 9085W        W22499   3.247  11.870   3.309  0.0094  0.0027  0.0806
 9086W        W22500   6.790  17.950   1.649 -0.1170  0.1811 -0.0495
 9087W        W22501   4.352  12.658   1.206 -0.1819  0.2909  0.0769
 9088W        W22502   3.119   1.416  10.814  0.2172  0.0927  0.1391
 9089W        W22503   6.650  10.264  12.229 -0.1051  0.3169  0.0937
 9090W        W22504  10.324  13.010   1.684  0.1755  0.0529  0.2832
 9091W        W22505   5.047   8.298  14.683 -0.2189 -0.0110 -0.1038
 9092W        W22506   4.309   2.929   4.182 -0.1468 -0.0030 -0.2155
 9093W        W22507   9.736   7.679   4.853 -0.0479 -0.1438  0.2193
 9094W        W22508  13.713  10.406   4.009 -0.0377 -0.1879 -0.1372
 9095W        W22509   0.347  17.011  15.946 -0.0554  0.0389 -0.1586
 9096W        W22510  16.959   7.924  10.445  0.2449  0.1586  0.0495
 9097W        W22511   5.476   9.900   5.248  0.0505  0.0292 -0.0282
 9098W        W22512  14.168  12.441   4.476 -0.1587  0.3938  0.2574
 9099W        W22513   5.101   9.782  13.056  0.2959  0.3487  0.0370
 9100W        W22514  10.412   2.264   4.796 -0.0401 -0.2669  0.0190
 9101W        W22515   1.584   5.656  13.434  0.1516 -0.1766 -0.2500
 9102W        W22516  12.565   8.790  11.235  0.0800  0.0821 -0.0560
 9103W        W22517   8.007   9.619   0.548  0.1959  0.2218 -0.2333
 9104W        W22518   3.883  10.206   5.393  0.0210  0.0737  0.1286
 9105W        W22519  12.964   2.270   4.695  0.0343  0.2521  0.0098
 9106W        W22520  12.230   8.977   4.599  0.0845  0.2440 -0.4007
 9107W        W22521  16.067   9.852  16.059  0.1560  0.3045  0.0187
 9108W        W22522  11.632  15.861   2.295  0.2450 -0.0333  0.4226
 9109W        W22523   7.333  15.563   5.388  0.0051 -0.2198  0.1210
 9110W        W22524   0.819   1.573   0.505  0.0624 -0.0535 -0.0823
 9111W        W22525   8.934   0.813  11.471 -0.0363 -0.0499 -0.2243
 9112W        W22526   8.047   2.740   4.656  0.2462 -0.1188  0.1111
 9113W        W22527  13.292   8.200   0.508 -0.0777 -0.1011  0.1963
 9114W        W22528  16.275   4.515   1.162 -0.0709 -0.1708  0.1184
 9115W        W22529  12.673  10.358  13.220 -0.0676 -0.1177  0.0939
 9116W        W22530  14.335  14.027  11.756  0.0600  0.0824 -0.0039
 9117W        W22531   2.402  10.403  14.277 -0.0925 -0.3016 -0.0998
 9118W        W22532   7.024  14.992   4.090 -0.1166 -0.1638  0.1191
 9119W        W22533  14.185   4.250   0.609 -0.0463 -0.0569 -0.4307
 9120W        W22534  15.982  13.306  11.263  0.3845 -0.1474  0.0456
 9121W        W22535   8.579   3.873  16.068 -0.0649  0.1329  0.1922
 9122W        W22536  16.128   6.862   4.133  0.1582 -0.0150 -0.0559
 9123W        W22537   5.483  14.655  13.880  0.1108  0.0603 -0.0720
 9124W        W22538  11.025  16.087   4.200  0.1252 -0.1317  0.2944
 9125W        W22539   5.440   1.179   4.038  0.0919  0.0657 -0.0932
 9126W        W22540  16.474  11.967   0.128  0.1749 -0.0110  0.1067
 9127W        W22541   3.058  12.943  12.284 -0.1508 -0.1791  0.1735
 9128W        W22542   5.180   2.433  16.738  0.4462  0.2016 -0.0751
 9129W        W22543   9.328  16.888   4.638 -0.0284  0.0015 -0.4087
 9130W        W22544  12.696  14.899   6.629  0.1799 -0.0571  0.0946
 9131W        W22545  12.563   2.397   0.606 -0.1609 -0.0209  0.0647
 9132W        W22546   4.059   7.108   1.274 -0.2319 -0.2256 -0.1861
 9133W        W22547  12.250  14.919   1.028 -0.3165  0.1513  0.0231
 9134W        W22548   9.427   4.621  11.332  0.0813 -0.1618  0.1165
 9135W        W22549   0.630   8.407   0.267 -0.2150 -0.0608 -0.2212
 9136W        W22550  12.245  11.833   6.448 -0.3549 -0.1234  0.0065
 9137W        W22551   3.772  13.763  12.329 -0.0469  0.0054  0.0095
 9138W        W22552   8.114   7.545   3.414  0.0149 -0.1304  0.1179
 9139W        W22553  14.162   6.321  15.355  0.2625 -0.1174 -0.4431
 9140W        W22554   6.661  10.844  15.019 -0.4262  0.1305  0.0680
 9141W        W22555  15.837   3.344  12.075  0.0648  0.2068 -0.2680
 9142W        W22556   1.702   8.409   1.401  0.0851  0.0046  0.2360
 9143W        W22557  13.623  16.687   0.937  0.0454  0.0105 -0.0319
 9144W        W22558  10.656  14.338  12.225 -0.5960  0.3040 -0.0885
 9145W        W22559   4.736  15.746  13.875  0.0891 -0.0794  0.1060
 9146W        W22560  12.127   2.276  10.918  0.2114  0.0812 -0.2908
 9147W        W22561   6.574   8.566   0.437  0.0788 -0.0417  0.0892
 9148W        W22562   7.533  16.148  12.251  0.2232 -0.0886  0.0114
 9149W        W22563  12.516   3.856  11.715  0.1044  0.1722  0.2276
 9150W        W22564  11.381   8.797  12.513 -0.0988  0.3595  0.0444
 9151W        W22565  17.751  10.003   0.344 -0.1916  0.1106  0.1930
 9152W        W22566   7.562  12.002   2.466 -0.0181 -0.2274  0.1228
 9153W        W22567  15.850   0.448  11.120 -0.1310 -0.0310  0.1908
 9154W        W22568   9.345   7.745  14.599 -0.0183  0.1771  0.1855
 9155W        W22569  17.602  15.172  14.424 -0.1570 -0.2094 -0.1640
 9156W        W22570   6.682  13.853  15.760  0.1652  0.0049  0.0655
 9157W        W22571  10.404   4.698  10.773  0.0392 -0.0203 -0.0578
 9158W        W22572   2.301   1.509   1.319  0.2728  0.3006 -0.1086
 9159W        W22573   5.920   7.576  13.711 -0.3024 -0.0819  0.2184
 9160W        W22574   9.510  12.202   6.913 -0.0172  0.3771 -0.1413
 9161W        W22575  12.316   9.984   3.317  0.0161 -0.1743 -0.0568
 9162W        W22576   9.191   7.760  13.998  0.4239 -0.1059  0.1041
 9163W        W22577   9.770  13.795   1.379 -0.0605 -0.0570  0.1062
 9164W        W22578  11.583   7.854   2.515 -0.1167  0.0184  0.0930
 9165W        W22579   0.982   8.914  16.549 -0.0109  0.0138 -0.1515
 9166W        W22580   7.423   9.538   4.996  0.0652  0.0089  0.0414
 9167W        W22581   6.272  12.583  14.231  0.0101 -0.0162 -0.2476
 9168W        W22582   9.402  13.586   5.191 -0.2550  0.0681 -0.1438
 9169W        W22583   9.706   1.918  16.223  0.2802  0.1840 -0.4030
 9170W        W22584   0.649   1.718   5.056 -0.1122 -0.0790  0.2289
 9171W        W22585   3.580   2.795   4.598  0.0004 -0.3597  0.0939
 9172W        W22586   7.356  13.670   0.561  0.0159  0.1511 -0.1534
 9173W        W22587   6.061  15.756   3.379 -0.0935 -0.2195  0.0639
 9174W        W22588   7.410  12.230   3.690 -0.0899 -0.0556  0.2085
 9175W        W22589   7.469   3.251   1.095  0.0108  0.3653  0.1078
 9176W        W22590  10.550  11.308   6.025 -0.1660 -0.1038 -0.2007
 9177W        W22591   4.452   6.029  15.447 -0.0208 -0.1059  0.1750
 9178W        W22592  17.106   1.632  10.725 -0.1276 -0.1322  0.1532
 9179W        W22593  11.339  13.172   0.981 -0.0880  0.3833  0.0656
 9180W        W22594   1.689   5.396  15.672  0.0502  0.0292  0.0348
 9181W        W22595   6.660  14.817  14.340 -0.3600  0.1410 -0.1539
 9182W        W22596   6.952  16.108   2.310  0.0067  0.2705 -0.0479
 9183W        W22597   0.994  17.947  13.686 -0.2944  0.0620  0.0477
 9184W        W22598  12.356  16.572   4.060 -0.1941  0.1391  0.3048
 9185W        W22599   4.473   3.424   0.550  0.0917  0.0673  0.1681
 9186W        W22600   2.689   9.654   6.058  0.0269 -0.0755 -0.0747
 9187W        W22601   8.700  15.759   0.279 -0.1934  0.1938  0.0807
 9188W        W22602   7.141   9.176   0.319  0.1078 -0.0102  0.0672
 9189W        W22603   6.606  12.035   0.919 -0.2743  0.1157 -0.1417
 9190W        W22604   9.433   8.362  13.152  0.0141 -0.3734  0.0040
 9191W        W22605  12.526   6.745   5.466  0.0567  0.2419 -0.1311
 9192W        W22606   0.639  16.567  11.063 -0.2674  0.2173 -0.1363
 9193W        W22607   7.247  12.321   7.178  0.0900 -0.3286 -0.3875
 9194W        W22608  13.018   4.270   2.310 -0.1663 -0.3149 -0.0522
 9195W        W22609   0.496  17.074   3.335  0.4376 -0.2743 -0.1374
 9196W        W22610  17.619   2.262   0.739 -0.3509  0.1981  0.1070
 9197W        W22611  13.226  12.179  15.054  0.3945 -0.4106 -0.0539
 9198W        W22612   1.346   5.501   3.661  0.1239  0.1439  0.2672
 9199W        W22613   3.572  13.701   3.944  0.0767  0.2112 -0.1173
 9200W        W22614   0.586   0.981  15.635  0.0627  0.0981 -0.1438
 9201W        W22615  14.094  17.781   6.154 -0.1905 -0.1611  0.0256
 9202W        W22616   6.625  17.252   0.449 -0.0594 -0.1838 -0.0390
 9203W        W22617  13.213  13.781   3.078  0.0446 -0.2865  0.0065
 9204W        W22618  11.278   4.402  12.357  0.0208 -0.1589  0.2711
 9205W        W22619   5.235  13.725  11.166  0.0294 -0.1890  0.1050
 9206W        W22620   5.762  13.227   1.190  0.0969  0.1825 -0.3496
 9207W        W22621  14.295  14.082   5.861  0.0837 -0.1197 -0.2384
 9208W        W22622   1.594  17.466  10.692 -0.0752  0.3168  0.2634
 9209W        W22623   7.475   0.283   4.145 -0.1607 -0.3181  0.1716
 9210W        W22624   0.014  15.057   2.904  0.1825  0.0380  0.3249
 9211W        W22625   5.078   3.713   1.495  0.1682  0.1991 -0.1977
 9212W        W22626  16.677   1.159  14.695  0.0273  0.2322  0.1796
 9213W        W22627  15.196  15.815   3.790  0.0452  0.3041  0.1212
 9214W        W22628   5.544  11.723   0.105  0.3119 -0.1063 -0.4512
 9215W        W22629  14.191   5.591   3.108 -0.1718  0.0600 -0.3544
 9216W        W22630  16.641   8.643   5.974 -0.1480 -0.0802 -0.1454
 9217W        W22631  17.762   9.879   4.105 -0.0046  0.1645  0.2134
 9218W        W22632   3.937   2.457  11.534 -0.1292  0.2590  0.1194
 9219W        W22633  15.315  14.901   2.813 -0.1055  0.2882  0.0236
 9220W        W22634   5.032   4.408  13.924 -0.1983 -0.1424  0.1026
 9221W        W22635  10.065  12.917  12.949  0.2345 -0.0162 -0.1731
 9222W        W22636  12.607  15.449  10.687 -0.1022 -0.0145 -0.0063
 9223W        W22637  14.293  13.045   1.329  0.0705  0.0056  0.0964
 9224W        W22638   0.771   5.002   5.256 -0.1289  0.1386 -0.0373
 9225W        W22639  14.160   1.663  14.392 -0.2150 -0.1066  0.1713
 9226W        W22640   4.619   2.880  13.202 -0.2215 -0.0107  0.1690
 9227W        W22641  12.703   5.848   0.383 -0.0729 -0.1358 -0.2541
 9228W        W22642   1.705   7.841   2.417  0.1669  0.2175 -0.3210
 9229W        W22643  15.721   7.981  16.089  0.0722 -0.2625 -0.3330
 9230W        W22644   2.672  12.961  10.872 -0.1505  0.1391  0.0906
 9231W        W22645   5.961   7.065   5.557  0.3465 -0.0108 -0.2494
 9232W        W22646   4.091  12.499  11.634  0.1374 -0.1798 -0.0338
 9233W        W22647  10.044   6.184  10.752  0.0376  0.0340 -0.2080
 9234W        W22648   9.327  13.664  13.897 -0.0299  0.0526  0.0977
 9235W        W22649  14.566  11.269  13.557 -0.2404 -0.0304 -0.1203
 9236W        W22650   9.929   6.668   4.487  0.1723 -0.3508 -0.0280
 9237W        W22651  13.690   7.266   4.640 -0.3028  0.2943 -0.3322
 9238W        W22652   6.750   9.198   3.854 -0.1184 -0.0316 -0.4363
 9239W        W22653   6.679  14.430   2.158 -0.1268  0.1037  0.0916
 9240W        W22654  15.514   2.641   3.062 -0.0535 -0.0144 -0.1519
 9241W        W22655  16.409   6.747   1.374  0.1133 -0.1263 -0.1509
 9242W        W22656   4.304   8.781   2.582 -0.1490  0.1617  0.1836
 9243W        W22657   2.574   0.105  15.634 -0.1710  0.0120 -0.1484
 9244W        W22658   5.796   2.870  11.960 -0.0112  0.0812  0.0075
 9245W        W22659   6.482   7.281   5.664  0.2012 -0.2864  0.0301
 9246W        W22660   6.029   9.542  13.936  0.2686  0.0758 -0.0072
 9247W        W22661  16.560  13.673   4.248 -0.0547  0.3097  0.3579
 9248W        W22662   5.393  10.977  14.933  0.3102 -0.1156  0.2402
 9249W        W22663   9.707   0.012  10.926  0.1312 -0.1980  0.1838
 9250W        W22664   3.436   7.742   1.557  0.0173  0.3027  0.0278
 9251W        W22665  11.390   2.241   1.718  0.1551  0.1007  0.0361
 9252W        W22666  11.417  10.162  12.545  0.0911  0.1035  0.3056
 9253W        W22667   8.950   1.492   2.834  0.0375 -0.0104  0.0348
 9254W        W22668   7.211  16.906   4.007 -0.1124  0.2500  0.1825
 9255W        W22669  11.641   6.906   2.755  0.1980 -0.1663 -0.2034
 9256W        W22670   9.386   4.497  12.759  0.0001  0.1633  0.0741
 9257W        W22671   8.889  17.139  13.602  0.2282 -0.0948  0.2239
 9258W        W22672  17.688   5.909  14.676 -0.0076 -0.0958 -0.0000
 9259W        W22673  10.005   8.482  14.483 -0.0492  0.0195  0.1737
 9260W        W22674  13.345   5.066   4.884  0.0019 -0.2139 -0.2185
 9261W        W22675  17.481  14.253  16.591 -0.0722 -0.0234  0.0780
 9262W        W22676  16.161  13.220   2.097 -0.0180  0.0170  0.2820
 9263W        W22677   3.257  15.369  13.500 -0.0713  0.1061 -0.0071
 9264W        W22678   6.196   6.495   4.808  0.3066 -0.1695 -0.0117
 9265W        W22679   3.135   5.031  12.410 -0.3799  0.1169  0.2915
 9266W        W22680  13.391   2.810   4.103  0.0291 -0.0983 -0.1880
 9267W        W22681  11.104   5.537  12.026 -0.2170  0.1679  0.1087
 9268W        W22682   1.134  17.680   0.035  0.2038 -0.0818 -0.0712
 9269W        W22683   8.047   3.980  13.848  0.0113 -0.1739 -0.0890
 9270W        W22684  11.748   7.746   2.068  0.0346 -0.3346 -0.0654
 9271W        W22685  13.133  12.669   2.825  0.0979 -0.1816  0.0298
 9272W        W22686   2.820   2.598  10.562 -0.0150  0.1854  0.2077
 9273W        W22687  13.764   3.528  11.965 -0.1151 -0.2786  0.0503
 9274W        W22688  15.298  11.820  13.778  0.2634  0.1834 -0.0458
 9275W        W22689  12.557  15.051   2.583 -0.1814 -0.1596  0.0819
 9276W        W22690   2.938   8.750   3.265 -0.0109  0.1965  0.2424
 9277W        W22691  14.970   8.215   1.504  0.0336 -0.1430  0.1664
 9278W        W22692   5.579  11.460  13.997  0.0361  0.0811  0.1199
 9279W        W22693   6.015   4.347  11.948 -0.0374 -0.0183 -0.0548
 9280W        W22694  12.234   1.124  11.941 -0.1217 -0.1054 -0.0249
 9281W        W22695   0.630   8.987  10.877 -0.0747 -0.1776  0.2140
 9282W        W22696  14.832   6.256   3.002 -0.0222 -0.3259  0.1012
 9283W        W22697   3.704   7.612   3.395  0.2345 -0.3660  0.0679
 9284W        W22698   0.003  12.510   1.072  0.1891 -0.0174  0.0585
 9285W        W22699   9.766   8.615   4.817  0.1738  0.2319 -0.2506
 9286W        W22700   1.156   9.341  13.160  0.0183  0.1855  0.0366
 9287W        W22701   3.433   4.754  15.712 -0.0908 -0.0054  0.3679
 9288W        W22702   2.038  10.444  10.351  0.2142  0.3271 -0.0919
 9289W        W22703  12.755  17.898   0.937  0.3261  0.3156 -0.3945
 9290W        W22704   5.614  11.465   5.994  0.2560 -0.0936 -0.3429
 9291W        W22705   1.879   4.703   4.518 -0.1643 -0.4254 -0.3041
 9292W        W22706  10.231  10.152  11.744 -0.1076  0.0861 -0.0234
 9293W        W22707  13.481  10.538  12.999 -0.0446  0.1409 -0.2812
 9294W        W22708  12.780   0.032   4.244 -0.0204 -0.1425 -0.1535
 9295W        W22709   7.544   0.917  10.584 -0.1661 -0.0738 -0.0492
 9296W        W22710   7.149   4.567   0.098 -0.3370  0.1090 -0.2348
 9297W        W22711  17.097   5.888  14.742  0.0512  0.0272 -0.1114
 9298W        W22712   5.863  17.317  16.285 -0.0713  0.1221 -0.2035
 9299W        W22713  15.091   5.277  15.433  0.1348 -0.1964  0.1448
 9300W        W22714  13.953   5.794   5.120 -0.0012  0.1301  0.0122
 9301W        W22715  16.512  17.852   1.444 -0.2548  0.0596  0.1854
 9302W        W22716  16.312  11.255  16.253 -0.0855 -0.1015  0.1260
 9303W        W22717  15.100   1.485  13.834 -0.1557 -0.1009 -0.1266
 9304W        W22718  17.141   2.106  14.910  0.3062  0.2448 -0.1131
 9305W        W22719  14.474  10.434   4.064 -0.0659  0.0087  0.0276
 9306W        W22720   5.282   7.689  16.260 -0.4354  0.1565  0.0260
 9307W        W22721   1.132  13.724   5.230  0.1844  0.1152  0.2414
 9308W        W22722  12.525  12.571   1.477  0.4429 -0.2071  0.0272
 9309W        W22723  10.492   0.812   4.756  0.2805 -0.1129 -0.1305
 9310W        W22724  11.875   7.448   2.473  0.1262  0.2157 -0.0238
 9311W        W22725   4.445  17.672   3.176 -0.0600  0.2574 -0.1999
 9312W        W22726  16.443   4.805  13.514 -0.2126 -0.0120  0.0307
 9313W        W22727   6.241   3.733   1.078 -0.0326 -0.0514 -0.1149
 9314W        W22728   2.565   5.191   5.797  0.1066 -0.0817  0.0961
 9315W        W22729  11.410   7.571  14.944  0.1684 -0.1489  0.0909
 9316W        W22730  14.867   7.628   3.948  0.0693 -0.1458  0.2638
 9317W        W22731   4.848   9.356  13.002  0.0385 -0.1597  0.0121
 9318W        W22732   7.977  13.107  11.604  0.0357 -0.3548 -0.0900
 9319W        W22733  17.421  11.248  16.222 -0.0197  0.2046 -0.1475
 9320W        W22734  12.449   9.982   1.440 -0.0016  0.1958 -0.0003
 9321W        W22735   5.193  11.172   5.053 -0.0629 -0.1657 -0.0048
 9322W        W22736   3.806   8.872   4.537  0.0768 -0.3572  0.0259
 9323W        W22737   2.370   5.943   4.324 -0.3256 -0.1037 -0.0593
 9324W        W22738  13.495   9.038  12.735  0.4038  0.0873  0.4051
 9325W        W22739  10.707   7.399   5.053  0.0243 -0.1429 -0.1360
 9326W        W22740  11.795   3.762   5.527  0.0732  0.0166  0.1486
 9327W        W22741  10.249  14.159   5.616 -0.0365  0.1364  0.2045
 9328W        W22742  17.573   9.460  14.692  0.0166 -0.1589 -0.2546
 9329W        W22743  14.842  14.964  14.346 -0.1697 -0.1780  0.0465
 9330W        W22744  12.849   4.908  16.133 -0.0135  0.2693  0.0412
 9331W        W22745   6.606  12.008   5.568  0.0424  0.0354 -0.1031
 9332W        W22746  14.660  15.763   0.265  0.0900 -0.0535  0.1624
 9333W        W22747   7.194   2.297   2.157 -0.0504  0.4265 -0.1448
 9334W        W22748  12.636  11.149  11.692 -0.0554  0.0830 -0.1025
 9335W        W22749  16.235   7.932   2.198  0.0164  0.2694  0.1102
 9336W        W22750  16.847   5.892  10.686 -0.0608 -0.0648  0.1846
 9337W        W22751  10.974   4.306  16.158  0.0051 -0.1315  0.1723
 9338W        W22752  14.380  13.113   5.878 -0.1787  0.0223 -0.0934
 9339W        W22753   9.603   4.610  11.761  0.2420  0.4688 -0.1629
 9340W        W22754  15.752   3.849   6.340 -0.2549 -0.2998 -0.1947
 9341W        W22755  17.009   2.623   3.734 -0.0397  0.1933 -0.0449
 9342W        W22756   4.270  14.443  16.469 -0.1528 -0.1007  0.2850
 9343W        W22757  17.985  15.897   0.490  0.0683 -0.1633  0.0753
 9344W        W22758  10.552   6.134   4.160  0.0105 -0.0378  0.0817
 9345W        W22759  10.296  13.661  14.337 -0.0327  0.2134  0.2658
 9346W        W22760  15.110   9.471  13.530 -0.2189  0.0443  0.0496
 9347W        W22761   5.746  16.620  12.403 -0.0822  0.1171  0.0903
 9348W        W22762   5.333   1.969  16.152 -0.2256  0.4073  0.2153
 9349W        W22763   3.574  13.665  13.120  0.0562 -0.1260  0.2154
 9350W        W22764  11.631   0.515  12.349  0.1724 -0.2434 -0.1965
 9351W        W22765   0.415   5.201  14.796 -0.1490 -0.3156 -0.0076
 9352W        W22766   7.852  17.736   5.389 -0.2950  0.2909  0.3645
 9353W        W22767  15.310   6.366   2.863 -0.2905  0.3238 -0.3159
 9354W        W22768   4.313  15.791  12.644  0.0395  0.1723  0.1207
 9355W        W22769  17.985  17.798   3.859  0.4681  0.1732 -0.0413
 9356W        W22770   9.165  16.121   2.797  0.0776 -0.1075  0.1497
 9357W        W22771  17.669   9.374   3.271  0.1664 -0.2002 -0.0634
 9358W        W22772   9.657   5.161   9.767  0.0230  0.3027 -0.2127
 9359W        W22773   7.296  10.248   4.397 -0.0256  0.0527  0.1699
 9360W        W22774   2.972  15.975  11.711 -0.2112  0.1462  0.1475
 9361W        W22775   7.745  10.128   6.930  0.1952  0.1963  0.3940
 9362W        W22776   9.590   7.197  16.086 -0.1871 -0.0377 -0.2713
 9363W        W22777   4.327   5.776  16.771  0.0733 -0.0181 -0.0060
 9364W        W22778   1.931   7.954  14.731 -0.3742 -0.2979  0.0628
 9365W        W22779   2.065  10.918  16.267 -0.1708  0.1609 -0.3484
 9366W        W22780   8.026   4.110   2.958 -0.0838  0.0366 -0.1753
 9367W        W22781  17.760  11.162   6.514 -0.0176 -0.2150 -0.1157
 9368W        W22782  14.240   4.317   4.222 -0.5287 -0.0614  0.1256
 9369W        W22783  14.169   0.495  10.619  0.0765  0.0803  0.2845
 9370W        W22784   7.140   0.639   0.903  0.0791 -0.0841  0.1670
 9371W        W22785  16.557  15.643  15.734 -0.1514  0.1387 -0.3175
 9372W        W22786  15.407  10.808  14.653  0.1709  0.2570  0.4179
 9373W        W22787   6.759   0.112  13.274  0.0609 -0.1836 -0.0006
 9374W        W22788   9.618  10.718   0.984 -0.0071 -0.5141 -0.2029
 9375W        W22789  13.054  11.136   3.720 -0.1634 -0.0286 -0.0995
 9376W        W22790   3.916   9.892   1.862 -0.0728 -0.0304  0.1925
 9377W        W22791  11.664  15.970   3.697 -0.1836  0.1993 -0.0117
 9378W        W22792   6.511  17.777   0.185 -0.2237 -0.0915 -0.0905
 9379W        W22793   7.095  12.351  11.481  0.0406  0.4570  0.1535
 9380W        W22794  10.628   3.518   2.435 -0.0545 -0.1047 -0.0523
 9381W        W22795  16.705   4.779  16.383 -0.0828 -0.2375  0.0469
 9382W        W22796   3.157  14.632   1.585 -0.3133 -0.0156  0.2517
 9383W        W22797   5.632   7.897   1.318 -0.3150  0.0414  0.0062
 9384W        W22798   2.336  10.862   1.471 -0.0544 -0.0204  0.0512
 9385W        W22799  14.356  12.556   5.872  0.0597 -0.0247  0.0706
 9386W        W22800   7.340  14.732  14.807 -0.0213 -0.0724 -0.3633
 9387W        W22801  13.839   4.981  14.135 -0.2961 -0.0536 -0.2905
 9388W        W22802   3.549   7.653  12.917  0.1913  0.0752  0.0324
 9389W        W22803   5.056   7.954  14.001  0.4059  0.2422  0.2414
 9390W        W22804  12.618   2.318  12.504  0.0261 -0.4057 -0.0781
 9391W        W22805   7.291   6.948   2.597  0.0899  0.0188  0.1179
 9392W        W22806  12.692   3.086   5.603  0.0985  0.1170 -0.1244
 9393W        W22807   3.527   0.734   2.178 -0.0412 -0.1828 -0.1031
 9394W        W22808  16.864  11.554   5.325  0.1167 -0.0014  0.1114
 9395W        W22809   0.208   0.823   2.036  0.0702 -0.0061  0.1033
 9396W        W22810   3.539   5.631  16.484  0.0266 -0.0654  0.0313
 9397W        W22811  15.374   8.508  13.531 -0.1455 -0.0321  0.0346
 9398W        W22812  12.897   8.562  10.954 -0.1249  0.1241 -0.2298
 9399W        W22813   9.931   9.445  13.848 -0.0629 -0.0432  0.1343
 9400W        W22814  12.353  16.641   3.590  0.1851 -0.1022 -0.0990
 9401W        W22815  13.536   3.655   1.632  0.2136 -0.2613 -0.2842
 9402W        W22816  17.385  14.036  16.144 -0.0778 -0.2021  0.1087
 9403W        W22817  15.029  15.423  13.103 -0.1953  0.0800 -0.1704
 9404W        W22818   3.047   3.210   2.366  0.1124 -0.1167  0.1912
 9405W        W22819   4.585   4.471   1.489  0.4028  0.1841  0.0841
 9406W        W22820   5.636   4.312   5.068 -0.1720 -0.1018 -0.1478
 9407W        W22821  10.635   3.904  11.908  0.0699 -0.3958  0.0747
 9408W        W22822   6.927  11.601   0.330  0.0597  0.0031  0.0421
 9409W        W22823  16.749  14.849  15.461  0.2593  0.1670  0.0151
 9410W        W22824   6.463  16.702  14.088 -0.2148  0.1212 -0.2095
 9411W        W22825   2.021   3.478   2.646  0.1332  0.1084 -0.1064
 9412W        W22826   8.143   3.279  12.310 -0.0922 -0.3562 -0.3659
 9413W        W22827  17.956   3.198   5.023 -0.3938  0.0525 -0.2757
 9414W        W22828  12.762   5.859   5.042 -0.3255 -0.0590 -0.1578
 9415W        W22829   3.256   9.599  16.019 -0.1365  0.1460  0.0949
 9416W        W22830  13.920   2.958  14.937 -0.0733  0.1874 -0.1556
 9417W        W22831  13.099  14.546  16.423 -0.0705 -0.0952  0.1286
 9418W        W22832   3.957  15.981  12.210  0.0644  0.1049  0.0536
 9419W        W22833  11.226  13.162   1.471 -0.0088 -0.1006  0.3002
 9420W        W22834   0.479   7.732   3.177 -0.3775 -0.2835  0.0716
 9421W        W22835  15.616   9.011  12.690  0.2836 -0.1494 -0.1863
 9422W        W22836   4.554   3.193  12.477  0.1467 -0.0948 -0.0712
 9423W        W22837   2.871   1.765  12.790  0.0617  0.2581 -0.0105
 9424W        W22838   9.735   4.665   1.520 -0.0998  0.2653 -0.0533
 9425W        W22839   2.452   8.059  15.719  0.1895  0.2010 -0.1741
 9426W        W22840   3.751   7.165   3.985 -0.1576  0.2537 -0.1011
 9427W        W22841  13.708   7.418   0.179 -0.0295  0.0364  0.1268
 9428W        W22842  17.483  13.766   4.702  0.2312 -0.0941  0.0027
 9429W        W22843  15.817  11.937   1.823  0.3113 -0.2401 -0.2990
 9430W        W22844   4.666  17.987  12.802 -0.2036 -0.0217 -0.3956
 9431W        W22845   6.420   7.043   0.547 -0.1797 -0.2756 -0.0701
 9432W        W22846  12.186  12.175   4.046  0.3301 -0.3125 -0.2490
 9433W        W22847   3.121  14.914   4.421  0.3342 -0.1186 -0.0164
 9434W        W22848   4.773   1.138   2.099  0.1828  0.3212 -0.0704
 9435W        W22849  17.828   4.665   3.757  0.2610  0.0247  0.0874
 9436W        W22850   2.448   6.867   3.529  0.0226 -0.0877 -0.1012
 9437W        W22851  13.693   5.287  11.771  0.0883 -0.0260  0.2240
 9438W        W22852  16.210   0.317  13.641 -0.0380 -0.0262 -0.0830
 9439W        W22853   8.077   4.847  14.564 -0.0670  0.1208 -0.1891
 9440W        W22854  16.289   2.492   4.727  0.1227  0.1218 -0.0503
 9441W        W22855  15.939  12.892   0.258 -0.0362 -0.1100 -0.1258
 9442W        W22856  12.370  12.075  11.324 -0.2058  0.3412 -0.2026
 9443W        W22857   5.286  12.272  13.916  0.0701 -0.0522  0.0136
 9444W        W22858  13.984  10.667  15.011  0.0259 -0.1107  0.1357
 9445W        W22859  10.190   5.707  14.711 -0.0157 -0.1451  0.1088
 9446W        W22860   5.468  14.990   0.818 -0.1601  0.0716 -0.1967
 9447W        W22861   2.666   2.434  14.063 -0.2999 -0.2174 -0.0693
 9448W        W22862   1.122   6.354   0.396 -0.1341 -0.0003  0.3249
 9449W        W22863  10.500  16.975   5.905 -0.2046 -0.3226 -0.0046
 9450W        W22864  14.573  10.758   3.632  0.0999  0.0794 -0.1890
 9451W        W22865  12.530   0.971   2.669 -0.0113 -0.1883 -0.0014
 9452W        W22866  17.617  17.622   1.077 -0.1201 -0.1418  0.2289
 9453W        W22867  11.382   7.300   6.123 -0.3305  0.0517  0.0189
 9454W        W22868   2.241   6.493   4.856 -0.1749 -0.1433 -0.2615
 9455W        W22869  14.259   9.008  13.343 -0.0024  0.4000  0.2251
 9456W        W22870  17.020   2.980  15.697  0.0287  0.2739 -0.1006
 9457W        W22871  16.528   1.494   9.847 -0.0946  0.1855 -0.4142
 9458W        W22872   8.989   8.725  11.935 -0.1566 -0.1026  0.0771
 9459W        W22873   7.798  13.868   4.985  0.1100  0.1093  0.2444
 9460W        W22874   0.386  12.921  11.667  0.0284 -0.3787  0.0305
 9461W        W22875  13.006  10.506  15.837  0.0332 -0.1254 -0.0961
 9462W        W22876   1.986   8.852   1.542 -0.1837 -0.0641 -0.0335
 9463W        W22877  14.295   4.668   2.941 -0.1764 -0.0299  0.1132
 9464W        W22878  17.526   2.279   4.942 -0.2839  0.0088 -0.0738
 9465W        W22879   7.713   2.445   1.013  0.2242  0.1516 -0.0762
 9466W        W22880  16.543   9.383  11.496  0.1106  0.0213  0.1018
 9467W        W22881   1.797   2.747  13.783  0.0232 -0.1296 -0.0099
 9468W        W22882  12.434  13.628   4.803 -0.0640 -0.0962  0.0026
 9469W        W22883  17.595   3.835   3.550 -0.0815 -0.0991 -0.0401
 9470W        W22884   8.885   6.267   4.175 -0.0697  0.0642  0.0541
 9471W        W22885   7.830   7.584  12.564 -0.1386  0.1537  0.3052
 9472W        W22886  16.026   2.479  13.054 -0.0733 -0.0801 -0.0287
 9473W        W22887  10.871  14.679   4.132 -0.1025  0.0012  0.0773
 9474W        W22888   0.774  10.011  13.133 -0.0774 -0.0989  0.2351
 9475W        W22889   8.473   7.970  15.108  0.0481  0.0175 -0.0693
 9476W        W22890  14.958   5.899   0.650  0.1622 -0.1243  0.2950
 9477W        W22891   4.122  15.501  15.876  0.1847 -0.1727  0.0512
 9478W        W22892   2.458  11.132   1.984  0.1695  0.0689  0.0584
 9479W        W22893   0.101  11.676   1.461 -0.0698  0.0109 -0.2325
 9480W        W22894   7.112   4.395   1.922  0.3039 -0.0438  0.0383
 9481W        W22895   9.539   3.793  15.417  0.3586  0.0441  0.0090
 9482W        W22896  15.201  15.936  14.553  0.0846 -0.1944  0.0186
 9483W        W22897  15.918   3.259  14.164  0.1880 -0.4711  0.0431
 9484W        W22898   0.824   2.438   2.245  0.2817 -0.1623 -0.1085
 9485W        W22899   8.146   3.593  10.310  0.1683  0.0196  0.1493
 9486W        W22900   5.674   5.002   2.190  0.0380 -0.1322  0.2099
 9487W        W22901  17.918  13.879  16.272 -0.2656 -0.1516 -0.2279
 9488W        W22902   2.464   3.024  12.451  0.5972  0.0085  0.1946
 9489W        W22903   7.421  15.264  14.655 -0.1515  0.0853 -0.1512
 9490W        W22904  12.859   5.765  16.722 -0.3417  0.1283  0.0859
 9491W        W22905   5.877   7.221   1.599  0.1848  0.0277 -0.0073
 9492W        W22906   3.422   7.343   4.349 -0.0311 -0.2297  0.0507
 9493W        W22907   7.014   2.093  14.708  0.0774 -0.2496  0.1027
 9494W        W22908   4.017  11.580  13.765 -0.0878 -0.1373 -0.2523
 9495W        W22909   3.571  11.298   0.887 -0.1176  0.0522  0.3567
 9496W        W22910   3.878   1.019   2.405  0.1979 -0.2144 -0.0271
 9497W        W22911   0.516   5.158  15.894  0.0096 -0.0160  0.0320
 9498W        W22912   8.201  12.166  14.037  0.2538 -0.1549  0.0150
 9499W        W22913  11.044  14.622   3.229  0.3618  0.1546  0.0315
 9500W        W22914   1.377   9.606  11.080  0.2007 -0.1229  0.1836
 9501W        W22915   1.459   9.255  15.306 -0.1726  0.0645 -0.0286
 9502W        W22916  15.093  15.644  11.353 -0.2180  0.1290  0.1170
 9503W        W22917   6.681  14.065  10.421 -0.1357 -0.3294  0.0000
 9504W        W22918  11.808   0.775   2.070  0.0361  0.1525 -0.2519
 9505W        W22919  11.686   0.823  15.986  0.1746  0.0946 -0.0845
 9506W        W22920   8.658   6.015  12.278 -0.0482  0.1915  0.0525
 9507W        W22921   9.072   7.120  16.494 -0.0633  0.0133  0.1593
 9508W        W22922   8.661  15.186   3.604 -0.0275  0.1476  0.1487
 9509W        W22923   8.283   9.982   6.927 -0.0834 -0.1540  0.1147
 9510W        W22924  12.194  16.701   2.686  0.2509  0.0092 -0.1170
 9511W        W22925  10.664  10.449  16.105 -0.0141 -0.3196 -0.0052
 9512W        W22926  10.901  16.050  11.778  0.2948 -0.4131  0.1200
 9513W        W22927   8.668  12.290  13.286  0.1510  0.3316  0.0686
 9514W        W22928  13.871  11.682  12.920  0.1563 -0.3001  0.2009
 9515W        W22929   5.819   6.302  13.220  0.0232  0.0443  0.0976
 9516W        W22930   9.378   8.923  15.619 -0.0193  0.2263  0.1880
 9517W        W22931  15.801   9.852  11.189  0.0609  0.1970  0.0153
 9518W        W22932   2.125   4.035   5.217  0.1215 -0.0393 -0.0266
 9519W        W22933   4.522  15.686  15.560  0.1165 -0.1057  0.2844
 9520W        W22934  12.854   8.223  15.586  0.4884  0.0421  0.1480
 9521W        W22935   1.685  13.065  16.142 -0.4014 -0.2235  0.2513
 9522W        W22936   0.113   5.524   1.621 -0.2522 -0.2337 -0.0541
 9523W        W22937   5.296   1.680   4.085 -0.0929  0.1299  0.2998
 9524W        W22938   4.932   1.176   3.226  0.1112 -0.1836 -0.1401
 9525W        W22939  17.459   0.538   1.770  0.1778 -0.0508 -0.0290
 9526W        W22940   3.625  11.059  12.803 -0.2305  0.2620  0.0193
 9527W        W22941  12.229  11.765   1.947  0.2003  0.2236  0.0821
 9528W        W22942   3.010  15.961   2.536  0.0356  0.1991  0.2563
 9529W        W22943   0.652   7.378  11.441  0.0770 -0.1504  0.0974
 9530W        W22944   2.078   8.771   5.221 -0.1659  0.1224 -0.1563
 9531W        W22945   8.757  17.140   6.173 -0.2855  0.3154 -0.1611
 9532W        W22946  11.838  16.017   1.589  0.0931  0.1458  0.0865
 9533W        W22947   5.826   8.650  14.802 -0.1939 -0.1677 -0.0419
 9534W        W22948  16.178   7.545  12.270 -0.3015  0.2056  0.2722
 9535W        W22949   0.887   3.678   4.133 -0.1397 -0.1178 -0.0648
 9536W        W22950  13.195  10.672  11.335 -0.2390 -0.0889 -0.0301
 9537W        W22951   9.610   9.036  15.167  0.1740 -0.1861  0.3220
 9538W        W22952  17.195  14.829  15.697  0.1677 -0.1611  0.2183
 9539W        W22953   3.951   9.700  11.908  0.1190  0.0438  0.2280
 9540W        W22954   0.539  11.485   3.693  0.0517 -0.0495  0.0082
 9541W        W22955   7.474  17.921   5.079 -0.0108 -0.2472 -0.0717
 9542W        W22956   5.626  14.058   0.924  0.1297  0.3540 -0.3240
 9543W        W22957  16.759   0.973  15.958  0.1989  0.2361  0.2275
 9544W        W22958  17.107  17.621   1.868 -0.3287  0.2867  0.0146
 9545W        W22959   1.898   8.673   0.996  0.1408 -0.0279 -0.2580
 9546W        W22960  14.693   2.240   4.808  0.1125  0.1206 -0.1375
 9547W        W22961   6.997   4.704  13.468  0.2987  0.2491  0.0361
 9548W        W22962   1.046  12.581   0.271  0.0825 -0.0960  0.0230
 9549W        W22963   9.380   0.463   6.068  0.3146 -0.1590 -0.1248
 9550W        W22964   0.199   0.137   5.021  0.1880 -0.1794 -0.0817
 9551W        W22965  13.047  10.706   1.824  0.1034  0.0024 -0.1068
 9552W        W22966   4.764  17.374  10.999  0.0676 -0.1134 -0.1488
 9553W        W22967  18.002  14.188  13.282  0.0944 -0.1701 -0.1406
 9554W        W22968   8.101  12.126   2.460  0.1387 -0.3086  0.1902
 9555W        W22969   4.009   9.586   4.892  0.3073  0.1951  0.3885
 9556W        W22970  17.968  17.296   4.201  0.0091  0.1426  0.3543
 9557W        W22971   9.944  10.758  15.447 -0.0973 -0.2212  0.1528
 9558W        W22972   9.462  15.336  13.418 -0.2062 -0.1509 -0.1287
 9559W        W22973   2.175  12.760   4.423  0.0398 -0.0665  0.1839
 9560W        W22974   4.866  14.787   0.225 -0.0346  0.1205  0.1244
 9561W        W22975  16.009   0.591  15.255 -0.0885 -0.1494  0.2089
 9562W        W22976   5.031   5.771  13.761 -0.0845 -0.2515 -0.1865
 9563W        W22977  15.296   4.181  14.688  0.2054 -0.6003  0.2060
 9564W        W22978   0.774   6.232   3.424  0.1538  0.2277  0.1842
 9565W        W22979  15.340   5.193   0.216 -0.0049  0.1396  0.2218
 9566W        W22980  13.761   3.281  13.436 -0.2089 -0.1726  0.1437
 9567W        W22981  11.219   6.214  11.451  0.2521  0.0128 -0.1364
 9568W        W22982   1.639   2.451   0.113  0.0122 -0.3573 -0.0451
 9569W        W22983  14.280   3.794   0.181  0.1257  0.0096  0.3143
 9570W        W22984   2.658  13.701   5.000  0.0429  0.3127  0.0304
 9571W        W22985   6.269   5.338  13.041 -0.0738  0.1873  0.1660
 9572W        W22986  16.722   5.323   0.564 -0.0816 -0.3766  0.0746
 9573W        W22987   6.887  16.643  15.570 -0.0096 -0.2214 -0.2981
 9574W        W22988   7.114  14.325  13.134 -0.1088  0.0151 -0.0050
 9575W        W22989   9.036   3.431  15.902  0.2171 -0.4476  0.0388
 9576W        W22990  11.372  11.396   2.321  0.0313 -0.0843 -0.3413
 9577W        W22991   9.679  17.344   2.090 -0.0075  0.1640 -0.2134
 9578W        W22992  14.086   3.772   3.140 -0.0256  0.0388  0.0258
 9579W        W22993  13.593  13.557  15.474  0.0997  0.1128 -0.0662
 9580W        W22994  11.359   7.457   2.271  0.1061 -0.0318  0.2451
 9581W        W22995  17.691  11.431  13.063  0.0303 -0.1292 -0.0283
 9582W        W22996   6.535   0.642   0.819  0.0766 -0.0539 -0.1893
 9583W        W22997  15.117  17.678  14.664 -0.2501 -0.0040  0.0552
 9584W        W22998   9.373  16.423  15.967 -0.2484 -0.0242 -0.1052
 9585W        W22999  14.675  11.896   0.237  0.0495  0.2397  0.1500
 9586W        W23000   1.297  11.822   2.247 -0.0520 -0.2629  0.3466
 9587W        W23001   0.509  16.488  10.558  0.1905 -0.0260  0.0670
 9588W        W23002   5.919   8.460  11.990  0.0066  0.0225  0.2090
 9589W        W23003   0.381   1.379  10.882 -0.4096  0.2540 -0.0330
 9590W        W23004   2.929  12.611  13.567 -0.0546  0.1149 -0.0899
 9591W        W23005  12.921   5.072  12.313  0.1594 -0.1191 -0.0864
 9592W        W23006  16.842   5.546   0.119 -0.0434  0.0081 -0.2787
 9593W        W23007   5.104   6.619  16.072  0.0324 -0.0650  0.2181
 9594W        W23008   7.270  10.978  12.517  0.0411 -0.1462  0.1820
 9595W        W23009  17.419   6.070   4.737 -0.0594  0.0591  0.0794
 9596W        W23010   3.409   5.045  14.865 -0.0491 -0.3012  0.0660
 9597W        W23011   9.933   5.978  12.525 -0.0526 -0.1000 -0.2104
 9598W        W23012  13.976   1.087   0.078  0.1120  0.1895  0.1578
 9599W        W23013   7.063  16.442   4.219 -0.0336  0.0303 -0.3652
 9600W        W23014  16.197   6.070  14.081  0.1859 -0.4229  0.3569
 9601W        W23015   3.766   1.707   1.181 -0.1077 -0.1037  0.0259
 9602W        W23016  10.339   3.849   1.756  0.2167 -0.0941  0.2706
 9603W        W23017   3.693  11.202   1.948 -0.1095  0.1559 -0.2949
 9604W        W23018  17.107   2.837  13.764  0.0004 -0.3567  0.1114
 9605W        W23019  14.372   0.220  15.845  0.0050  0.2161  0.0946
 9606W        W23020   3.907   1.936  15.652 -0.1894  0.3341  0.0310
 9607W        W23021  14.228  11.511  14.367 -0.3087  0.0562 -0.0810
 9608W        W23022   2.009   4.868  12.604  0.0473 -0.1038  0.0272
 9609W        W23023   9.000  13.176   5.953 -0.0840 -0.0800  0.1543
 9610W        W23024  14.789  10.229   4.932  0.0352 -0.1779 -0.1577
 9611W        W23025   6.436   5.880   0.165 -0.0695  0.3027 -0.0176
 9612W        W23026  10.415   2.715   4.046 -0.1269  0.0765  0.1290
 9613W        W23027   6.027  12.521   5.992 -0.0635  0.2008  0.1209
 9614W        W23028   3.457  13.635   2.613  0.1185  0.4092  0.0384
 9615W        W23029  13.834   6.194  10.538 -0.1591  0.0736 -0.0121
 9616W        W23030  13.998  17.334  16.595 -0.0009 -0.4682  0.1195
 9617W        W23031  14.344   9.023   1.408  0.1390 -0.0252 -0.2243
 9618W        W23032  17.603   9.280   1.518  0.1817 -0.1585  0.2686
 9619W        W23033   4.844   6.854   3.405  0.1016 -0.0645  0.2539
 9620W        W23034   9.524  10.657  13.782 -0.1613  0.0136 -0.2328
 9621W        W23035  15.656  11.290  12.863  0.0579 -0.1808 -0.0925
 9622W        W23036   9.588  11.495  13.716  0.2561  0.0635 -0.0763
 9623W        W23037  16.386  16.749  16.310 -0.1322  0.2688 -0.0554
 9624W        W23038   4.665   7.403  14.849 -0.1715  0.0842 -0.1098
 9625W        W23039  17.318   3.889  15.301 -0.0846 -0.1902 -0.3918
 9626W        W23040  11.965   0.463  15.655  0.2742 -0.1536  0.0241
 9627W        W23041  15.879  13.666   2.024 -0.2286 -0.1068  0.1662
 9628W        W23042   1.559   6.553  16.431 -0.2339  0.1524  0.1005
 9629W        W23043  11.303  14.266  14.198 -0.0175 -0.0069  0.1657
 9630W        W23044  15.450  12.444   5.795  0.1131 -0.0522  0.0656
 9631W        W23045  10.134   4.670  12.063  0.2352 -0.0369 -0.0121
 9632W        W23046   4.596   0.983   4.105  0.0510  0.1041  0.0113
 9633W        W23047   9.373   1.148  10.632 -0.0820  0.0740  0.1251
 9634W        W23048   4.132  11.093  14.325  0.1708 -0.1309  0.0145
 9635W        W23049   1.770   9.590  10.801 -0.2074 -0.2217 -0.1182
 9636W        W23050   6.071   1.196  11.253  0.0281  0.1439  0.1582
 9637W        W23051  14.050   1.117   3.402  0.2005 -0.1884 -0.2062
 9638W        W23052   1.383  16.483  11.701  0.3837 -0.1025  0.0603
 9639W        W23053   8.064   5.024  14.067  0.1691  0.1662  0.0651
 9640W        W23054   5.334   3.716   0.647 -0.1976  0.0933 -0.0236
 9641W        W23055   9.068  15.465   5.256 -0.1572  0.1690 -0.1668
 9642W        W23056   9.461  13.548   5.703  0.2865 -0.0447 -0.3269
 9643W        W23057  15.686   0.576   4.904 -0.0310 -0.0962 -0.1294
 9644W        W23058  11.597  16.675   6.391 -0.0183 -0.4329  0.2793
 9645W        W23059   2.591   0.044   3.627  0.3831 -0.2077  0.1088
 9646W        W23060   7.012  17.628   5.184 -0.0546  0.1126  0.1790
 9647W        W23061   6.994   6.177   4.792 -0.0229 -0.2658 -0.1278
 9648W        W23062  14.951   6.289   5.377  0.0884  0.1319  0.1775
 9649W        W23063   3.947   4.370  11.674  0.1979 -0.4306 -0.1059
 9650W        W23064  10.977   8.028   6.236 -0.2189 -0.2387  0.0583
 9651W        W23065   7.634   9.892   0.274  0.0051 -0.1943  0.0241
 9652W        W23066   0.998   7.072   1.781  0.0759 -0.1998 -0.3364
 9653W        W23067  17.973   5.452  14.875  0.0849 -0.0401  0.1568
 9654W        W23068  10.280   5.183   5.281  0.2518  0.0091  0.1700
 9655W        W23069   8.520   1.681  16.720 -0.2040 -0.1359  0.1563
 9656W        W23070  10.113  13.962  15.241 -0.1315 -0.0631 -0.0380
 9657W        W23071   8.202  14.773   1.197 -0.1117 -0.3146 -0.0671
 9658W        W23072   9.081  13.664   0.910 -0.0582 -0.2623 -0.0250
 9659W        W23073   0.070  11.142  12.376 -0.0894  0.3319  0.1551
 9660W        W23074   7.149   0.562  16.113 -0.0613 -0.0815  0.1873
 9661W        W23075   2.161   5.449   5.684 -0.0209 -0.1811 -0.1346
 9662W        W23076   2.147   0.826  10.625 -0.0064  0.0562 -0.1222
 9663W        W23077  11.768  10.439   4.771  0.0561 -0.1033 -0.2898
 9664W        W23078   1.237   0.525  10.753 -0.1621  0.1132 -0.0708
 9665W        W23079  17.322   8.839   1.859 -0.1921 -0.1046 -0.1234
 9666W        W23080  17.897   9.121  12.812  0.2231 -0.0169 -0.0120
 9667W        W23081  15.116  17.831  12.312  0.3523  0.0661  0.0905
 9668W        W23082   7.198   0.110  13.552 -0.0037 -0.0999  0.0848
 9669W        W23083   5.373  15.963   1.069  0.1795  0.0508  0.0393
 9670W        W23084   5.508   9.554  12.714  0.4514 -0.1534 -0.0375
 9671W        W23085  16.146   7.253  15.591  0.0576  0.0270 -0.0830
 9672W        W23086   9.054  10.794  16.463  0.1958 -0.1437 -0.2223
 9673W        W23087   1.907  15.545  16.370 -0.0935  0.1256  0.1815
 9674W        W23088  16.856   0.849  13.642  0.0627 -0.0048  0.0212
 9675W        W23089  16.753  11.581  16.235 -0.5669 -0.1368 -0.3566
 9676W        W23090   7.103   4.395   3.243 -0.2942 -0.0556  0.2236
 9677W        W23091   3.530   2.891  14.745  0.1464 -0.0174 -0.0997
 9678W        W23092   1.061   4.366   2.221 -0.1044 -0.0929  0.2388
 9679W        W23093  11.527   6.564   2.388  0.1584  0.0171 -0.1028
 9680W        W23094  11.206  13.495   4.840 -0.2798 -0.2217 -0.1627
 9681W        W23095   3.152  13.844  12.137 -0.0176  0.0852 -0.1712
 9682W        W23096   9.140   8.779   6.170  0.1037  0.0306 -0.0663
 9683W        W23097  16.345  13.100  12.614 -0.1105  0.1772  0.0017
 9684W        W23098  13.444  14.441   0.902 -0.3898 -0.1341 -0.3903
 9685W        W23099   0.659  16.815  15.495  0.0569  0.1277  0.1235
 9686W        W23100   4.603  10.559   3.753 -0.3356  0.0202  0.0797
 9687W        W23101   7.656   7.385   0.425 -0.1580  0.0548 -0.1128
 9688W        W23102   7.202   8.535   1.220  0.5304  0.0937  0.1083
 9689W        W23103   1.516  14.286   3.939 -0.3025 -0.1026 -0.0272
 9690W        W23104   1.040   3.085  14.435  0.0347 -0.0090 -0.0183
 9691W        W23105   4.021   4.631  14.532 -0.1379 -0.2750 -0.0704
 9692W        W23106   3.763   8.332   4.630 -0.1955  0.1878  0.0697
 9693W        W23107  10.969  16.329  10.759  0.1598  0.1913 -0.1588
 9694W        W23108  12.261   5.371  12.823 -0.1048 -0.1180 -0.2858
 9695W        W23109  10.413   1.017  15.561 -0.0873  0.2110 -0.1536
 9696W        W23110   4.460  15.837  10.406 -0.0302  0.1026 -0.2283
 9697W        W23111  15.262   7.307  11.722 -0.0287 -0.0840  0.0850
 9698W        W23112  12.128  17.713  16.156  0.3399 -0.0201 -0.1341
 9699W        W23113   3.334   9.718   2.444  0.4510  0.0817  0.1498
 9700W        W23114  12.518  12.550  11.504 -0.0398 -0.0977  0.1208
 9701W        W23115  11.823  14.116   2.797  0.0393  0.0843 -0.0279
 9702W        W23116   9.204   2.108  14.657 -0.1887  0.0562 -0.0652
 9703W        W23117  13.125  11.142  15.015 -0.1316  0.1731  0.2349
 9704W        W23118  15.977   4.896   4.757  0.2871  0.0681  0.0575
 9705W        W23119  17.861  15.489  13.162  0.0149 -0.1508  0.1108
 9706W        W23120   2.661   7.025   0.420  0.1235  0.0900 -0.1761
 9707W        W23121   3.857  11.198  10.448  0.0622  0.0966  0.1105
 9708W        W23122  16.175   4.906  13.867  0.0165 -0.0666 -0.2309
 9709W        W23123   3.880  13.425   2.995 -0.1910  0.0404  0.1311
 9710W        W23124   0.551  11.389  13.225 -0.1125  0.0726  0.0229
 9711W        W23125  18.002   4.121   3.791 -0.1077 -0.0182 -0.2402
 9712W        W23126  17.260  15.430   0.966 -0.0429  0.0097  0.1871
 9713W        W23127  14.217   3.743   0.778 -0.0991  0.1795  0.0895
 9714W        W23128   6.951   3.177   5.306  0.1184 -0.1531  0.0964
 9715W        W23129   4.615   2.323  12.658 -0.1790  0.1175  0.1507
 9716W        W23130  16.856  17.177   5.051 -0.2094 -0.1033 -0.1437
 9717W        W23131  13.468   2.063   4.512 -0.3765  0.2635 -0.0115
 9718W        W23132  10.530   4.290  15.319  0.3506 -0.1014 -0.0628
 9719W        W23133  11.182   4.726  13.286 -0.0254 -0.0112 -0.1437
 9720W        W23134   0.431   5.433   4.053  0.0544  0.2369 -0.0503
 9721W        W23135   8.102   3.861  16.052 -0.3133 -0.0379 -0.3392
 9722W        W23136   7.533  14.087  16.291 -0.0755  0.0171  0.0745
 9723W        W23137  11.321  14.439   3.949 -0.2334  0.3761  0.1105
 9724W        W23138  13.070  13.389   0.581  0.0139 -0.3002  0.0480
 9725W        W23139   0.859   7.837  15.409  0.0099  0.3260 -0.0267
 9726W        W23140   7.208   2.901  15.650  0.1040 -0.1098 -0.0847
 9727W        W23141   3.221   0.676   1.207 -0.1575  0.3121 -0.2751
 9728W        W23142   0.618  11.376   2.020 -0.0778 -0.0001 -0.0213
 9729W        W23143  17.245   6.158   1.080  0.1620 -0.0737  0.0912
 9730W        W23144   8.258   5.153  12.512 -0.0194 -0.0048 -0.2226
 9731W        W23145  13.970   0.216  14.698 -0.0401 -0.1280  0.3744
 9732W        W23146  17.798  13.915  10.977 -0.2725 -0.0132  0.0452
 9733W        W23147   3.096   2.881   4.733  0.2241 -0.2362 -0.1229
 9734W        W23148  16.872  17.367  13.384  0.2932 -0.1229 -0.0951
 9735W        W23149  16.048   1.871  15.678  0.3065  0.0436  0.2299
 9736W        W23150   6.646  12.698   2.563 -0.0798 -0.1779  0.1330
 9737W        W23151   8.450  13.201   1.272  0.1716  0.0331  0.2431
 9738W        W23152   5.078  12.741  13.756  0.1069 -0.1243  0.0083
 9739W        W23153   8.241  17.642  10.737 -0.1892  0.0532 -0.1738
 9740W        W23154  13.708   0.253  14.204  0.1398  0.1006 -0.0707
 9741W        W23155  13.414   5.844  14.783 -0.0908 -0.0549 -0.0055
 9742W        W23156  12.018  13.307   4.603  0.2363  0.2147 -0.0607
 9743W        W23157   2.498   9.398  15.564 -0.1007  0.0876  0.2499
 9744W        W23158  10.805  12.984   1.716 -0.1124  0.2393  0.1175
 9745W        W23159  14.106  11.060  12.874 -0.0374  0.0148  0.1365
 9746W        W23160   5.582  10.472   3.737  0.0722  0.0190  0.2299
 9747W        W23161  17.152   6.150  13.043 -0.3161 -0.2505 -0.0856
 9748W        W23162   0.198  15.089  10.524  0.0497  0.0712  0.3257
 9749W        W23163   9.564   4.594   4.033  0.1664  0.0749 -0.0729
 9750W        W23164  17.351  10.943   1.676  0.0062  0.2060  0.4275
 9751W        W23165   3.186  14.584  16.550  0.0700  0.0446  0.3278
 9752W        W23166   1.615   5.234  12.695  0.0118  0.0398  0.1461
 9753W        W23167  14.406   5.035  14.721  0.0256 -0.2300  0.1623
 9754W        W23168  11.720  14.512  15.097 -0.0830  0.0789  0.0510
 9755W        W23169  14.454  12.763  13.798 -0.0447 -0.1600  0.4168
 9756W        W23170  16.779  10.524  15.197 -0.0126  0.0371  0.2319
 9757W        W23171   2.581  14.712   4.403 -0.0761  0.2198 -0.0534
 9758W        W23172  10.229   0.310  12.099  0.0477  0.0293 -0.2762
 9759W        W23173   6.552  15.412  14.967  0.1406 -0.1608  0.1684
 9760W        W23174  14.886   1.447   5.105 -0.1525 -0.0715  0.0120
 9761W        W23175  16.175  17.131  15.919  0.0018 -0.0317  0.1427
 9762W        W23176   1.315   0.875  12.843 -0.0239  0.0237  0.0030
 9763W        W23177   5.018   8.017  12.869  0.1412  0.0754 -0.1450
 9764W        W23178   1.550  10.401   1.396 -0.0155 -0.1005  0.1062
 9765W        W23179  14.133   3.714   2.587  0.0026 -0.1677  0.1669
 9766W        W23180   4.761   6.908  16.457 -0.0584 -0.0235 -0.0823
 9767W        W23181   9.390   9.138   7.021  0.3355 -0.0714 -0.0891
 9768W        W23182  16.506   8.146  10.555  0.0001 -0.1252  0.0189
 9769W        W23183   1.335   7.736  15.521  0.1130  0.0859  0.1876
 9770W        W23184  17.390   7.921   5.655 -0.1300 -0.0589  0.0963
 9771W        W23185   9.046  12.234  13.699 -0.1272 -0.1524  0.0292
 9772W        W23186   7.383   0.985   2.138  0.3340  0.1641  0.0121
 9773W        W23187   7.010  13.540   1.881 -0.1320 -0.1302 -0.0340
 9774W        W23188  12.589   1.984   0.872 -0.0200  0.0463 -0.3110
 9775W        W23189   2.802  15.146   0.478 -0.0079  0.1320  0.0048
 9776W        W23190   7.443   4.045  10.765 -0.0615  0.1115  0.0465
 9777W        W23191  17.213  10.549  13.977 -0.0713 -0.0340  0.2830
 9778W        W23192  14.946  16.160   4.144 -0.0080 -0.0763 -0.1055
 9779W        W23193   4.920   2.880  16.624  0.1966  0.1722 -0.0637
 9780W        W23194   1.940   1.914  12.571  0.0264  0.0464  0.1634
 9781W        W23195   5.870  13.801   5.125 -0.0676 -0.0293 -0.0224
 9782W        W23196   2.217  12.716   2.934  0.3671 -0.5611 -0.0643
 9783W        W23197  17.176  12.214   1.536 -0.1213  0.1384  0.2028
 9784W        W23198   4.841   5.378  16.056 -0.1227  0.0339 -0.2192
 9785W        W23199   2.046  15.083   4.606 -0.2242  0.1681  0.4512
 9786W        W23200  12.274  17.004   0.522 -0.0819 -0.1135 -0.0806
 9787W        W23201   1.651   5.681   1.913 -0.2285  0.2071 -0.0013
 9788W        W23202   5.111  13.581   3.041  0.2136 -0.2158 -0.0152
 9789W        W23203   9.523   1.499  10.953 -0.1053  0.1818  0.0847
 9790W        W23204   5.652   4.744  10.536 -0.0424 -0.2272  0.2291
 9791W        W23205   2.237   0.576  15.680 -0.2411 -0.0606  0.0528
 9792W        W23206   4.516   5.910   1.848 -0.2678  0.2005  0.0485
 9793W        W23207   7.788  12.132   2.038  0.0322 -0.3449 -0.3529
 9794W        W23208   0.155   8.751  15.802 -0.0744 -0.0893  0.1301
 9795W        W23209   9.421   3.120   2.384 -0.1256 -0.2343 -0.0029
 9796W        W23210   2.319   6.192   0.233 -0.2450  0.1286 -0.2071
 9797W        W23211   5.567  12.760   0.364 -0.0957 -0.1604  0.0174
 9798W        W23212   6.265  15.611   5.776  0.2590 -0.0490  0.0842
 9799W        W23213   6.807   6.610  13.538  0.1193  0.1965  0.4154
 9800W        W23214  12.398   8.318  14.576 -0.4202  0.1778 -0.1747
 9801W        W23215   4.592  14.103   5.225 -0.0047 -0.1674 -0.1393
 9802W        W23216   0.297   1.900  12.404  0.0517  0.0716  0.0506
 9803W        W23217   5.251  12.993   6.817  0.1789 -0.1716 -0.1959
 9804W        W23218  10.938  12.794  12.859 -0.0763 -0.0127 -0.0789
 9805W        W23219  17.126  10.967   2.533  0.0831  0.2768  0.1594
 9806W        W23220  11.770  11.387  14.980 -0.0523  0.0008 -0.0545
 9807W        W23221  13.874   6.430  14.010 -0.2613 -0.2154  0.1284
 9808W        W23222  14.965  13.973   4.985 -0.3104  0.3350  0.1400
 9809W        W23223  13.778  12.398  16.127 -0.1376  0.0961 -0.1292
 9810W        W23224  17.934  13.462   4.587 -0.0948  0.0122 -0.0654
 9811W        W23225   6.922   7.494  16.500  0.1136 -0.1792 -0.3431
 9812W        W23226   0.889  11.843  15.904  0.1084 -0.2127 -0.4167
 9813W        W23227  17.888  14.753  11.365 -0.0441 -0.1554 -0.4460
 9814W        W23228   6.309  13.107   3.095  0.1404 -0.1480 -0.2300
 9815W        W23229   0.730   1.098  14.936 -0.1645 -0.1988  0.0102
 9816W        W23230   2.128  13.711   1.011 -0.5584 -0.3935  0.0814
 9817W        W23231   3.325   3.353   3.110  0.0766 -0.2571  0.3783
 9818W        W23232   0.290  13.012   0.887 -0.0652 -0.1007  0.1522
 9819W        W23233  16.772  16.972   2.684  0.1892 -0.0733  0.3660
 9820W        W23234   2.749  11.506  14.036 -0.0534 -0.0693 -0.0804
 9821W        W23235  16.169  14.694  14.151 -0.2274  0.1677 -0.0222
 9822W        W23236   2.494   9.764   5.065 -0.2701  0.0894  0.1750
 9823W        W23237   9.724   4.698  15.659 -0.1274 -0.2506  0.0756
 9824W        W23238   5.162  17.390   9.811  0.4915  0.4367  0.0932
 9825W        W23239  15.905   4.023   2.957  0.1419 -0.0634 -0.0860
 9826W        W23240  16.773  14.286  10.210 -0.1825  0.3105 -0.2021
 9827W        W23241   7.696   8.673  14.031 -0.1509  0.1286 -0.0498
 9828W        W23242   7.258   5.619  15.412  0.1627  0.2525 -0.1422
 9829W        W23243   8.923   5.913   3.798 -0.2846  0.1577  0.0468
 9830W        W23244  16.895   7.977  16.567  0.0256 -0.1020  0.1177
 9831W        W23245   0.651   6.714  12.675  0.1869  0.1913  0.0805
 9832W        W23246   8.170  17.476   2.128  0.1214 -0.0048  0.1779
 9833W        W23247   2.215  10.392  16.343  0.1394 -0.3978 -0.1186
 9834W        W23248  17.885   2.302   2.324 -0.0524  0.2684 -0.1727
 9835W        W23249  15.240   5.213  13.861 -0.0539 -0.1340 -0.1170
 9836W        W23250   1.207   3.106   0.557  0.1980 -0.0303  0.3999
 9837W        W23251   8.336   7.905  15.942  0.2060  0.0450  0.0438
 9838W        W23252   1.570  11.884   0.117  0.2287  0.5174 -0.1266
 9839W        W23253   2.252   8.431   2.887  0.0777  0.0285  0.1722
 9840W        W23254   5.164   7.471  15.703  0.1600 -0.0783  0.3282
 9841W        W23255   1.420  16.815   4.244  0.0158  0.1872 -0.3002
 9842W        W23256  17.271   4.631  11.591  0.1917 -0.0181  0.0065
 9843W        W23257   8.553  13.212  14.467 -0.0093 -0.3073  0.1183
 9844W        W23258   8.138  10.466   4.226 -0.1926 -0.0508  0.1069
 9845W        W23259  14.484   7.400  12.496 -0.2293 -0.2211 -0.1115
 9846W        W23260   0.420  12.636   5.050  0.1084  0.1370 -0.1148
 9847W        W23261   4.593   5.671   5.630 -0.0513  0.1308  0.1614
 9848W        W23262  11.274   5.343   4.112  0.2100  0.2403 -0.2389
 9849W        W23263   5.711  14.055   2.234 -0.0418  0.0809  0.1642
 9850W        W23264  12.791  16.483   3.787  0.0531  0.0886 -0.0151
 9851W        W23265  14.470   9.736  13.741 -0.1615  0.0095 -0.0964
 9852W        W23266  10.972   5.629   2.726 -0.0192  0.1087 -0.0269
 9853W        W23267  14.201   8.850  14.269  0.1541  0.0097  0.3176
 9854W        W23268   9.197  13.013   1.773 -0.1724  0.0096 -0.0584
 9855W        W23269   8.026   0.438  11.911  0.0138  0.0155  0.0021
 9856W        W23270   1.618  13.987  16.045  0.0738  0.0665 -0.1477
 9857W        W23271   7.021  17.120  15.565  0.1303  0.0052  0.0418
 9858W        W23272  13.879   1.468  11.376  0.0614 -0.1144 -0.4390
 9859W        W23273  16.474   6.975  14.421  0.1032  0.0395  0.0320
 9860W        W23274  10.308   6.085  13.600 -0.0500  0.1656  0.0329
 9861W        W23275  13.331  11.492   1.326 -0.0329  0.2242 -0.0909
 9862W        W23276   2.183   2.526  15.048  0.2262  0.0911  0.0874
 9863W        W23277   3.178   3.329   0.041  0.1448 -0.1182  0.0448
 9864W        W23278   3.600  10.656  14.756  0.1097  0.1166  0.0676
 9865W        W23279   4.433   4.318   1.976 -0.2938 -0.0132 -0.0715
 9866W        W23280   9.353   2.798   1.750 -0.0957 -0.2379  0.2015
 9867W        W23281   4.339   2.998   2.919 -0.0989  0.1597  0.0061
 9868W        W23282   6.393  10.731  14.163 -0.2925 -0.1018  0.2153
 9869W        W23283  16.333   6.963   2.900 -0.2712  0.1150 -0.1326
 9870W        W23284   9.806   2.017   2.852 -0.2414  0.0398  0.0722
 9871W        W23285  10.417  17.236   3.580  0.3451 -0.2672 -0.0841
 9872W        W23286  12.286   0.218   2.610  0.0092  0.2848 -0.0630
 9873W        W23287   8.136  17.823  14.376 -0.1195 -0.0957 -0.1575
 9874W        W23288   9.649  14.317  11.709  0.5485 -0.1380 -0.2974
 9875W        W23289  10.830  17.458  15.614 -0.1143 -0.0375  0.1453
 9876W        W23290  14.145  12.309   2.735  0.0800 -0.0085 -0.1301
 9877W        W23291  16.319   3.211   5.193 -0.0141 -0.1019 -0.1545
 9878W        W23292   4.473   3.620  14.711 -0.0464 -0.1226 -0.0583
 9879W        W23293   0.346  17.394   0.429  0.0521  0.1195 -0.1442
 9880W        W23294   9.894  15.169   0.801  0.1076 -0.2091  0.2476
 9881W        W23295  17.329   6.854   4.661  0.0207 -0.4118 -0.2817
 9882W        W23296   6.890  16.869   3.042 -0.2006 -0.2706  0.2317
 9883W        W23297  10.648   1.420   1.009 -0.2153 -0.0137  0.0281
 9884W        W23298   6.147  17.119  14.042 -0.0454  0.1785 -0.2265
 9885W        W23299   3.934  10.577  16.073  0.3028  0.1390 -0.0243
 9886W        W23300   9.653  10.004  15.710 -0.2217  0.0614  0.0253
 9887W        W23301   5.288  13.301   2.544 -0.0078  0.2139  0.1927
 9888W        W23302  14.384  16.943  11.617  0.0572  0.0173 -0.1413
 9889W        W23303   0.029  17.281  15.641  0.0179 -0.0849 -0.1652
 9890W        W23304   8.626   0.938   5.134 -0.1549  0.1344  0.2328
 9891W        W23305   8.033   8.910  15.356 -0.0427 -0.3499  0.0608
 9892W        W23306  14.666   5.190   0.865  0.0592 -0.1860  0.1170
 9893W        W23307  16.276  17.260   5.124  0.1926  0.0437  0.0827
 9894W        W23308   2.904   8.740  14.214  0.1579 -0.0616 -0.1636
 9895W        W23309   3.864  15.120  12.055 -0.3149 -0.0260  0.2196
 9896W        W23310   8.947   2.414  14.349 -0.1896  0.0126  0.4301
 9897W        W23311   6.511  10.434  16.154 -0.1541  0.0134 -0.3223
 9898W        W23312  12.570  12.440  10.568 -0.0292  0.0607 -0.0259
 9899W        W23313   2.074   6.181  12.451 -0.1159  0.1341  0.0445
 9900W        W23314  11.878  17.562   2.726  0.1904 -0.1142 -0.0562
 9901W        W23315   2.994  12.565   2.789 -0.0756 -0.1074 -0.3042
 9902W        W23316   0.924  16.502  11.893  0.0269 -0.0565  0.1573
 9903W        W23317  10.990   7.643  10.888  0.0129  0.1886  0.1046
 9904W        W23318  13.781  11.843   3.189  0.0180 -0.1812  0.0553
 9905W        W23319   8.146  14.868   1.671 -0.0666  0.0727  0.1744
 9906W        W23320   5.467  12.644  12.816 -0.1764  0.1659 -0.1010
 9907W        W23321   4.661   2.685  12.187  0.2201 -0.0736  0.0026
 9908W        W23322  14.411  16.331  11.923 -0.0703 -0.1821  0.0924
 9909W        W23323   4.265  11.213  13.437  0.0693 -0.1506 -0.3428
 9910W        W23324   4.201  13.273  11.073  0.1958  0.2670 -0.4759
 9911W        W23325  11.786   6.642  10.518 -0.5839  0.1726  0.0891
 9912W        W23326   8.221  10.743   1.844 -0.2039  0.1261 -0.0626
 9913W        W23327  13.950  13.423  16.255 -0.0382  0.1207 -0.2797
 9914W        W23328   8.024   3.860  14.336  0.0333 -0.1539  0.0139
 9915W        W23329   0.470   1.702  10.510 -0.1746  0.0581  0.0994
 9916W        W23330  10.776   6.872   5.140  0.0086  0.0856 -0.1250
 9917W        W23331   8.010  17.629  11.710  0.0295  0.3205 -0.1819
 9918W        W23332  17.913   5.114   2.430  0.0488 -0.3659  0.1387
 9919W        W23333  12.484  13.582   0.367 -0.0426 -0.3022 -0.1554
 9920W        W23334   7.621   9.492  11.285  0.1614  0.0552 -0.0959
 9921W        W23335   4.699   9.487  16.282  0.1946 -0.0577  0.0037
 9922W        W23336  13.337  10.132  14.515  0.0783 -0.1476 -0.2922
 9923W        W23337  13.327  16.181  12.599  0.1522 -0.0342  0.0198
 9924W        W23338  16.348   6.543   2.483  0.0557  0.3440 -0.1897
 9925W        W23339  13.992  14.892   4.788  0.0010  0.4127  0.2984
 9926W        W23340   4.750  15.347   3.573 -0.0742 -0.0775 -0.1009
 9927W        W23341  13.650   7.703  12.302 -0.2489 -0.1182 -0.1231
 9928W        W23342  10.389  17.854  12.217 -0.2114 -0.0149  0.1986
 9929W        W23343   8.416   4.864  13.173 -0.2317  0.0355 -0.3092
 9930W        W23344  13.977   1.343   5.001 -0.2502 -0.2667  0.1292
 9931W        W23345  10.498  17.148   0.721 -0.2270  0.0746 -0.1575
 9932W        W23346  16.050   4.630  15.550 -0.0528  0.1497  0.1136
 9933W        W23347  11.824  10.026   0.166 -0.0650 -0.0709  0.3100
 9934W        W23348   9.114  16.930  15.230  0.0335  0.0847  0.0752
 9935W        W23349   4.183  13.005   5.439  0.0273 -0.0669 -0.0197
 9936W        W23350   7.044   4.169  12.791  0.1070  0.1763  0.0711
 9937W        W23351   3.123   0.293  12.591  0.2474  0.4489  0.2824
 9938W        W23352   9.639  15.501   0.421  0.0116 -0.2298 -0.0985
 9939W        W23353  13.279  12.932  16.116  0.2687  0.0379  0.2539
 9940W        W23354   1.948   4.195  14.788  0.0417 -0.0701 -0.0335
 9941W        W23355   1.667  10.478   0.222  0.4407 -0.0752  0.0290
 9942W        W23356  10.000  15.065  14.167 -0.3583  0.2545 -0.0404
 9943W        W23357   1.731   5.097   6.313 -0.1324 -0.2678 -0.0054
 9944W        W23358   8.945  16.133   3.283 -0.1363  0.1330 -0.1201
 9945W        W23359  14.466   1.270   4.829 -0.0568 -0.0213 -0.1590
 9946W        W23360   2.289   0.754  16.652 -0.0495  0.1068 -0.2620
 9947W        W23361  13.180   4.187  14.100  0.1457  0.1993  0.0931
 9948W        W23362   6.995   3.747   1.986 -0.0842  0.1428  0.2741
 9949W        W23363   5.718  14.323   3.757 -0.0660  0.0420 -0.2264
 9950W        W23364   2.522   4.950  10.780 -0.2272 -0.2145  0.1512
 9951W        W23365   2.885   6.058   2.355 -0.1838 -0.1128 -0.3215
 9952W        W23366   0.315  11.738  12.974  0.1098  0.0656 -0.1715
 9953W        W23367  14.477   4.520  16.496 -0.3948 -0.2719 -0.1572
 9954W        W23368  16.903   5.558   5.459  0.2319 -0.0511  0.0327
 9955W        W23369  10.540  17.382  13.346 -0.1122  0.3591  0.0297
 9956W        W23370  14.032   4.995   5.834  0.0624 -0.1888 -0.0299
 9957W        W23371   0.159   9.864   0.984 -0.0238 -0.0185 -0.2308
 9958W        W23372   1.280  17.502  13.548 -0.1014 -0.1053  0.0830
 9959W        W23373   8.645   3.108   0.009  0.0663  0.0661  0.2655
 9960W        W23374   1.378   7.681   4.252  0.0926 -0.1205 -0.1077
 9961W        W23375   5.642  11.180   2.623 -0.0967  0.1541 -0.2569
 9962W        W23376   9.178  11.535   4.526 -0.1346  0.3103 -0.0500
 9963W        W23377   6.645  15.304  14.334  0.1101 -0.1662 -0.3179
 9964W        W23378   8.864  14.209   2.483 -0.0983 -0.2072 -0.3092
 9965W        W23379   7.075  10.646   6.555  0.0275 -0.0589  0.0118
 9966W        W23380  12.512   3.393   4.032 -0.0537  0.2345 -0.0940
 9967W        W23381  13.860  15.128   5.778 -0.1122 -0.0103  0.2652
 9968W        W23382  10.468   8.504   3.337 -0.2145  0.1822  0.1186
 9969W        W23383  13.251  15.010  11.395 -0.2436 -0.1126  0.0304
 9970W        W23384   2.610   1.513  13.600  0.2658  0.1308  0.0063
 9971W        W23385   0.345   3.985  12.768 -0.0923 -0.1491 -0.3621
 9972W        W23386   2.445  10.422  15.235  0.1104  0.0928  0.0099
 9973W        W23387   7.260   4.601   2.382 -0.0493  0.0224 -0.0277
 9974W        W23388   4.942  13.243   0.810 -0.0944 -0.0210 -0.1224
 9975W        W23389  14.525   1.029   3.590  0.1630  0.0045 -0.1388
 9976W        W23390   1.594   6.698   4.538 -0.0156 -0.0140  0.0194
 9977W        W23391   2.191   3.160   5.099  0.1655 -0.0553 -0.1881
 9978W        W23392  12.008   2.219  12.827  0.0006 -0.1293  0.0701
 9979W        W23393  10.980   9.638   2.659 -0.2002 -0.4398 -0.2835
 9980W        W23394  12.755  17.408  14.043  0.1261 -0.1281  0.3440
 9981W        W23395   3.154  11.367  14.463  0.0387  0.0167 -0.2908
 9982W        W23396   7.648   9.536  16.106 -0.0489  0.1393 -0.0424
 9983W        W23397   7.884   1.629  12.737  0.3508  0.0836 -0.2045
 9984W        W23398   6.004   6.131   0.848  0.2255  0.1406  0.0583
 9985W        W23399   8.588  10.601  16.514  0.1809  0.1964  0.0153
 9986W        W23400   4.555   9.883  15.129 -0.0363  0.0858 -0.1814
 9987W        W23401   1.929   4.659   0.544  0.0876  0.0497  0.1098
 9988W        W23402  11.285  14.820  14.816 -0.1969  0.0881 -0.1942
 9989W        W23403   9.497  10.579   4.748  0.0077 -0.0937  0.0776
 9990W        W23404  11.862   6.424  14.259 -0.2428  0.2313  0.0924
 9991W        W23405  12.924  11.975   4.571 -0.2112 -0.0518  0.1836
 9992W        W23406   3.450  14.036  13.524  0.3731 -0.2270  0.0589
 9993W        W23407  11.587   2.455   5.569  0.3000 -0.0115  0.1767
 9994W        W23408   8.825   2.904  12.164 -0.0785  0.3251 -0.3039
 9995W        W23409   6.464   0.431  14.835 -0.0848 -0.0129 -0.3627
 9996W        W23410   9.905  12.016  13.489  0.0538 -0.3504 -0.0833
 9997W        W23411  14.275   0.282   3.706 -0.2759  0.2772  0.1719
 9998W        W23412  11.554   8.266  12.867 -0.1065  0.1638 -0.0504
 9999W        W23413  17.987   0.819  12.526  0.4531  0.0346  0.2394
10000W        W23414  15.505  13.251  14.416  0.1291 -0.0306  0.3105
10001W        W23415   8.583  13.442   5.839  0.1622 -0.0995  0.1924
10002W        W23416   1.786  16.133   0.710  0.4349 -0.0647 -0.2310
10003W        W23417  11.161   4.064  11.854 -0.0208 -0.2497  0.1432
10004W        W23418   8.642   3.951  12.316  0.4280 -0.0228 -0.0150
10005W        W23419   1.729   9.018   3.534 -0.1732 -0.0437 -0.0479
10006W        W23420   2.947  10.820   1.140 -0.0333 -0.1123  0.1063
10007W        W23421   4.630  16.925   2.919 -0.0679  0.0287  0.1149
10008W        W23422   8.404  13.871   3.227  0.2331  0.1368 -0.3789
10009W        W23423   1.308  10.148   4.442 -0.3259 -0.2312 -0.0974
10010W        W23424   7.773  14.339   5.069 -0.0926  0.0678  0.0160
10011W        W23425   2.990  16.735   2.246 -0.0947  0.1237  0.0854
10012W        W23426  12.553   7.003   6.397  0.0066 -0.0555  0.0907
10013W        W23427  13.826   1.058  16.007 -0.1034 -0.0509 -0.1630
10014W        W23428   0.093   4.570   1.356  0.0486  0.0140 -0.0695
10015W        W23429   4.941   8.982   1.805  0.0586 -0.0507 -0.2243
10016W        W23430   6.120   9.936   2.497  0.1407 -0.2282  0.1398
10017W        W23431   5.094  11.745   4.271 -0.3122  0.2861 -0.3540
10018W        W23432  15.381   0.194  11.102 -0.1046  0.1691  0.2687
10019W        W23433   0.541   8.163  10.706  0.1171  0.1345 -0.0305
10020W        W23434   2.021   9.163  15.626  0.2077 -0.0511 -0.1953
10021W        W23435   9.394  10.972   5.618 -0.0676  0.1457  0.2266
10022W        W23436   0.525   9.119   6.298 -0.1286  0.0287  0.3296
10023W        W23437   9.530   8.745  13.464  0.0172 -0.2120  0.0925
10024W        W23438   3.067  11.685   2.636  0.0638  0.0482  0.0831
10025W        W23439   1.798   4.743  13.031 -0.1005  0.1076 -0.0350
10026W        W23440   0.619   0.388  16.074 -0.1102  0.2024  0.1640
10027W        W23441   0.478   4.292   9.928 -0.1771 -0.0665 -0.2786
10028W        W23442  11.530   0.534   2.454 -0.0110  0.3928 -0.0006
10029W        W23443  16.416   5.111   3.022  0.0954 -0.2504  0.1272
10030W        W23444   0.243  12.671  12.513  0.2083  0.0574  0.2240
10031W        W23445   3.118   2.978   3.632  0.0312 -0.1472 -0.1373
10032W        W23446   6.678  16.747  10.664 -0.0887  0.2285 -0.0816
10033W        W23447   6.951   6.633  14.319 -0.1792  0.0689 -0.2275
10034W        W23448   3.222   1.675   3.173  0.4145  0.0587  0.0848
10035W        W23449  15.093   8.237   5.231 -0.2539  0.2641  0.0415
10036W        W23450  11.240   3.227  14.675  0.2003  0.0415  0.1800
10037W        W23451  16.632   9.980  15.610  0.0891  0.0242 -0.1896
10038W        W23452   4.051  12.564  15.074  0.0717 -0.0543 -0.1527
10039W        W23453  10.392   6.811  15.805 -0.0332 -0.1624 -0.3529
10040W        W23454  13.961   7.797  16.083  0.3794  0.1015 -0.2529
10041W        W23455  16.672  13.212   3.219  0.0721 -0.1346  0.2082
10042W        W23456   1.920  13.319  14.109  0.1572  0.0444 -0.1212
10043W        W23457   3.049  10.150  16.181 -0.3034 -0.3677 -0.0586
10044W        W23458  13.297  16.195  11.788 -0.2457 -0.1564  0.1821
10045W        W23459   7.751   9.261  10.868 -0.0001 -0.0253  0.1807
10046W        W23460   6.747   1.190  13.510  0.3152 -0.0408 -0.0230
10047W        W23461  14.460   0.987   2.428 -0.1710  0.0518 -0.1157
10048W        W23462  15.708   0.828   6.110 -0.0077  0.0464 -0.0232
10049W        W23463  13.222  17.869  10.891 -0.1486  0.2830 -0.1091
10050W        W23464  10.574   3.012   0.002  0.2383  0.0233 -0.2778
10051W        W23465   5.498  15.305   4.784  0.0764 -0.0489  0.0492
10052W        W23466  15.739  16.841   2.202  0.0070  0.0455 -0.2364
10053W        W23467  12.101  13.258  16.070  0.1142  0.2130  0.0894
10054W        W23468   2.247  17.620  10.634  0.0954 -0.3893 -0.2105
10055W        W23469  12.158   0.092  13.422  0.0111  0.0854 -0.4470
10056W        W23470  13.676  16.642   4.273  0.0832 -0.3059 -0.0808
10057W        W23471  12.595   5.372   0.133 -0.0725  0.1060  0.0038
10058W        W23472   8.620   4.141   2.814  0.0150 -0.1224  0.0702
10059W        W23473  17.602  17.021  15.762  0.3756 -0.3763 -0.1303
10060W        W23474  10.444   3.987   4.838 -0.0735  0.0297 -0.1025
10061W        W23475  13.465   9.912   1.767  0.0130 -0.1821 -0.0615
10062W        W23476   5.311  16.274  13.495  0.1139 -0.2213  0.0423
10063W        W23477   8.336   8.606   1.621 -0.0760  0.2372 -0.1392
10064W        W23478   1.583  13.611   0.417  0.0101  0.2691  0.1997
10065W        W23479   2.345  13.254  14.834 -0.0695  0.2542 -0.0577
10066W        W23480  15.744   0.443   0.986 -0.0881 -0.3441  0.0001
10067W        W23481   5.626   3.880   3.157  0.2379 -0.2907 -0.0687
10068W        W23482   8.085  14.332   0.184 -0.0034  0.2779 -0.1778
10069W        W23483   4.504  16.743   1.995  0.0215 -0.2276 -0.0170
10070W        W23484  13.680   8.990  11.732  0.2199  0.0594 -0.1612
10071W        W23485  10.820   1.132  11.978  0.0209 -0.0663  0.2007
10072W        W23486  12.840  10.852  13.933  0.0138  0.2842  0.0225
10073W        W23487   3.747  11.884   0.983  0.1243  0.2837  0.2570
10074W        W23488   0.084   6.385   5.550 -0.1610 -0.1401 -0.1525
10075W        W23489  10.356  14.998   4.996 -0.1821  0.0651  0.0697
10076W        W23490   4.269   9.521   3.074  0.2159 -0.2004  0.0111
10077W        W23491   1.602  15.859  13.261 -0.0834  0.0217 -0.0334
10078W        W23492   3.558   8.934  11.668  0.3441 -0.0978  0.0776
10079W        W23493   1.043  12.968  10.893  0.1204 -0.0167  0.2966
10080W        W23494   8.718  16.954   5.624 -0.1586 -0.1301  0.3003
10081W        W23495   5.480   0.855  10.863 -0.1022 -0.0282 -0.1384
10082W        W23496   4.073  15.574  11.740 -0.3283 -0.1509 -0.0937
10083W        W23497   7.610  11.129   2.523  0.2932 -0.3460 -0.0412
10084W        W23498   0.448   5.434  14.358  0.1125  0.3726 -0.0071
10085W        W23499   2.971   1.004   4.276 -0.1242  0.0158 -0.0365
10086W        W23500  13.928   0.679  15.263  0.2275  0.0890  0.0299
10087W        W23501  14.193   2.266   1.163 -0.0779 -0.2560 -0.2250
10088W        W23502   0.554  17.540   1.263 -0.0748 -0.0717 -0.1920
10089W        W23503   7.697  10.261   4.738 -0.3511  0.2286  0.2150
10090W        W23504  11.521   3.579  10.713 -0.1436  0.0726  0.4210
10091W        W23505  14.269  10.771   4.381 -0.1751 -0.1052 -0.0170
10092W        W23506   0.052   4.815   0.943  0.2369  0.1916  0.0557
10093W        W23507  17.784  14.245   4.933 -0.2105  0.0158  0.1074
10094W        W23508   7.265  14.934   3.684  0.1068 -0.3169 -0.1162
10095W        W23509  11.471  10.389  13.462 -0.0454  0.1561 -0.0222
10096W        W23510   2.254   9.055   3.585  0.1566 -0.1464  0.0275
10097W        W23511   3.722  17.001  13.761  0.0105  0.3867  0.1943
10098W        W23512  12.262  15.069   5.706 -0.3198 -0.0645 -0.0741
10099W        W23513  15.559   1.931  14.945 -0.0021 -0.0909  0.0373
10100W        W23514  12.577  13.865  11.992 -0.1218  0.0054  0.0004
10101W        W23515   9.945   6.795  12.235 -0.0721 -0.0421  0.1045
10102W        W23516  11.251   5.961   5.955 -0.0253  0.2389 -0.1852
10103W        W23517   4.646   1.116  11.317 -0.1757  0.0605 -0.1310
10104W        W23518   3.998   9.507   0.132  0.1285  0.0161  0.1395
10105W        W23519  17.365   7.231  12.012 -0.0687  0.0669 -0.1255
10106W        W23520   7.528   3.611  10.540 -0.2381  0.1001 -0.1613
10107W        W23521  10.863   9.021   0.997 -0.1390  0.0495  0.2363
10108W        W23522  16.749   1.664  11.613 -0.1519 -0.0297  0.1125
10109W        W23523   8.218  12.557   5.728 -0.0628 -0.1149  0.0867
10110W        W23524   1.903   9.297   4.053 -0.0486 -0.0859  0.2495
10111W        W23525   4.061  15.774  16.315 -0.2655  0.0269 -0.2496
10112W        W23526   3.892   1.176   4.815  0.0494 -0.0210  0.2501
10113W        W23527   7.454   0.646  11.017  0.0160 -0.1150 -0.2689
10114W        W23528   6.563   7.874   4.884  0.1399 -0.3278 -0.1637
10115W        W23529   9.208  17.685   3.912 -0.2937 -0.2317 -0.1423
10116W        W23530   1.181  12.689  11.415 -0.0384  0.2803 -0.2759
10117W        W23531   6.108   7.303  13.301 -0.1371 -0.1504 -0.2535
10118W        W23532   0.324   8.288  12.382 -0.0501  0.1920  0.0383
10119W        W23533  10.949   7.981  12.945  0.1835 -0.1110 -0.0279
10120W        W23534   7.839   1.151  15.261 -0.0993 -0.1709 -0.2055
10121W        W23535   2.495  14.179  12.268  0.1668 -0.2157  0.2891
10122W        W23536  12.626   4.228  16.108  0.0981  0.1959 -0.0903
10123W        W23537  12.554  17.021  14.608  0.0445 -0.1088 -0.0193
10124W        W23538   6.886   8.974   2.549 -0.2168  0.1199  0.1325
10125W        W23539   2.488   0.392   4.918 -0.0790 -0.0722  0.1130
10126W        W23540  15.680   6.116   6.191  0.0080  0.0254 -0.0189
10127W        W23541   8.361  14.806   3.468 -0.2911 -0.0994 -0.2797
10128W        W23542   8.885   3.473  12.838 -0.3663  0.3661 -0.0402
10129W        W23543   3.812   3.216   2.931 -0.0412 -0.0566  0.2344
10130W        W23544  13.013  17.969   3.076 -0.1985  0.1487  0.0789
10131W        W23545  12.002   3.814  15.058  0.3913  0.1382 -0.2869
10132W        W23546  13.966   7.673  15.125 -0.2105 -0.0379 -0.1184
10133W        W23547   7.009   1.877  12.491 -0.0676  0.0542 -0.1727
10134W        W23548   6.947   0.304  14.028 -0.0660  0.2994 -0.2051
10135W        W23549   7.608   1.401  12.396 -0.2441 -0.1904 -0.0801
10136W        W23550   1.030   6.659   1.398  0.0953 -0.2157  0.1302
10137W        W23551   8.641  15.022  14.011  0.1361 -0.0219 -0.1851
10138W        W23552  13.433  15.641  12.054  0.1397 -0.0775  0.1982
10139W        W23553   8.273  14.627  12.787  0.0254 -0.0025  0.0817
10140W        W23554   9.686   4.916   2.491 -0.0359 -0.0776  0.2576
10141W        W23555   9.461   1.576   0.117  0.0778  0.2875  0.0759
10142W        W23556   8.626   6.205   0.448  0.1046  0.1390  0.2181
10143W        W23557  12.232   5.921   4.232  0.0667  0.0237  0.0147
10144W        W23558  15.861   2.698  10.738 -0.1840  0.3941 -0.0734
10145W        W23559  12.355   9.130   1.466 -0.0625  0.0611 -0.1175
10146W        W23560   7.449   3.188   0.528 -0.2084  0.0986  0.0684
10147W        W23561   4.890   5.240   2.470  0.0236 -0.1442 -0.1098
10148W        W23562   1.230   8.538   2.784  0.1084  0.0185 -0.0833
10149W        W23563  17.742  14.355   0.393 -0.0109  0.1687 -0.0028
10150W        W23564  10.667  14.290   4.591 -0.1051  0.0925 -0.2614
10151W        W23565   9.578   3.092  10.949 -0.1345  0.1921  0.1184
10152W        W23566  10.803  10.723  15.361 -0.0235 -0.0022 -0.0885
10153W        W23567  15.093   6.778  13.663 -0.1548 -0.0940  0.0991
10154W        W23568   1.212   5.811   1.068 -0.0159 -0.1096  0.0855
10155W        W23569  15.111  12.301  12.094 -0.0174  0.1128 -0.4526
10156W        W23570   3.172   6.839  15.942 -0.0975 -0.2127  0.2199
10157W        W23571   2.866  14.149  14.824  0.0355  0.0769 -0.2469
10158W        W23572  15.749   7.787   0.366 -0.0626 -0.0058  0.0162
10159W        W23573  11.152   4.567  14.104  0.1083  0.0504  0.0737
10160W        W23574   0.462   9.367  13.952 -0.1583  0.1117  0.0335
10161W        W23575   3.919   7.036  13.570 -0.2220 -0.0923 -0.0840
10162W        W23576  11.425   0.882   4.987  0.1145 -0.0498 -0.1952
10163W        W23577  17.501  16.848  12.075  0.0918 -0.1559  0.1863
10164W        W23578   2.328   0.836   1.672  0.1431  0.1925 -0.1952
10165W        W23579   9.793   6.385   4.869 -0.1153 -0.0978  0.3907
10166W        W23580   7.157   2.923  14.019  0.1018 -0.1099 -0.1133
10167W        W23581  16.161   0.263  14.321  0.0524 -0.1199  0.3306
10168W        W23582   8.989  16.597   3.661  0.0237 -0.4193  0.1160
10169W        W23583   8.212   9.592  12.380  0.0306 -0.1809  0.2344
10170W        W23584  11.464  15.833  15.413 -0.1969  0.0270 -0.0966
10171W        W23585   2.328  16.660  15.453 -0.0716 -0.1964  0.0542
10172W        W23586  15.968   0.411   0.443 -0.0390 -0.0563  0.0031
10173W        W23587   0.621   5.004   4.783  0.0066  0.2121  0.2407
10174W        W23588  14.228   7.260  13.986  0.0292  0.1700 -0.1696
10175W        W23589   3.006  17.181   2.035 -0.1696  0.0508  0.3178
10176W        W23590  16.071   2.546   6.119  0.3526 -0.2099 -0.0313
10177W        W23591  13.838   9.041   1.361 -0.0217  0.1513 -0.0571
10178W        W23592   7.266  13.260   3.514 -0.0982 -0.1408 -0.1575
10179W        W23593  14.113  10.846   6.595  0.1486  0.0797  0.2368
10180W        W23594  11.821   0.591   5.164  0.0156  0.2339  0.0584
10181W        W23595   2.196  13.146  13.259  0.3669  0.1752  0.0576
10182W        W23596   5.869   5.638  11.822  0.0723 -0.0254  0.0523
10183W        W23597   2.334   6.126  14.598  0.2524  0.1188 -0.2055
10184W        W23598   8.283  10.839   0.585  0.0838  0.0269  0.2770
10185W        W23599   1.464   1.878   4.733  0.0103  0.0043 -0.2203
10186W        W23600  12.687   6.795  13.788 -0.2345 -0.3123  0.1712
10187W        W23601  11.172  12.608  11.818 -0.0911  0.3381 -0.0586
10188W        W23602  12.622  13.240   5.465 -0.2032 -0.1944 -0.0070
10189W        W23603   8.457   0.491  13.591  0.0862 -0.3900  0.0731
10190W        W23604  10.223   1.791   2.011 -0.1974  0.0622  0.2286
10191W        W23605   1.966   0.996  15.818 -0.5175  0.0023  0.1662
10192W        W23606   6.952  12.969   0.014  0.1852  0.1404 -0.1455
10193W        W23607  17.443  16.115  13.104  0.0553  0.1545 -0.2245
10194W        W23608   3.913  11.998  11.875 -0.2698  0.2828 -0.2713
10195W        W23609   5.346   2.821  12.057  0.1895 -0.1655 -0.1170
10196W        W23610   5.780   8.365  16.659  0.0597 -0.1746  0.1379
10197W        W23611  14.925   8.115   0.972 -0.0234  0.1209 -0.0268
10198W        W23612  13.331   8.244  11.005 -0.0028 -0.2783  0.0583
10199W        W23613  13.575   2.723  11.431 -0.3141 -0.2620  0.1299
10200W        W23614  14.524   9.788  16.681  0.2438 -0.0061 -0.1516
10201W        W23615  13.496   3.797   4.419 -0.2248  0.1055  0.1067
10202W        W23616   6.237   3.597  13.055 -0.0297  0.1350 -0.2910
10203W        W23617  17.963   4.131   2.323 -0.2321 -0.0665 -0.1793
10204W        W23618   4.529   4.095  12.657  0.1443 -0.0504 -0.0618
10205W        W23619  12.777  11.385   3.343  0.1679 -0.2920 -0.0091
10206W        W23620  14.574   6.648  15.085 -0.1538  0.3437 -0.1009
10207W        W23621   8.754   6.092  12.801  0.0177 -0.2499 -0.0032
10208W        W23622  15.084   3.306   1.116  0.3221 -0.0424  0.0661
10209W        W23623   7.834   7.757  13.538  0.2395 -0.2542 -0.3069
10210W        W23624   0.291   6.258  11.167  0.0039 -0.1529 -0.2063
10211W        W23625  10.978  15.686   2.976 -0.0874  0.2151  0.2231
10212W        W23626  10.061   5.825  16.452 -0.0187  0.0857  0.1709
10213W        W23627   0.792  12.855  14.725 -0.1950 -0.1878  0.0821
10214W        W23628   4.289  11.720  12.633  0.1088 -0.3657 -0.3324
10215W        W23629  12.000   4.494   0.946 -0.1260  0.3904 -0.2260
10216W        W23630   6.438  10.072   4.843  0.2316 -0.1498 -0.2464
10217W        W23631   3.368   9.758   0.639 -0.1768  0.0341 -0.2313
10218W        W23632   0.732   7.252  10.290 -0.0809  0.1205  0.1001
10219W        W23633  10.898  16.430  16.647 -0.1221 -0.2655  0.1668
10220W        W23634   1.136   1.052  11.028 -0.1487  0.4966 -0.1126
10221W        W23635  13.972  16.321  14.178  0.0255  0.4186 -0.0748
10222W        W23636  14.688   4.018  16.694  0.0932 -0.1820 -0.1665
10223W        W23637  15.911   8.838  14.764  0.0361 -0.3762  0.1011
10224W        W23638   3.221  10.526  12.219 -0.0401 -0.2699  0.3008
10225W        W23639  14.526  16.129   3.003 -0.1944 -0.0650 -0.0816
10226W        W23640  15.967   3.254  15.829  0.0897  0.1358 -0.0526
10227W        W23641  10.120  14.000   4.041  0.0387  0.0986 -0.0818
10228W        W23642  16.550  12.332  13.215  0.1444 -0.2353 -0.1120
10229W        W23643  16.029   3.450  14.644 -0.2298  0.1999 -0.2646
10230W        W23644   9.241  15.591   1.381 -0.2029  0.2262  0.0365
10231W        W23645   5.941  13.658  14.671 -0.2828 -0.1325  0.1214
10232W        W23646   3.221   0.072   3.716  0.1427  0.1247 -0.1523
10233W        W23647   3.750  12.229  10.677 -0.0803 -0.2134 -0.2789
10234W        W23648   5.930   6.763   5.978 -0.0988  0.1917 -0.1096
10235W        W23649   7.806  12.518  14.840 -0.0981  0.2794 -0.2979
10236W        W23650  16.821  17.206   1.736 -0.1326  0.0223  0.2141
10237W        W23651   2.855  17.880   2.420 -0.1982 -0.1296  0.3047
10238W        W23652  17.778   8.726   4.695  0.1444  0.1152 -0.0450
10239W        W23653   1.625  11.913  11.792  0.1511 -0.1188 -0.0157
10240W        W23654   6.936  15.491   3.077 -0.0123 -0.2095  0.2634
10241W        W23655  15.476  13.500  16.097  0.1236 -0.1272  0.0543
10242W        W23656  11.402   9.622   3.762  0.0607  0.0922  0.0170
10243W        W23657  12.163   4.495  13.375 -0.0040 -0.1030 -0.1270
10244W        W23658  14.561  16.875  13.513 -0.4662  0.3428  0.1819
10245W        W23659  11.694   7.613   3.090 -0.0002  0.0573 -0.0965
10246W        W23660   1.434   9.695  16.590  0.0930 -0.1779  0.0435
10247W        W23661  17.690   4.716   4.618 -0.1171 -0.0609  0.0622
10248W        W23662   3.946   7.769  14.275  0.1586 -0.1063  0.0667
10249W        W23663   8.513   2.494  16.176 -0.1078  0.1291  0.1661
10250W        W23664  10.147  10.542  13.025 -0.0051  0.1252  0.2004
10251W        W23665   4.504   7.553   2.022 -0.2410 -0.3567  0.0581
10252W        W23666   3.599   7.480  12.175  0.2101  0.0158  0.0339
10253W        W23667  12.862   2.643   1.436  0.2646  0.2941  0.0479
10254W        W23668   9.266  14.126   3.992 -0.2631  0.2122 -0.0362
10255W        W23669   6.639  10.792  16.485 -0.0528 -0.1779  0.2241
10256W        W23670   6.081   2.090   1.691  0.2360 -0.0167 -0.2499
10257W        W23671   8.212   8.551   6.248  0.3170 -0.1580  0.0615
10258W        W23672   7.138   3.047   4.888 -0.1715 -0.2040  0.1007
10259W        W23673  13.897  16.903  11.447 -0.0157 -0.1303 -0.1328
10260W        W23674   1.170   4.479  14.412 -0.1460 -0.0016  0.1429
10261W        W23675   5.740  15.691  12.546 -0.2136 -0.0422 -0.0100
10262W        W23676  10.384   8.743  13.006  0.2197  0.0026  0.1411
10263W        W23677  17.743   5.538  16.203 -0.0188  0.2458  0.2128
10264W        W23678   6.121   2.068   1.118  0.1908  0.2626  0.4322
10265W        W23679   3.189   6.542   3.263 -0.0116  0.0417 -0.2259
10266W        W23680  11.147   7.033   2.957  0.0227  0.0039 -0.1671
10267W        W23681   7.395   7.297   4.053  0.4141  0.0815  0.0062
10268W        W23682   1.317  14.755   3.970 -0.0929 -0.0834  0.1393
10269W        W23683   4.043   0.665  14.889 -0.3420  0.1010  0.3713
10270W        W23684  13.418   3.699  13.479 -0.1316 -0.0383 -0.2236
10271W        W23685   2.479   0.758  13.926  0.0932 -0.0354 -0.3023
10272W        W23686   3.439   0.051  13.089 -0.2970 -0.1262 -0.0068
10273W        W23687   9.895   2.000   3.449  0.0502  0.0851 -0.0994
10274W        W23688  17.553  10.177  15.212 -0.2638 -0.1483  0.2728
10275W        W23689  16.139   8.615  16.573 -0.2198  0.3989  0.0702
10276W        W23690  11.285  14.930   2.640 -0.1326  0.2352  0.0599
10277W        W23691  13.511   8.513   3.421 -0.1113  0.2217  0.2436
10278W        W23692   6.341   2.022  11.075  0.0317 -0.1014 -0.0590
10279W        W23693   6.873   3.539   3.419  0.1193 -0.0694  0.3782
10280W        W23694   6.688   8.929  13.934  0.2211 -0.3445  0.0002
10281W        W23695   4.962  14.853  10.622 -0.1109 -0.1069  0.0659
10282W        W23696   5.213   9.335   6.181 -0.3433 -0.2438  0.0217
10283W        W23697  13.039  14.959  13.232 -0.2121  0.2105 -0.0237
10284W        W23698  10.276  11.543  13.122 -0.1318 -0.1757  0.1350
10285W        W23699   5.709  17.825   0.740  0.0716  0.1834  0.2276
10286W        W23700  17.999   9.875  12.671 -0.0119 -0.1230 -0.0838
10287W        W23701  13.613  16.068  16.536 -0.1182 -0.1439  0.0289
10288W        W23702  12.761   5.305  14.243 -0.0856  0.0147 -0.2975
10289W        W23703  15.520  17.518  11.473 -0.0161  0.0705 -0.1674
10290W        W23704  14.554  17.166  10.760 -0.1558  0.0823 -0.0359
10291W        W23705  10.390  15.095   6.720  0.0850 -0.0472 -0.0423
10292W        W23706  12.137  14.152   1.231 -0.3445  0.0072  0.1454
10293W        W23707  10.929  12.261   1.066 -0.0167  0.1472 -0.0987
10294W        W23708   8.370  15.248  14.504  0.1910 -0.3216  0.2019
10295W        W23709   4.824  12.076  13.612  0.0290 -0.0809  0.2651
10296W        W23710   0.283  13.862   2.882 -0.1560 -0.0361 -0.0263
10297W        W23711   1.875  13.399   3.594 -0.1171 -0.1447  0.1001
10298W        W23712   3.691   1.645  14.073  0.1389  0.2180 -0.1603
10299W        W23713  15.587  15.326   2.446 -0.0345 -0.0926 -0.0033
10300W        W23714   3.349  12.886   0.808 -0.0802  0.1864 -0.4631
10301W        W23715   9.538   7.056   5.855  0.0455 -0.4348  0.4030
10302W        W23716   3.467   4.246  13.540  0.0868 -0.1932  0.0292
10303W        W23717   2.667   9.343   2.214 -0.1077 -0.0521  0.1394
10304W        W23718  14.133  11.504  11.127 -0.0596 -0.1303 -0.1159
10305W        W23719   9.768   6.083  11.389 -0.0839 -0.2751  0.0137
10306W        W23720   8.582   6.525  13.914  0.1985  0.0751 -0.1602
10307W        W23721   9.170  10.684   5.974 -0.0193 -0.1838 -0.0122
10308W        W23722   6.465   6.705  15.911  0.0088  0.0436  0.0333
10309W        W23723  12.293   3.471  14.185 -0.1190 -0.0778  0.0946
10310W        W23724   9.031  11.924   2.525 -0.1440 -0.0702  0.1937
10311W        W23725  14.784   0.087   1.239 -0.3351  0.3387 -0.0618
10312W        W23726   6.085  11.371  12.605  0.1074 -0.0798 -0.2746
10313W        W23727  16.006   4.851   2.872  0.2300  0.1522  0.1930
10314W        W23728  16.824   0.730   2.329  0.2080  0.1184  0.3223
10315W        W23729   2.337   1.745   3.191 -0.3352 -0.1274 -0.0302
10316W        W23730   1.519   5.070   5.823 -0.1765  0.0691 -0.2071
10317W        W23731  13.830  11.438   1.055 -0.1022 -0.0198 -0.2995
10318W        W23732  11.846  12.122  13.683 -0.2151 -0.0722 -0.2888
10319W        W23733  10.243   9.723   0.972  0.0642  0.1250 -0.0892
10320W        W23734   2.342   9.881   1.438 -0.0928  0.0945  0.1248
10321W        W23735   5.974   6.977  15.680  0.0296  0.0426  0.1041
10322W        W23736   0.821  10.243  12.616 -0.0792 -0.2289  0.2816
10323W        W23737   1.401   9.682  12.316  0.0085 -0.0420 -0.0296
10324W        W23738  13.758   5.873   5.946 -0.2694 -0.1135 -0.2065
10325W        W23739  16.211   8.787  12.095  0.1484  0.1326 -0.2994
10326W        W23740  14.249  11.826  14.887  0.0407 -0.1485 -0.0687
10327W        W23741   4.799   0.484  13.455 -0.0396  0.1128 -0.4568
10328W        W23742   8.829   8.377  12.295  0.2496  0.1423  0.1298
10329W        W23743  12.604  15.399   6.494  0.1650 -0.0536  0.2158
10330W        W23744  15.595   1.424   5.306 -0.2270  0.0711 -0.0015
10331W        W23745  16.364   8.705  14.862  0.0065  0.0077 -0.2137
10332W        W23746   0.773  14.599   0.165  0.0905  0.2399  0.1551
10333W        W23747   0.189   9.491  15.358  0.1049  0.2428  0.3415
10334W        W23748   3.619   3.202  15.535  0.0556  0.0220 -0.2470
10335W        W23749   0.979  17.758  11.449 -0.1976 -0.1015  0.0086
10336W        W23750   6.570  15.669   1.584  0.0766 -0.0449  0.0867
10337W        W23751   0.057   3.228   3.000 -0.2100 -0.0181  0.2699
10338W        W23752  16.407   1.849   4.234 -0.0437 -0.1262  0.0885
10339W        W23753  16.601  17.595  13.941 -0.0562  0.0391 -0.1737
10340W        W23754  13.550  16.176   5.760  0.4072  0.0741 -0.0073
10341W        W23755  17.736  15.370  10.613 -0.0373 -0.0905  0.2597
10342W        W23756   4.982   0.282   1.165 -0.0109 -0.3057  0.0102
10343W        W23757   3.239   2.409  12.238 -0.1648 -0.0038 -0.2020
10344W        W23758   7.673  14.118   4.513 -0.0422 -0.1320 -0.1603
10345W        W23759   8.924  13.591   3.203  0.0290  0.3019 -0.4383
10346W        W23760  15.120   5.842   2.023  0.1686 -0.1218 -0.3673
10347W        W23761   6.073  16.954  10.622  0.0303  0.1408 -0.0675
10348W        W23762   4.660  16.034  16.535 -0.2380 -0.0365 -0.2835
10349W        W23763   4.253   3.848   1.844 -0.0503 -0.0620  0.1355
10350W        W23764  12.538  11.691   3.669 -0.0492 -0.0326 -0.3140
10351W        W23765  10.329   3.080   4.573 -0.2457 -0.0387 -0.1466
10352W        W23766  17.695   4.158   5.916 -0.1300  0.0070 -0.2994
10353W        W23767  11.830   9.935   3.632 -0.1462 -0.2799 -0.2721
10354W        W23768   8.566  16.798   1.901  0.0296  0.0372  0.0743
10355W        W23769   5.604   5.046   3.516  0.0686  0.2455 -0.2626
10356W        W23770   9.998   9.474   0.609 -0.2524  0.0298  0.1113
10357W        W23771  17.887   2.920  12.487  0.2436 -0.1126 -0.1230
10358W        W23772   5.700  14.353  11.564  0.0255 -0.1485 -0.0199
10359W        W23773  11.089   7.793  16.451 -0.0659  0.0325  0.0970
10360W        W23774   3.530   4.764  14.437 -0.0009  0.1466 -0.0247
10361W        W23775  14.679  10.456   4.518  0.4398  0.3079  0.1611
10362W        W23776   4.173   4.137  11.323  0.3207  0.1866 -0.0820
10363W        W23777   9.759   4.096  13.094  0.0351  0.2753 -0.3191
10364W        W23778   9.524   1.364   4.028  0.1440 -0.2855 -0.2760
10365W        W23779  11.880   6.850  15.793 -0.2089  0.2129 -0.0476
10366W        W23780  10.820  12.364  12.605 -0.0492  0.5279 -0.0976
10367W        W23781  16.378   4.432  16.413 -0.2499  0.1122  0.1261
10368W        W23782  14.367   7.726  16.418  0.2092 -0.0815 -0.3150
10369W        W23783  11.149   4.411   5.385 -0.0284  0.1617  0.0013
10370W        W23784   9.542   3.354  14.138 -0.1949  0.0216 -0.1251
10371W        W23785  16.125  17.157   1.946  0.0348 -0.0639 -0.1612
10372W        W23786   9.688  16.691   1.230  0.3126  0.2661  0.1100
10373W        W23787   7.339   1.978   3.207 -0.0249 -0.1655  0.0142
10374W        W23788   8.958   1.508  16.215  0.2578  0.0451  0.1487
10375W        W23789   7.858   8.907   2.351 -0.2733 -0.0774  0.0262
10376W        W23790   9.418   4.048   4.907  0.0963  0.0497  0.0344
10377W        W23791   9.857  16.514  12.837 -0.0707 -0.3221 -0.2284
10378W        W23792   7.514   0.146   5.645 -0.1651  0.0200 -0.1408
10379W        W23793  14.906   6.296  15.321  0.1261  0.2271  0.1550
10380W        W23794  14.244   9.486   2.737 -0.1621 -0.1864 -0.2314
10381W        W23795   4.493   6.014   0.699 -0.1608 -0.2432 -0.1677
10382W        W23796  13.066  12.369   4.287 -0.0104 -0.0164  0.0579
10383W        W23797  14.377  13.568   3.377  0.0287  0.0096  0.0893
10384W        W23798   3.170  11.277   3.835 -0.0772  0.4903 -0.2618
10385W        W23799   4.421   9.225   4.696 -0.1509 -0.0321 -0.4161
10386W        W23800   8.588   4.221   0.029  0.2283 -0.0676  0.0581
10387W        W23801   9.689  14.341  16.396  0.1403  0.0430  0.1529
10388W        W23802   9.647   1.336   4.500 -0.0797  0.0549 -0.0466
10389W        W23803  17.927   7.352  13.338  0.0944  0.1843 -0.2151
10390W        W23804   6.082   6.160  11.680  0.0020 -0.4186  0.1189
10391W        W23805   9.660   2.482   9.918 -0.0394 -0.3921  0.1793
10392W        W23806   6.100   4.830  16.283 -0.4714 -0.1357  0.1471
10393W        W23807   7.660  17.808  11.284  0.1463  0.1425  0.1007
10394W        W23808   3.700  12.771  14.291  0.3145  0.1491 -0.2508
10395W        W23809   6.852  13.303  14.327 -0.1375  0.0849 -0.0080
10396W        W23810  12.197   3.238  13.690  0.0760  0.2516 -0.0999
10397W        W23811   2.388  16.779  11.883  0.2059  0.3287 -0.2416
10398W        W23812   9.707   0.326  13.616  0.2114  0.1875  0.0386
10399W        W23813  13.654   3.263   4.901  0.2635  0.2053 -0.0841
10400W        W23814   7.340   4.436   4.352  0.0726 -0.3985  0.2541
10401W        W23815  12.920  16.081  12.818 -0.0376  0.0478 -0.0355
10402W        W23816   0.829  13.821   4.135 -0.0140  0.0818  0.0086
10403W        W23817   3.719   6.309   2.144  0.1425 -0.0263  0.0360
10404W        W23818  14.608  10.223  13.682  0.0273  0.0247 -0.1351
10405W        W23819  11.893  15.953   1.090  0.0484  0.2290  0.1553
10406W        W23820   3.580   4.151   4.365  0.0812 -0.0549 -0.1592
10407W        W23821   8.365  12.145   0.349 -0.2314  0.2598  0.0853
10408W        W23822   5.977  13.466   6.071 -0.3091 -0.1545  0.0648
10409W        W23823  11.147   9.778  15.603  0.0757  0.1292 -0.0943
10410W        W23824  17.395   3.536   1.935  0.1517 -0.4075  0.2221
10411W        W23825  17.186   1.081  12.165  0.0920 -0.3508  0.0188
10412W        W23826   8.560   1.495  10.766  0.0069  0.0567 -0.1168
10413W        W23827   2.594   1.066   0.684 -0.2668  0.0512  0.0136
10414W        W23828  11.570   6.138   0.902 -0.1103  0.4178  0.1789
10415W        W23829   6.989  15.615   2.471  0.2250  0.2033  0.3279
10416W        W23830  11.150   2.724  11.072  0.1462  0.2060  0.0789
10417W        W23831   8.078   6.534  15.136  0.0032  0.0437  0.0294
10418W        W23832  17.863  11.940  13.094 -0.0470 -0.0503 -0.6054
10419W        W23833  12.954   6.270   2.813 -0.2650  0.0880  0.0540
10420W        W23834   3.034  10.313   4.521  0.1072 -0.0380 -0.1087
10421W        W23835   2.868  13.942   3.326  0.0235  0.0641  0.0548
10422W        W23836  16.835   7.890   2.780 -0.0243  0.0835  0.0687
10423W        W23837   1.541  13.927  14.763 -0.0016 -0.0260  0.0250
10424W        W23838   7.828   1.624   6.129  0.1580 -0.2917 -0.4471
10425W        W23839   7.205   0.461   2.281  0.3427  0.0568 -0.0427
10426W        W23840  11.058  16.572   1.247  0.1123  0.0788  0.1161
10427W        W23841   7.372   1.308  15.749 -0.0131  0.0569  0.1766
10428W        W23842   7.060   3.814   4.387 -0.1601  0.0053  0.0537
10429W        W23843   2.106   7.153   5.572  0.1091  0.0171 -0.0410
10430W        W23844   6.037  17.082   2.703  0.4773 -0.0288 -0.0578
10431W        W23845   0.381  15.718  13.776 -0.0072 -0.1101  0.0808
10432W        W23846   5.321  13.651  16.328  0.1103 -0.0907  0.0414
10433W        W23847  13.996   1.769  15.182  0.3226 -0.0108  0.2457
10434W        W23848  15.488  12.061   1.253 -0.0021  0.1662 -0.0314
10435W        W23849  17.649   2.269   1.232 -0.1897  0.1463  0.1451
10436W        W23850  16.855   8.202  14.118  0.0364 -0.1239 -0.2221
10437W        W23851  17.755  16.553  12.975  0.1327  0.2009 -0.1226
10438W        W23852  16.808   5.074  13.272 -0.2122 -0.0008  0.2219
10439W        W23853  10.346   2.597   1.222 -0.2460  0.1170  0.1164
10440W        W23854   8.369   3.631   4.886  0.0593  0.2130 -0.1320
10441W        W23855  10.703  15.767  14.989  0.0173 -0.2559  0.1492
10442W        W23856   1.193   5.813  14.513  0.2629  0.4592  0.3597
10443W        W23857  10.916  14.048   2.480  0.2339 -0.0154  0.2012
10444W        W23858  13.656  10.936   6.807 -0.1460  0.2136  0.2555
10445W        W23859   1.319  10.563  16.218 -0.2226  0.1012 -0.0126
10446W        W23860   5.872  13.715  13.636 -0.0722  0.2103 -0.1275
10447W        W23861  13.698  17.433   5.688  0.0299  0.0472  0.2454
10448W        W23862   7.207   2.784   2.278 -0.1380  0.0440 -0.0614
10449W        W23863   2.405   8.315  16.493 -0.0378 -0.1657  0.1465
10450W        W23864   2.698  17.900  12.394  0.1647 -0.1191  0.1677
10451W        W23865  10.427   3.131   2.703  0.1351 -0.0513 -0.0473
10452W        W23866  14.794  11.488  15.520 -0.2586 -0.1371  0.0023
10453W        W23867   0.486   7.412  15.646 -0.1214  0.1099 -0.1576
10454W        W23868   8.642   6.952   5.427  0.2389  0.0862 -0.1734
10455W        W23869  10.831  17.194  16.509 -0.1230  0.2751  0.1111
10456W        W23870  14.824  16.756   3.861  0.2629 -0.0161 -0.0738
10457W        W23871   3.297  14.172   4.095 -0.0939 -0.0226 -0.1626
10458W        W23872   0.383   5.378  11.434  0.0660 -0.0795  0.0463
10459W        W23873   9.750   8.867   3.680  0.1962  0.2509  0.0392
10460W        W23874   0.652  16.440  14.408  0.2142 -0.1858 -0.2179
10461W        W23875   7.715   9.749   4.586 -0.0498  0.0067  0.0482
10462W        W23876  15.228  17.058  11.368 -0.3533  0.0874 -0.0737
10463W        W23877   0.022   4.700  12.334 -0.0974  0.1282  0.0996
10464W        W23878  10.769  14.075  15.805 -0.1113  0.2329 -0.2156
10465W        W23879   6.204  15.609  11.256 -0.4063 -0.1626 -0.0968
10466W        W23880  10.748   3.426   6.137 -0.1780  0.1407  0.1612
10467W        W23881   1.651   5.270  16.119  0.3617  0.4671  0.2608
10468W        W23882   5.228   4.248   0.218 -0.0552 -0.1631 -0.3064
10469W        W23883   1.874   3.345   1.717  0.0973  0.0851  0.1995
10470W        W23884   5.529  11.100   5.654  0.0318  0.3262  0.1917
10471W        W23885  11.716   1.063   3.342  0.1878 -0.0560 -0.0891
10472W        W23886  10.413   0.298   2.685  0.1907 -0.0442 -0.0672
10473W        W23887  16.228   2.347  14.436  0.0409 -0.3728 -0.0367
10474W        W23888   1.939   3.442  12.608 -0.2554  0.0367 -0.0551
10475W        W23889   2.525  15.395   3.742 -0.2925 -0.0536  0.1168
10476W        W23890  15.573  17.876  13.233 -0.3313  0.1237 -0.1771
10477W        W23891  14.968   5.484   2.580 -0.2421  0.1763  0.0724
10478W        W23892   8.002   5.612  11.829 -0.1117  0.0239  0.3432
10479W        W23893  13.881   2.393  11.234 -0.2432 -0.1381 -0.2059
10480W        W23894  16.334   5.325  12.510 -0.0384 -0.1155  0.1342
10481W        W23895  11.426   8.230   5.342 -0.1292  0.0116  0.0127
10482W        W23896   0.763   3.511  11.786 -0.0654  0.1735  0.1670
10483W        W23897  14.584  14.133   3.603 -0.0089 -0.1694 -0.0222
10484W        W23898  11.361   4.870  13.739 -0.0531  0.5451  0.1716
10485W        W23899   5.908   8.753  11.216  0.0000  0.1739 -0.1090
10486W        W23900   0.588  11.173   2.509  0.3328 -0.0205 -0.0430
10487W        W23901  15.580   1.239  12.907  0.1450  0.0569 -0.0663
10488W        W23902   7.016   8.622   4.928 -0.0153 -0.2783 -0.2304
10489W        W23903   8.127   9.821  13.479  0.0009  0.1528  0.1457
10490W        W23904   2.313   1.802  13.267  0.0943 -0.3145  0.1692
10491W        W23905  14.013   9.844  16.528 -0.2528  0.1938 -0.1363
10492W        W23906   7.253   5.436   2.064 -0.2068  0.2917 -0.0688
10493W        W23907  10.788   7.000  12.305  0.1373  0.0899  0.2465
10494W        W23908   2.501  13.657   2.929  0.2435 -0.0192 -0.1472
10495W        W23909  10.386   7.539  13.641  0.0956 -0.0003 -0.0560
10496W        W23910   9.684   6.859  15.595 -0.0172 -0.0605  0.1546
10497W        W23911   6.906   6.055   0.320  0.1395 -0.1221  0.0576
10498W        W23912   3.396   5.947   4.094 -0.1002  0.3830  0.2247
10499W        W23913  16.464   0.453   2.127 -0.0473 -0.0749  0.3057
10500W        W23914   0.743  11.146  10.545  0.2558  0.1377  0.1916
10501W        W23915  13.011   9.476  15.684  0.0092  0.0042  0.2196
10502W        W23916   9.678  15.966  15.886 -0.1183 -0.0421  0.0448
10503W        W23917   9.937   7.242  11.981 -0.2340  0.3915 -0.1978
10504W        W23918  17.752  10.050  10.236  0.0008 -0.1512  0.2467
10505W        W23919   2.839   8.956  13.714  0.0970  0.2348 -0.2434
10506W        W23920   9.629   5.699   1.823  0.0886  0.0651 -0.4207
10507W        W23921  12.083  17.770  11.417 -0.0407 -0.0799 -0.1413
10508W        W23922  17.413   0.243  13.879  0.2061 -0.0892  0.0385
10509W        W23923   1.631  11.475  16.548 -0.3173  0.1131  0.2238
10510W        W23924  13.388  14.141   6.653 -0.2305  0.3979 -0.0388
10511W        W23925  14.227  11.206   0.285  0.1513  0.2447 -0.1277
10512W        W23926   8.801   9.966   5.620 -0.2203 -0.0928 -0.1331
10513W        W23927  16.267  12.674  14.501 -0.0911 -0.1320  0.0257
10514W        W23928  13.618   4.251   1.923 -0.2097  0.2596 -0.2250
10515W        W23929  10.378  10.259   0.678 -0.1786  0.1980 -0.0331
10516W        W23930  12.006  14.249   0.172  0.4213  0.4550  0.1439
10517W        W23931   2.334   8.183   1.666  0.0736 -0.1475 -0.0783
10518W        W23932   3.115  10.217  16.713 -0.3086  0.2571  0.0441
10519W        W23933  10.163   7.096  14.728 -0.0144 -0.4617  0.1355
10520W        W23934   0.774  13.995  14.016  0.0162 -0.2394 -0.3331
10521W        W23935   9.772   3.076   1.953  0.0047  0.0492 -0.3595
10522W        W23936   1.176   7.151   1.315  0.2929  0.2480  0.3128
10523W        W23937  10.661  12.977   3.642 -0.1734  0.1052 -0.1223
10524W        W23938  11.781   9.555  15.046 -0.0073 -0.0848  0.2569
10525W        W23939   8.931  16.659  12.719 -0.1346 -0.0992  0.1363
10526W        W23940  10.232   0.913  16.538 -0.3072 -0.2152 -0.0628
10527W        W23941  11.144   2.751  14.501 -0.1018 -0.0445  0.2076
10528W        W23942   1.886   0.706  11.608 -0.0335 -0.0489 -0.0709
10529W        W23943   7.525  11.191   3.034 -0.0536  0.0287 -0.2101
10530W        W23944   5.411   7.483  13.661  0.5249  0.0693 -0.5297
10531W        W23945  15.092  13.421   4.366  0.0051 -0.1122  0.1287
10532W        W23946   6.708  18.004  11.547  0.3812  0.1642 -0.2384
10533W        W23947  17.777   8.230  12.066 -0.0657 -0.1676  0.0278
10534W        W23948   4.147  10.537   0.305 -0.0789 -0.0214  0.0326
10535W        W23949   6.079   3.558  15.689 -0.0469  0.3922 -0.1094
10536W        W23950   3.616   7.621   2.141  0.0991  0.0097 -0.0369
10537W        W23951  17.968   1.646   3.504 -0.0536 -0.3649  0.2603
10538W        W23952  15.886   2.534   5.658 -0.2173 -0.1957 -0.0958
10539W        W23953   8.803  16.180   3.740  0.2646  0.1869 -0.1042
10540W        W23954  17.118  12.652  12.962  0.3456  0.0161  0.1859
10541W        W23955  12.850  16.388  15.675 -0.0586  0.1333  0.2193
10542W        W23956   1.158  13.323  12.294 -0.0378 -0.0553  0.1831
10543W        W23957   6.407   5.785  15.913 -0.1608  0.1566  0.1131
10544W        W23958   9.728   8.148   2.851 -0.1311 -0.2648  0.1282
10545W        W23959  13.586   3.595   3.053  0.1929 -0.0150  0.0777
10546W        W23960  14.938  15.265   5.838 -0.1395 -0.1710  0.0472
10547W        W23961   8.983  16.242   0.586  0.2109 -0.1957  0.0387
10548W        W23962   1.989  15.834  15.690 -0.2543 -0.3093 -0.2532
10549W        W23963  16.373   3.613   4.287  0.2089 -0.0591 -0.1325
10550W        W23964  15.152   4.680   3.784  0.0306  0.2058 -0.1538
10551W        W23965   2.679  17.242  12.784 -0.1364 -0.2176 -0.3589
10552W        W23966  15.331   6.083  15.829 -0.2376 -0.1892  0.2004
10553W        W23967  17.284  16.078   2.589 -0.0054  0.0422 -0.1108
10554W        W23968   5.169   4.993   4.519 -0.0810  0.2302  0.0270
10555W        W23969   3.227   9.632  12.458  0.0898  0.2069  0.2988
10556W        W23970   3.242  11.808   3.773  0.0583  0.0502  0.1247
10557W        W23971   6.200   1.998  13.550  0.0875  0.1740  0.0647
10558W        W23972  16.228   7.759  12.742 -0.3234  0.2344  0.2276
10559W        W23973   9.923  12.488  13.350 -0.2561  0.2476  0.0055
10560W        W23974  16.522   1.627  12.076  0.0462  0.0668  0.1119
10561W        W23975  16.454   9.849   3.835 -0.0516 -0.0941  0.3053
10562W        W23976   2.826  10.815  10.550  0.0600  0.0333  0.1086
10563W        W23977  12.981  15.877  15.042 -0.0756 -0.3266  0.0220
10564W        W23978  17.698   5.133   0.836 -0.3242  0.1414 -0.0696
10565W        W23979  15.719  14.729   3.094  0.3942  0.2947  0.0597
10566W        W23980  16.245   9.926   4.339 -0.0542  0.2200 -0.3652
10567W        W23981  10.358  13.752   1.629 -0.1580  0.1447 -0.2278
10568W        W23982   1.237  13.368   1.849 -0.1536 -0.0613 -0.2337
10569W        W23983   1.013   1.754  12.602  0.0570 -0.2004 -0.1675
10570W        W23984  12.504   6.082   1.491 -0.1064 -0.0254  0.2219
10571W        W23985   3.012   5.952   3.782 -0.3563  0.1508  0.1234
10572W        W23986  16.170  15.270  12.267 -0.1574 -0.0975 -0.3491
10573W        W23987   8.524  17.608   6.220 -0.0344 -0.0459 -0.0075
10574W        W23988   3.112   0.191  11.651 -0.0525  0.2935 -0.1143
10575W        W23989   0.624  10.271  10.727  0.2637 -0.0067 -0.0831
10576W        W23990   9.988   2.484   3.406 -0.1475 -0.2325 -0.0199
10577W        W23991   9.785   7.412  15.298  0.1789 -0.1511 -0.2674
10578W        W23992   3.303   1.666  11.679  0.2429  0.0610 -0.3339
10579W        W23993  17.179   5.427  15.194 -0.1287  0.0478  0.0815
10580W        W23994  14.375   7.810  11.674 -0.1806  0.2601  0.2542
10581W        W23995   7.196  10.732  16.731  0.2259 -0.5058 -0.1875
10582W        W23996   9.377   8.429   3.756  0.0243  0.0509 -0.0106
10583W        W23997   7.946   2.154  12.804  0.2964  0.2413  0.0810
10584W        W23998  12.645   4.275  14.323 -0.0419  0.1627  0.1227
10585W        W23999  17.695  13.292  12.353 -0.0811 -0.5928 -0.2221
10586W        W24000  15.434   8.064   3.447 -0.3697 -0.2110  0.2968
10587W        W24001  13.533  14.717  16.098 -0.2671  0.0100 -0.2916
10588W        W24002  11.200   8.290   0.457  0.0114 -0.2234  0.1366
10589W        W24003  12.681  11.831   1.010 -0.3368 -0.0767  0.1088
10590W        W24004  12.330   3.377   0.372  0.0064 -0.0923  0.2592
10591W        W24005   7.228   1.283   3.718  0.0273  0.1521 -0.3637
10592W        W24006  13.971  13.501   1.180  0.3743  0.0396 -0.3134
10593W        W24007   3.547   8.819  10.316  0.2376  0.2984 -0.2194
10594W        W24008  14.556  12.971  12.447 -0.0517 -0.2163 -0.0091
10595W        W24009   1.130  12.769  13.032  0.1034  0.0454 -0.0634
10596W        W24010  16.807   8.487  15.644  0.0055  0.0938  0.0162
10597W        W24011  10.831  10.514  14.494  0.0503  0.3258 -0.1634
10598W        W24012   5.037   2.899   1.155 -0.0637 -0.0419  0.0733
10599W        W24013   5.907  10.518  16.420 -0.0545 -0.2082 -0.1339
10600W        W24014  16.487   9.286  13.246  0.0879  0.0482 -0.1039
10601W        W24015   3.716   3.313   0.051  0.2431 -0.3343 -0.0854
10602W        W24016   8.104  11.253   0.840 -0.0413  0.0110  0.2289
10603W        W24017   5.174   9.699  16.543  0.0759 -0.0583  0.0663
10604W        W24018   2.253   7.408   4.437  0.2865 -0.1860  0.2620
10605W        W24019  12.850   8.186  13.428 -0.2616 -0.2209  0.0004
10606W        W24020  10.312  10.348   3.936  0.2793  0.1067 -0.0534
10607W        W24021   5.108  17.726   0.630 -0.0835  0.1785  0.0124
10608W        W24022   1.598   6.244   1.015 -0.1733 -0.3672 -0.0124
10609W        W24023   4.518   4.695  13.287 -0.2148  0.3191 -0.1978
10610W        W24024   1.541   6.382  11.300 -0.3135 -0.2047 -0.1483
10611W        W24025   9.188   7.874  13.093  0.2013 -0.1601  0.1005
10612W        W24026   0.539  10.500  13.112 -0.1257 -0.0412 -0.2628
10613W        W24027   9.901  11.090   0.120 -0.0994 -0.0181  0.0407
10614W        W24028   5.515  13.425   0.098 -0.2595  0.0629 -0.0143
10615W        W24029   1.038   2.083  13.705  0.2477 -0.0215  0.0895
10616W        W24030   4.282   9.215   0.788  0.0051 -0.0436  0.0537
10617W        W24031   4.423  12.644  11.968  0.1715  0.1094  0.2135
10618W        W24032  10.057  14.591  14.219 -0.1333  0.1431  0.0706
10619W        W24033  10.964   7.713  14.983 -0.0283  0.0543  0.2908
10620W        W24034  11.766   8.588  13.998 -0.1288 -0.1560 -0.0331
10621W        W24035  12.875   7.535  11.043 -0.1692 -0.3034 -0.0195
10622W        W24036  13.489  13.448   0.975  0.2019 -0.1417  0.3128
10623W        W24037   3.428   6.177   2.486  0.1662 -0.0870  0.0097
10624W        W24038  16.126   7.034   1.069 -0.0001 -0.3004  0.1095
10625W        W24039   9.784  12.638  14.533 -0.0570 -0.0756 -0.0215
10626W        W24040   7.951  10.988  11.175 -0.1624 -0.1013 -0.1026
10627W        W24041  15.400   1.731  11.910  0.1411  0.1036  0.0023
10628W        W24042   3.493   8.438   2.536 -0.2338 -0.1486  0.1774
10629W        W24043   0.573  13.098   5.816  0.1247  0.1433 -0.0657
10630W        W24044  17.063  15.294   5.257 -0.0930  0.0886 -0.2327
10631W        W24045   3.227   7.450  12.513  0.0656  0.0875  0.0044
10632W        W24046  10.074   7.238   0.867 -0.0020  0.0292  0.1492
10633W        W24047   4.670   0.899   3.523 -0.3949  0.1330 -0.3099
10634W        W24048   5.371  16.016   0.453  0.0563  0.0188 -0.1183
10635W        W24049  15.450   0.913   5.704  0.1325  0.1563 -0.2936
10636W        W24050   1.365  10.122  12.984  0.1010 -0.1564  0.1718
10637W        W24051   5.102  10.478   3.437 -0.0866  0.1194 -0.0983
10638W        W24052  15.710  15.537   4.211 -0.2427 -0.2513  0.1325
10639W        W24053  13.810   0.828  14.703  0.2621 -0.0470 -0.1333
10640W        W24054  16.676   7.820  10.945 -0.0152 -0.0416  0.1753
10641W        W24055   1.462  17.801  10.210  0.1412  0.1514  0.2636
10642W        W24056  13.541   3.612   5.957 -0.0511 -0.1162 -0.0738
10643W        W24057  15.573   6.602   4.911 -0.0218 -0.1006 -0.0663
10644W        W24058   3.006   4.966  11.517 -0.1462  0.0925  0.1191
10645W        W24059   1.231   7.223   5.260  0.2178 -0.1266 -0.4040
10646W        W24060  14.317  15.437   3.060  0.1405 -0.2070  0.0273
10647W        W24061   4.985   8.755   5.280  0.0471 -0.0085  0.1409
10648W        W24062  14.024   6.559   3.579 -0.1283 -0.0198 -0.1505
10649W        W24063   5.791   2.031  11.655 -0.1917  0.3061  0.1922
10650W        W24064  11.875   3.842   3.749  0.1428  0.1509  0.2667
10651W        W24065   8.226  12.072  15.672 -0.1470 -0.1679  0.1311
10652W        W24066  16.290  13.608  14.357  0.2725 -0.1183 -0.1027
10653W        W24067  16.896   5.942  16.560  0.2102 -0.2668 -0.1269
10654W        W24068  10.568   3.665   5.316 -0.0932 -0.0540  0.0089
10655W        W24069   7.440   8.123  15.758 -0.2022 -0.0033 -0.0715
10656W        W24070  17.182   8.430   5.622 -0.4967  0.0813  0.1459
10657W        W24071   1.396   6.120  12.538 -0.1861  0.0609 -0.2285
10658W        W24072   1.383   7.611  16.487  0.1710 -0.1168 -0.0923
10659W        W24073  13.595  14.940  15.667 -0.1475 -0.1320  0.1785
10660W        W24074   5.686   1.282   2.389 -0.1732 -0.0371 -0.1086
10661W        W24075   4.304   8.895   3.119  0.0296  0.2207 -0.3359
10662W        W24076  13.314   5.512   6.390  0.2068  0.2022 -0.2411
10663W        W24077  17.704  14.631  16.747 -0.2604  0.2119 -0.0209
10664W        W24078   7.363   7.759   0.366  0.1641 -0.0417  0.2321
10665W        W24079  17.162  16.842   1.787 -0.2401  0.2345  0.1605
10666W        W24080   3.945  13.361   3.829 -0.0510 -0.2717 -0.1048
10667W        W24081  14.569   5.476  16.189  0.0115 -0.2266  0.2245
10668W        W24082   9.299  11.974  16.271 -0.4715  0.0378 -0.2068
10669W        W24083  13.035  15.283  14.511 -0.0658 -0.2044 -0.0296
10670W        W24084   8.487   1.159  12.660  0.0665  0.1390 -0.1914
10671W        W24085   5.735   9.023   2.530 -0.1243  0.0886  0.2374
10672W        W24086  11.974   3.495   3.165 -0.5919  0.1498 -0.3389
10673W        W24087  11.657  17.855  11.663  0.0696 -0.0738 -0.0650
10674W        W24088  17.024  13.442   0.969 -0.1010  0.2045 -0.1663
10675W        W24089   6.524  11.085   5.928 -0.0864 -0.2225  0.2100
10676W        W24090   0.087   0.366  14.545  0.0388 -0.0306 -0.0078
10677W        W24091   7.528  11.375  16.157  0.1756 -0.0589 -0.0907
10678W        W24092   5.311   2.279  13.969  0.1011 -0.0321 -0.0152
10679W        W24093   5.385  15.582  15.515 -0.3513 -0.0426 -0.0064
10680W        W24094  10.941   7.067   6.104 -0.1172 -0.2568  0.0148
10681W        W24095   5.790   3.959  14.429 -0.5072  0.1502 -0.2768
10682W        W24096  17.895   6.074  11.398 -0.2242  0.0113 -0.2406
10683W        W24097   4.748   9.536   0.915  0.0599 -0.1103 -0.3304
10684W        W24098   3.448  17.811   1.216  0.0506  0.4708 -0.0199
10685W        W24099   7.269   1.555  12.758 -0.1034  0.0283 -0.1184
10686W        W24100   1.330  14.778  10.452 -0.0522 -0.0063 -0.1276
10687W        W24101  17.625   5.043  16.335 -0.1148  0.0555  0.2900
10688W        W24102   2.045  14.615  11.622  0.0498 -0.0796 -0.2031
10689W        W24103   7.196   0.161  15.863  0.3330 -0.0767 -0.2520
10690W        W24104   4.778   0.839  13.081 -0.0102 -0.0574 -0.0195
10691W        W24105  12.724   1.022  12.673 -0.0545  0.1016 -0.0556
10692W        W24106   5.565  10.777  15.842  0.1030 -0.1005 -0.0660
10693W        W24107   4.717  12.834   4.988  0.3292 -0.2076  0.0875
10694W        W24108   6.135   5.130   3.472 -0.1737  0.1261 -0.3824
10695W        W24109  11.548   5.161   1.793  0.0564  0.1694  0.3551
10696W        W24110  17.599   9.164   2.787 -0.3466 -0.1675  0.0546
10697W        W24111  16.118   3.118   1.976 -0.1794  0.1922  0.1270
10698W        W24112  11.074  16.836  12.474 -0.1257 -0.1755  0.0240
10699W        W24113   6.680   6.402  13.985 -0.3143  0.1508 -0.0587
10700W        W24114   4.813   8.523   0.200  0.1066  0.2961 -0.0524
10701W        W24115  17.447   5.569   4.654  0.1860  0.1020  0.2221
10702W        W24116   7.170   7.057   4.469 -0.0632 -0.2784  0.1820
10703W        W24117  16.347   8.062  14.623  0.0155  0.1157  0.2612
10704W        W24118   7.257  15.215   0.364  0.1972 -0.1720 -0.2517
10705W        W24119   9.415   4.705   4.915 -0.1205  0.0897  0.3243
10706W        W24120   9.073   6.182  15.151  0.0003  0.0773  0.3484
10707W        W24121   5.396  14.606  10.657 -0.0393  0.0360  0.4158
10708W        W24122  16.000  11.523  14.141 -0.3245  0.1517  0.0938
10709W        W24123   4.505  12.100   4.081  0.1157 -0.2324 -0.0106
10710W        W24124  11.122  14.137   1.131 -0.0156 -0.1723  0.0943
10711W        W24125   2.646  17.450  14.931  0.0369  0.3523  0.2110
10712W        W24126  14.065  13.276  11.939  0.1240 -0.1203 -0.0250
10713W        W24127  11.523   3.257   1.313  0.0657  0.0836  0.1024
10714W        W24128   5.958   0.335   1.345 -0.0382  0.0578  0.1325
10715W        W24129   5.743   8.707  14.247  0.0849 -0.0419  0.2111
10716W        W24130   4.379   5.693  14.478 -0.0772  0.0042  0.0343
10717W        W24131   9.713  17.307  15.754  0.3280 -0.1460 -0.1352
10718W        W24132   2.108   9.137   0.951  0.1184 -0.1076  0.0050
10719W        W24133   2.395  10.816  13.267 -0.0888  0.0651 -0.2738
10720W        W24134  12.677   3.283   3.526 -0.0805  0.2922 -0.0454
10721W        W24135  15.921  10.546  15.056  0.0778  0.3351  0.0880
10722W        W24136  16.065   3.152   0.607 -0.1251  0.3303 -0.2752
10723W        W24137  11.580   8.581   0.154  0.2253 -0.1007 -0.0402
10724W        W24138  12.628   0.661   1.286  0.4323 -0.2197 -0.2043
10725W        W24139   2.732  10.185  15.803 -0.2685  0.0337 -0.0003
10726W        W24140  15.236  17.739   3.071  0.0540  0.1557  0.1634
10727W        W24141   5.363  17.610  11.700  0.0018  0.2487  0.1637
10728W        W24142  11.551  16.180   6.361 -0.1687 -0.0545  0.0221
10729W        W24143   0.310  16.316   3.724  0.2959  0.0582  0.1407
10730W        W24144   7.708  13.427  15.027  0.1488 -0.1727  0.2872
10731W        W24145   9.916   1.514  15.207 -0.2744  0.0374 -0.0260
10732W        W24146  16.961   0.469   1.808  0.1799  0.1429  0.0103
10733W        W24147  13.288  16.411   1.180  0.0198  0.2495  0.1425
10734W        W24148   8.903  12.231   3.306 -0.0984  0.4260  0.3612
10735W        W24149   9.886  16.130  12.014 -0.0796 -0.1858 -0.0374
10736W        W24150  13.783  15.201  16.154 -0.2518 -0.1724  0.0413
10737W        W24151  15.906  14.771  15.555 -0.2224  0.2487  0.0108
10738W        W24152  14.830  13.374  11.716 -0.1995  0.1677 -0.1495
10739W        W24153   3.590   6.813   2.940  0.2096  0.0230 -0.0925
10740W        W24154  15.340  10.346  14.897 -0.2928  0.1774  0.2342
10741W        W24155   6.309   0.160   3.626 -0.2156  0.0890  0.3296
10742W        W24156   8.248   4.106   2.467  0.0942  0.0104 -0.2283
10743W        W24157   1.756  16.002   2.102 -0.0236 -0.4376 -0.1289
10744W        W24158  16.011   3.869   0.457 -0.0077 -0.0250 -0.0482
10745W        W24159   3.309   8.701  10.703 -0.0899 -0.1328 -0.1665
10746W        W24160  16.517  13.596   0.418 -0.4025  0.3638  0.1996
10747W        W24161   8.275  15.496   3.755  0.0853  0.0397  0.1531
10748W        W24162   4.859   8.753  14.525  0.1299  0.0742 -0.0437
10749W        W24163   9.021   7.243  15.896  0.0714 -0.1819 -0.0035
10750W        W24164  11.467   0.449  13.616 -0.1338 -0.3628 -0.0314
10751W        W24165   5.441  10.575   6.757  0.0751  0.0937 -0.1089
10752W        W24166   4.807   8.687   2.626  0.0207 -0.4410  0.0924
10753W        W24167   7.152   9.402   2.939 -0.1918 -0.0497  0.0846
10754W        W24168   6.779   8.963   6.408 -0.0603 -0.5554  0.0401
10755W        W24169  11.476   1.806  15.210 -0.0692 -0.1471  0.1456
10756W        W24170   0.363   7.318  11.039  0.0835  0.1958 -0.1362
10757W        W24171   8.054  13.209  13.159 -0.0027 -0.2030 -0.0167
10758W        W24172   5.381   0.228  16.026  0.3492 -0.2689 -0.1332
10759W        W24173  11.599  10.965   3.959 -0.0021 -0.0772 -0.4513
10760W        W24174  10.913  17.504   0.714 -0.2821 -0.0596 -0.2414
10761W        W24175  14.626  13.202   4.644  0.1550 -0.1592 -0.1163
10762W        W24176  17.125   3.468   3.674 -0.4009 -0.3584  0.6916
10763W        W24177   5.120   7.343  14.679 -0.0512 -0.0933 -0.2244
10764W        W24178   3.412   7.081  10.909 -0.0060  0.2852  0.0452
10765W        W24179   9.816   4.098   2.344 -0.1136  0.0100  0.2303
10766W        W24180  11.169  10.517  16.300 -0.1136 -0.1410  0.1354
10767W        W24181   8.811   4.134  13.300 -0.1281 -0.1605 -0.1723
10768W        W24182  16.731  12.340  14.709  0.1985  0.0061 -0.0356
10769W        W24183  13.703   5.104   0.920  0.0941  0.3232 -0.2803
10770W        W24184   0.409   5.680  15.162  0.1341 -0.1417 -0.3245
10771W        W24185   8.893   8.174   5.810 -0.2041  0.1097  0.0168
10772W        W24186   7.641   4.017   4.312  0.1423  0.3021  0.2047
10773W        W24187   4.820  16.551   5.515 -0.0120  0.1791 -0.1329
10774W        W24188  13.152  14.481  13.095 -0.1952 -0.1873 -0.0586
10775W        W24189  17.424  17.961  16.082 -0.1987  0.2920 -0.0548
10776W        W24190   8.403  13.581   4.280 -0.2753  0.0375  0.0361
10777W        W24191  10.821  11.733  13.302 -0.0261 -0.3201  0.4704
10778W        W24192   7.940  16.391   5.788 -0.0163  0.1551  0.1626
10779W        W24193   2.200   4.250   0.411  0.0822  0.0976  0.4632
10780W        W24194  15.300  17.173   3.286 -0.2608  0.1495  0.0429
10781W        W24195   1.959  15.571  12.368  0.1048  0.0624 -0.2390
10782W        W24196  15.004   8.675   4.945  0.1051 -0.0884 -0.0837
10783W        W24197  16.195   3.179   2.570 -0.0427 -0.0895 -0.0579
10784W        W24198  10.383   2.077  12.547  0.0015 -0.0598 -0.0331
10785W        W24199   7.073  15.841  11.128  0.3305 -0.0784 -0.1801
10786W        W24200  12.841   0.168  11.117 -0.1717 -0.1265  0.0415
10787W        W24201  12.442   4.738   1.109  0.3254  0.0235  0.3538
10788W        W24202   2.804  16.230  14.895  0.0826 -0.0324 -0.1711
10789W        W24203   1.318   3.904  11.194  0.2013 -0.0855  0.1338
10790W        W24204   3.704   8.066   4.164  0.1887  0.0147 -0.0104
10791W        W24205  13.631   1.381   6.089  0.2580  0.0053  0.2318
10792W        W24206  11.462   1.972   2.197  0.0944 -0.1079 -0.0160
10793W        W24207  16.981   8.819  12.575 -0.1775 -0.2148 -0.2887
10794W        W24208   5.208   5.526   1.720  0.0870  0.3651 -0.0035
10795W        W24209  10.334   6.379   1.536  0.1164 -0.0163  0.0394
10796W        W24210  12.899  12.662  11.060 -0.0525  0.4631  0.3074
10797W        W24211  12.966   4.146  10.563  0.1783  0.0226 -0.0943
10798W        W24212   1.123   9.297  16.772  0.0415 -0.1495  0.3570
10799W        W24213   3.972   8.036  14.779 -0.1203 -0.1565 -0.0765
10800W        W24214   9.998   0.664  14.037  0.1374 -0.0309 -0.0097
10801W        W24215  16.263   4.996  15.209  0.0697  0.2540  0.0288
10802W        W24216  11.613   2.722  15.957  0.0145  0.3272  0.0776
10803W        W24217  17.083  17.780   3.966  0.2980  0.2401 -0.2551
10804W        W24218   9.056   4.940  14.464 -0.0855  0.2804 -0.0856
10805W        W24219  16.619   8.049   1.055  0.0835 -0.2176  0.2907
10806W        W24220   6.774   8.419   3.911 -0.2619 -0.1759 -0.0833
10807W        W24221   5.836   8.526   2.365  0.2235 -0.0410  0.1971
10808W        W24222   7.996  14.590   5.804  0.1193 -0.1444 -0.3047
10809W        W24223   9.351   7.996  16.656 -0.0698  0.1431 -0.1287
10810W        W24224   7.973   5.744  14.701  0.0699 -0.2081 -0.1105
10811W        W24225   7.592   2.717   0.485 -0.2410  0.4006 -0.2194
10812W        W24226   6.531  13.011  13.981  0.1795  0.0197 -0.2454
10813W        W24227  12.543  16.866  15.360 -0.0016  0.0712 -0.1264
10814W        W24228  11.136   0.626   0.992  0.1149  0.0150  0.1154
10815W        W24229   4.995   3.150   1.703  0.0374  0.0480  0.1461
10816W        W24230   8.708  11.510   3.780 -0.0599 -0.0837  0.1508
10817W        W24231  13.237  14.906  12.627  0.2457  0.0167 -0.2010
10818W        W24232  12.815  11.540   5.863 -0.0072 -0.1885 -0.0613
10819W        W24233   1.733  11.936   0.623 -0.3016 -0.0840  0.0999
10820W        W24234   9.333   7.367  13.481  0.2458 -0.3021  0.1679
10821W        W24235  16.187   2.363  15.535  0.0898 -0.2403  0.0494
10822W        W24236   0.941  11.687  13.619  0.0957  0.4288 -0.0170
10823W        W24237  14.572  16.521   3.360  0.1205  0.1124 -0.1497
10824W        W24238   7.360   9.052   5.999 -0.0225 -0.0729  0.1887
10825W        W24239  17.745  11.392   1.160 -0.0844  0.1934  0.0239
10826W        W24240  17.200  14.388   4.907  0.1843  0.1734 -0.2381
10827W        W24241  13.058   9.670  14.462 -0.1063 -0.2095  0.3261
10828W        W24242  12.261  10.097   5.912 -0.2486 -0.1275  0.2142
10829W        W24243   7.668   8.399  11.220  0.2760 -0.2712  0.1028
10830W        W24244   2.795  14.757  16.274  0.0079 -0.0018  0.2745
10831W        W24245  17.688  16.218   3.647  0.0509 -0.2015 -0.1115
10832W        W24246   3.831  12.240  16.469  0.0844 -0.0127 -0.2042
10833W        W24247   4.690  13.944  16.621 -0.4156  0.1243 -0.4688
10834W        W24248   8.900   0.807   1.658 -0.1531 -0.2383 -0.0840
10835W        W24249   2.059   6.003   3.952 -0.0157 -0.3992  0.1290
10836W        W24250   3.810   7.262  11.374 -0.1839 -0.0992 -0.0381
10837W        W24251  14.068  12.095  15.608  0.0361  0.0093 -0.0193
10838W        W24252   5.861   9.234  12.980  0.1198 -0.1809 -0.2635
10839W        W24253  11.403  12.370   6.108  0.2528 -0.0476  0.1604
10840W        W24254  11.310   6.003   2.756  0.1578 -0.0616 -0.1335
10841W        W24255   6.076   5.650  11.401  0.0076 -0.1109  0.1770
10842W        W24256  17.618  15.322  12.232 -0.1683 -0.0817 -0.0310
10843W        W24257  15.588   3.791   3.686  0.0762 -0.1137  0.1466
10844W        W24258  16.720   1.731  12.685 -0.0819 -0.1122 -0.2071
10845W        W24259   9.837   7.011   0.435 -0.0856  0.1116 -0.0186
10846W        W24260  12.038  10.060  15.097  0.0039 -0.1047 -0.0873
10847W        W24261  13.849  16.971   0.105  0.0303  0.0960 -0.2464
10848W        W24262  13.973   0.710   4.291 -0.1031  0.2764 -0.0943
10849W        W24263   7.276   2.372  11.451  0.1683 -0.0740  0.1211
10850W        W24264  15.816  12.326   4.260  0.1629  0.0792  0.2516
10851W        W24265  11.517  10.894  14.831  0.0913 -0.0088  0.0726
10852W        W24266   2.427   1.139   3.543 -0.1731  0.0062  0.1333
10853W        W24267  14.710   7.645   2.665 -0.0506  0.1878 -0.2106
10854W        W24268   1.687   0.553  10.512 -0.1823 -0.3607  0.0720
10855W        W24269  10.734   7.716   4.043  0.0358  0.2159 -0.1883
10856W        W24270   0.113  16.731   1.210 -0.2639  0.0801 -0.2196
10857W        W24271  15.188   3.762  10.758  0.2620 -0.0797  0.0399
10858W        W24272  16.167   8.012  13.658 -0.3703 -0.1425 -0.2468
10859W        W24273   9.323   0.925   5.803  0.4956 -0.3486  0.3099
10860W        W24274   0.821  15.227  13.525  0.0037  0.2189 -0.1248
10861W        W24275  10.296   2.731  14.607 -0.1621  0.1373 -0.0550
10862W        W24276  12.152   1.064   2.933 -0.0047 -0.0012  0.1994
10863W        W24277  15.180  13.087  13.211  0.3050  0.0129 -0.0283
10864W        W24278   8.929  13.477  14.167 -0.0066 -0.1221 -0.2769
10865W        W24279  16.185   6.346  11.734  0.1672  0.2062 -0.0708
10866W        W24280   1.466   8.676  14.094 -0.2013 -0.0802  0.1521
10867W        W24281   1.770  14.271  11.407 -0.0117  0.0739  0.3183
10868W        W24282   4.686   1.781   2.030 -0.1777  0.3006  0.0409
10869W        W24283  15.604  13.662   6.356 -0.1137 -0.0060 -0.0676
10870W        W24284   3.992   1.168   6.150  0.3869  0.2562  0.0437
10871W        W24285   8.987   9.690  16.037 -0.3570 -0.3497  0.1754
10872W        W24286   2.100   3.357   3.164  0.1428  0.2300  0.1462
10873W        W24287   1.404   2.768  10.370 -0.3603 -0.2344  0.0505
10874W        W24288   1.968   7.601  16.266  0.0689 -0.0387 -0.3586
10875W        W24289   8.750  12.989  12.717  0.0753 -0.1405 -0.1187
10876W        W24290  16.840   1.292   1.435  0.0112 -0.4179  0.2865
10877W        W24291   7.779  13.031   3.501 -0.0138 -0.1891 -0.0849
10878W        W24292  13.729   4.579   3.229 -0.2157  0.0808 -0.0269
10879W        W24293   4.291  10.333  15.837  0.2872  0.2215  0.2770
10880W        W24294   4.462  11.289   2.056 -0.0405  0.0281 -0.2665
10881W        W24295   4.926  17.153  16.581 -0.1132 -0.1410 -0.1101
10882W        W24296  12.688  10.835   3.494  0.4158  0.1224  0.0745
10883W        W24297  14.989   9.402  14.057  0.0650  0.1991  0.0235
10884W        W24298   1.153   7.342   3.912  0.1115 -0.0981 -0.2001
10885W        W24299  13.602  14.712   0.359  0.0506  0.1532 -0.0118
10886W        W24300  15.803   7.084  12.081  0.0405 -0.0802 -0.0396
10887W        W24301   7.286  14.577   5.151  0.2116  0.0859  0.0393
10888W        W24302   4.380  15.899   1.625  0.3819  0.0696 -0.2863
10889W        W24303  17.028   4.286   3.651  0.3104 -0.1436 -0.0358
10890W        W24304  11.312   7.392   0.382  0.0917 -0.2150 -0.1941
10891W        W24305   5.648   1.559  15.924 -0.2266  0.3993  0.1030
10892W        W24306   6.242   9.062   6.463  0.2283 -0.2534 -0.0815
10893W        W24307   0.472   7.318   4.592  0.2926 -0.0850  0.2391
10894W        W24308   1.691  11.247   3.521  0.2519 -0.2094  0.0120
10895W        W24309  11.550  14.302   1.489 -0.3513 -0.1930  0.0272
10896W        W24310   2.464   8.799   0.142  0.1753  0.1405 -0.1950
10897W        W24311   3.615  11.736  16.296 -0.0954 -0.3616  0.0761
10898W        W24312  16.635  13.641  13.564 -0.2726  0.4086 -0.0237
10899W        W24313   6.596  12.954   6.606  0.3408 -0.1231 -0.1077
10900W        W24314  15.888   1.658  15.249 -0.1502  0.1721 -0.1398
10901W        W24315  17.986   0.282  12.621  0.0551  0.0711 -0.0964
10902W        W24316   8.148  13.136  14.208  0.2527  0.0906 -0.0118
10903W        W24317  12.035  15.153  14.203 -0.2527 -0.2884 -0.0410
10904W        W24318   9.838   4.092   1.787 -0.0639 -0.3256  0.0402
10905W        W24319   2.143   7.561   1.235  0.1338 -0.2934 -0.0570
10906W        W24320   2.515   2.449  16.118  0.1208 -0.0962 -0.1973
10907W        W24321  16.985   4.554  13.372  0.2252 -0.0230 -0.1509
10908W        W24322  11.236  10.916  12.076  0.0423  0.0733 -0.0011
10909W        W24323   9.725   3.988   5.440  0.0876  0.2828  0.2676
10910W        W24324  10.988  11.194   5.813  0.0236  0.2444 -0.1307
10911W        W24325   0.249   7.734  14.407  0.4217  0.0216  0.0258
10912W        W24326  11.392  16.042   2.867 -0.1578  0.0244  0.1994
10913W        W24327   4.216   6.915  12.824 -0.1354 -0.0193 -0.0342
10914W        W24328   2.301   1.773  10.128 -0.0118  0.3311  0.1010
10915W        W24329  11.305  13.511  12.510  0.0766  0.2546 -0.0891
10916W        W24330   3.200  14.372   3.379  0.2964 -0.0616  0.0593
10917W        W24331  10.013   0.105   6.580  0.0549 -0.1431  0.0310
10918W        W24332   2.509  11.137  15.735  0.0715 -0.1389  0.2211
10919W        W24333  16.967   2.862   1.398  0.4523  0.2697  0.0073
10920W        W24334  14.318  14.537   1.409 -0.1520 -0.0403  0.1063
10921W        W24335  11.205   0.530  14.453  0.0434  0.1435 -0.1849
10922W        W24336  12.574   7.152   2.121 -0.0458 -0.1247 -0.0827
10923W        W24337   9.145  17.953  12.289 -0.1993  0.2404 -0.0762
10924W        W24338   8.679  17.814   1.998 -0.2662  0.0676  0.2428
10925W        W24339  10.984  14.695  12.984  0.0033  0.1251 -0.3733
10926W        W24340  14.375   5.201  12.391 -0.0833  0.1439 -0.1066
10927W        W24341  16.887  11.903  13.442  0.0592 -0.2008 -0.0894
10928W        W24342  16.151   0.846   2.818  0.3519 -0.1691  0.0646
10929W        W24343  10.977   0.173   4.479  0.1860  0.2952 -0.3973
10930W        W24344   0.328  14.405  11.395  0.0365 -0.1835  0.1587
10931W        W24345   5.442   0.333  10.768  0.0693 -0.0102 -0.0516
10932W        W24346   5.658   4.357   1.114  0.4292 -0.0612  0.1480
10933W        W24347   5.110   3.967  10.382 -0.1337 -0.0358 -0.1128
10934W        W24348   2.096  11.622   1.051  0.3390  0.0019 -0.0151
10935W        W24349   2.675   5.361  12.417  0.0830 -0.2063  0.2467
10936W        W24350   9.426  16.500  10.411  0.0690  0.2602 -0.3057
10937W        W24351   7.459   9.864   5.478 -0.0963 -0.2393 -0.4173
10938W        W24352   2.360  12.686  10.470 -0.2061  0.0915 -0.2115
10939W        W24353  17.063  10.435   3.993  0.0128 -0.0281 -0.1488
10940W        W24354  16.709   3.517  10.724 -0.0744 -0.1966  0.2489
10941W        W24355  17.980  13.753   6.453 -0.1195  0.0356 -0.0238
10942W        W24356   5.037   9.862   0.243  0.2417  0.0158  0.0788
10943W        W24357   5.884   7.514   1.133  0.0466 -0.1442  0.1721
10944W        W24358   9.259   7.535  16.257 -0.0325  0.3156  0.3722
10945W        W24359   6.084  12.014   4.869  0.0502 -0.2850  0.1468
10946W        W24360   2.694  12.862  11.971  0.3641  0.0480 -0.0199
10947W        W24361  13.578   7.061   5.271  0.0017  0.2624  0.2833
10948W        W24362   9.679  13.085   3.307 -0.0136 -0.0128 -0.0811
10949W        W24363  16.883  14.791   2.138  0.0575  0.3732 -0.1291
10950W        W24364   5.139  10.006  15.985  0.0371 -0.1596  0.0821
10951W        W24365   5.291   4.759  15.162 -0.0671  0.2194  0.1407
10952W        W24366   1.726   2.470   1.541  0.3692  0.1668 -0.0135
10953W        W24367   1.197   6.768  14.772  0.0889  0.0689 -0.0377
10954W        W24368   4.254   2.434  15.871  0.1256 -0.1160 -0.1236
10955W        W24369  17.372   8.423   4.669  0.0827 -0.1730  0.0516
10956W        W24370  12.936  17.117   4.363 -0.1449  0.1940 -0.3193
10957W        W24371   1.235   2.179   4.328 -0.2102  0.1300 -0.1214
10958W        W24372  10.783   4.255  15.746  0.0504  0.2916  0.0929
10959W        W24373   1.997   3.675  16.507  0.0929  0.2598  0.2242
10960W        W24374  11.514   4.469  15.794 -0.0702  0.4496  0.1306
10961W        W24375  12.399   9.780   4.751 -0.3589 -0.2464 -0.0097
10962W        W24376  14.142  17.814   3.642  0.0084 -0.0116 -0.0607
10963W        W24377  14.143  10.275   3.674 -0.2690 -0.0480  0.0085
10964W        W24378  12.207   9.523   3.643 -0.2313  0.1064 -0.0866
10965W        W24379  15.465   3.323  11.696 -0.1424  0.1378  0.0495
10966W        W24380   8.834  15.385   1.634 -0.2417 -0.1408  0.2342
10967W        W24381   3.165  16.942   1.597  0.1775 -0.3436  0.0762
10968W        W24382  10.482  16.166  16.345  0.0505  0.1544  0.0152
10969W        W24383   9.004  14.833  13.251  0.1548 -0.1598 -0.0502
10970W        W24384   5.103   7.472   5.004  0.0423  0.1753  0.0507
10971W        W24385  14.098  14.077  13.063 -0.0117  0.1097 -0.0655
10972W        W24386  11.052   3.841   1.592  0.2709  0.1285  0.0747
10973W        W24387   2.701   3.006   4.451  0.1068  0.3859 -0.2396
10974W        W24388   5.187   3.294  10.523 -0.2750  0.0094 -0.0711
10975W        W24389  15.287  17.423  15.102 -0.1694 -0.3143  0.2162
10976W        W24390  11.500   8.772  14.695  0.0253 -0.3027 -0.1613
10977W        W24391   5.544  12.821   3.736 -0.1343 -0.3329  0.0464
10978W        W24392  17.515  14.301   4.521 -0.1528  0.2015 -0.0412
10979W        W24393   9.827  17.039  11.564 -0.1148 -0.2542 -0.0073
10980W        W24394  11.483   3.818  16.714  0.0554  0.2231  0.0155
10981W        W24395  17.810   0.791  14.526 -0.0208  0.2907  0.2079
10982W        W24396   6.253   5.781   2.301  0.1797 -0.2199  0.0536
10983W        W24397   2.125  15.729   5.151  0.1594 -0.0768  0.0955
10984W        W24398   7.936   8.752   3.599  0.3612 -0.2742 -0.1310
10985W        W24399   3.281   6.580  11.767  0.0972  0.1047  0.0521
10986W        W24400   8.530   2.099  15.173 -0.0712 -0.2864  0.1861
10987W        W24401   5.793   6.054   5.700  0.0067  0.0075  0.1973
10988W        W24402   9.296  12.711   5.814 -0.1203  0.1033 -0.3038
10989W        W24403  15.598   2.356   3.521  0.0402 -0.2885  0.1402
10990W        W24404  11.850  15.877  15.107 -0.0015  0.1001 -0.2530
10991W        W24405   6.197  16.133  14.313 -0.1400 -0.1097 -0.1699
10992W        W24406   9.561  13.164   4.267 -0.1499  0.1297  0.2530
10993W        W24407   1.957   0.377   4.738  0.1794 -0.0256  0.0550
10994W        W24408  13.088   5.576  14.473 -0.1171  0.1082 -0.0363
10995W        W24409   4.534   2.960   0.192 -0.0565 -0.0995  0.1861
10996W        W24410   4.312   0.148  13.421 -0.1937 -0.0003  0.1126
10997W        W24411   8.383  16.988   5.162  0.3974  0.0757 -0.0878
10998W        W24412  15.586  17.463   2.815 -0.0283 -0.1191 -0.0785
10999W        W24413   5.450   1.113   2.866  0.1442 -0.0692  0.1914
11000W        W24414   4.298   7.547  11.495  0.0583  0.0704  0.0197
11001W        W24415   3.755  12.469   4.039  0.1944  0.1570  0.0339
11002W        W24416   8.966  12.952  15.858 -0.0060 -0.0786  0.2349
11003W        W24417   3.374  10.163  12.511 -0.0961 -0.0304 -0.0505
11004W        W24418   5.072  17.036  10.813 -0.0664  0.2240 -0.1767
11005W        W24419   2.060  14.166   2.297  0.1861  0.1279  0.0542
11006W        W24420   5.318   3.677  13.009  0.0909 -0.0923 -0.0015
11007W        W24421   1.163  12.486   4.270 -0.0097  0.1588 -0.2476
11008W        W24422   8.584   1.634   1.602 -0.1488  0.1147 -0.0277
11009W        W24423   7.855  12.059   0.457 -0.2368  0.0902 -0.0360
11010W        W24424   2.896   4.258  14.999  0.1931 -0.2170  0.1494
11011W        W24425  12.652   4.258  11.470 -0.0011 -0.0435  0.0559
11012W        W24426  10.278  10.048   5.247 -0.1909 -0.2823 -0.1439
11013W        W24427  14.459   7.923   3.796  0.0273 -0.3693 -0.2822
11014W        W24428  15.749  17.621  14.892 -0.1960  0.0365  0.2218
11015W        W24429   5.159  12.343   2.951  0.0013 -0.1595 -0.1666
11016W        W24430  14.852   2.690   1.972 -0.1913  0.2613 -0.0106
11017W        W24431  12.913  14.715  13.715  0.2130 -0.0657 -0.2419
11018W        W24432   8.918  12.329   5.065  0.3001  0.2289 -0.2139
11019W        W24433   5.390   7.133   2.593 -0.1931  0.0847 -0.0780
11020W        W24434   2.221   6.614  16.334 -0.2914 -0.1917 -0.0714
11021W        W24435  11.243   8.569  13.169 -0.1733  0.2424  0.0518
11022W        W24436   5.648  15.363  12.135  0.1667  0.2074 -0.0331
11023W        W24437   3.778  10.761   2.163 -0.1081  0.3431 -0.1213
11024W        W24438   1.971   5.343  16.536  0.3474 -0.1164  0.0438
11025W        W24439  16.853  12.989  15.501  0.1408 -0.0332 -0.0761
11026W        W24440   7.723   7.473   2.963  0.0045  0.1239 -0.3268
11027W        W24441  15.810   2.495  16.381  0.0087 -0.1437  0.1586
11028W        W24442   8.403   3.818  16.534 -0.1966 -0.0156  0.2295
11029W        W24443   2.455   9.408  14.586 -0.0149  0.4151  0.0681
11030W        W24444  11.269  13.919   0.631 -0.1313 -0.3274  0.1779
11031W        W24445   2.763  14.740  14.156  0.0618 -0.0286 -0.2881
11032W        W24446  17.260   0.439  11.391  0.0946  0.2049  0.0301
11033W        W24447  11.686  10.925   0.021 -0.2423 -0.0225  0.1384
11034W        W24448   7.425   6.819  12.509  0.0509 -0.1921 -0.1338
11035W        W24449  16.511   2.749  15.638  0.1610 -0.0195 -0.2046
11036W        W24450   4.086  17.681   5.015 -0.3476 -0.2679 -0.0741
11037W        W24451  10.671   4.476   2.410  0.0489 -0.1380 -0.0042
11038W        W24452   3.680   7.965  16.317  0.1453  0.2547 -0.0215
11039W        W24453   6.291   6.963   4.599  0.2589  0.0907 -0.0129
11040W        W24454  12.936   0.396  14.371 -0.1823  0.2432  0.1791
11041W        W24455  14.010  10.263  12.599  0.0922 -0.2499 -0.0338
11042W        W24456  14.902   6.547   2.573  0.0974  0.2611  0.2203
11043W        W24457   1.621   4.376   4.271 -0.0814 -0.1713  0.4046
11044W        W24458  17.990  13.526   3.672 -0.1861  0.2238 -0.2385
11045W        W24459   4.666  10.252  12.930 -0.1504 -0.0927 -0.0043
11046W        W24460  11.503  11.241  13.981 -0.1662 -0.0474  0.2832
11047W        W24461   8.092   7.836   5.178  0.0928 -0.0024  0.0311
11048W        W24462   9.310   2.225   5.527  0.1532  0.2685  0.0654
11049W        W24463   7.635   3.418   6.036  0.1380  0.0787 -0.0383
11050W        W24464   3.376   8.669   4.593 -0.3591  0.0209 -0.0214
11051W        W24465   0.097   6.540   3.119 -0.3727  0.1200 -0.0136
11052W        W24466   4.627  14.620  11.381  0.1150 -0.0704  0.1380
11053W        W24467  11.656   2.574  11.491  0.1662 -0.1715 -0.0824
11054W        W24468  17.435   9.476  12.386 -0.2501  0.3084 -0.1942
11055W        W24469  16.189   8.320   2.687  0.0001 -0.1107  0.1041
11056W        W24470   0.988   6.097   4.679  0.1063 -0.0309  0.1298
11057W        W24471   7.647  16.565   0.329 -0.1091  0.0157  0.3753
11058W        W24472   0.770  10.163   3.992  0.0980 -0.1635 -0.0979
11059W        W24473  12.070   1.995   4.037 -0.3663 -0.0676 -0.1027
11060W        W24474   8.022   2.808  12.455 -0.1030  0.0975  0.0170
11061W        W24475   3.869   7.599   5.923 -0.2494  0.0279  0.1423
11062W        W24476  16.757   7.281   1.675  0.0709  0.3697  0.2790
11063W        W24477  13.593   0.273  15.081  0.0167  0.0301  0.1565
11064W        W24478   5.348   3.455   5.447  0.2074  0.0168  0.1446
11065W        W24479  13.262  16.394  14.890  0.1011  0.1851  0.0666
11066W        W24480   8.438   2.591  15.263 -0.0322  0.1255  0.0173
11067W        W24481   5.869   4.752   2.615 -0.0512  0.0237 -0.4111
11068W        W24482  16.596   7.868   3.245  0.1194  0.1282  0.1227
11069W        W24483   2.083  12.326   0.546  0.0757 -0.0358  0.2839
11070W        W24484   9.376  10.304   3.450  0.3666  0.1844  0.0978
11071W        W24485  16.350  13.868   5.889 -0.1450  0.2481  0.0606
11072W        W24486  11.721  17.577  15.396 -0.1452 -0.3116  0.0878
11073W        W24487   3.826   9.562   3.541  0.1285 -0.1387 -0.0295
11074W        W24488  17.386  15.544  15.303 -0.5505  0.0165 -0.3358
11075W        W24489   7.883   7.290  13.259  0.1488 -0.2033 -0.2360
11076W        W24490   5.425  12.673   5.429 -0.1099  0.1930 -0.0226
11077W        W24491   5.973  16.499  14.056 -0.1063  0.1294  0.0456
11078W        W24492   9.891  10.506   4.198  0.0894  0.0274 -0.2007
11079W        W24493  14.352  10.047  16.242 -0.4204  0.0513  0.3154
11080W        W24494  14.459  13.019  11.891  0.0189 -0.0014 -0.0281
11081W        W24495   0.354  11.686   0.989 -0.2890 -0.0610 -0.1213
11082W        W24496   5.231  15.729   1.997 -0.1119  0.2571 -0.2656
11083W        W24497   2.608  10.216   5.282 -0.1255 -0.0690  0.3021
11084W        W24498  17.098  16.069  13.485 -0.3206 -0.1062  0.1599
11085W        W24499  14.210  17.010   2.630  0.0706 -0.4508 -0.0041
11086W        W24500   4.146   9.248  13.525 -0.0357 -0.4779 -0.3020
11087W        W24501   2.243   1.626  11.899 -0.0400 -0.1814  0.0446
11088W        W24502  17.721  15.988   2.942 -0.2303 -0.0903 -0.1814
11089W        W24503  12.876  17.390  15.870 -0.1003  0.2107  0.2318
11090W        W24504   5.400  11.449   4.617  0.1242  0.1203  0.2174
11091W        W24505  14.237   6.067  10.855 -0.1065  0.2031  0.1095
11092W        W24506  14.538   2.021  14.283 -0.0112  0.1904  0.1406
11093W        W24507   5.746   5.990  15.888 -0.0523 -0.0710 -0.1692
11094W        W24508  17.540  11.744   6.479  0.3325  0.3499 -0.1130
11095W        W24509   4.318  15.395   1.667 -0.1791 -0.1157 -0.1991
11096W        W24510   1.037  11.037  14.212  0.2906  0.2472  0.0344
11097W        W24511  16.040   2.677  10.063 -0.2521  0.2604  0.2643
11098W        W24512  13.700  17.804  14.765 -0.0835  0.0829 -0.0988
11099W        W24513  12.426  10.022  14.168 -0.1171 -0.0937 -0.0085
11100W        W24514  15.169  15.599  16.280  0.0193 -0.1296  0.0131
11101W        W24515   1.360   1.096  15.832  0.0400  0.0555  0.1091
11102W        W24516   1.232   3.148   1.910  0.1394  0.0580  0.1586
11103W        W24517   0.826   0.739   2.788  0.1320  0.0915 -0.2486
11104W        W24518   7.318   9.133  11.569  0.0026 -0.0885  0.2066
11105W        W24519  16.920  11.492   1.110  0.0233  0.2524  0.3567
11106W        W24520   5.269  16.376   0.742 -0.0892 -0.4190 -0.4416
11107W        W24521   1.034   9.113  15.412  0.0435  0.2012  0.1850
11108W        W24522   1.000  16.741   0.889 -0.3248  0.0967 -0.2750
11109W        W24523  17.560   4.782  14.247  0.0899  0.0646  0.0780
11110W        W24524  10.036   7.137   5.790 -0.3243  0.2528  0.1126
11111W        W24525   3.842   9.579  16.417  0.1784 -0.2044  0.0222
11112W        W24526   0.100  17.113   2.092  0.1297 -0.2743 -0.0670
11113W        W24527  14.006   0.901   5.517 -0.0376 -0.0188 -0.3219
11114W        W24528   1.262  14.533  15.380 -0.2276 -0.0806  0.0197
11115W        W24529  16.348  11.661  13.633 -0.0049 -0.0381 -0.0565
11116W        W24530   1.269   3.157  13.983 -0.0083  0.0364 -0.0462
11117W        W24531  17.482   7.033   2.035 -0.3752  0.0342  0.0538
11118W        W24532   8.892   3.684   4.179 -0.0956  0.2899 -0.0487
11119W        W24533   8.929  16.619   3.121 -0.2322 -0.2410 -0.0771
11120W        W24534  11.654  12.360  16.071  0.0036 -0.2849 -0.0457
11121W        W24535   9.974   3.787   5.045  0.1732 -0.2352 -0.0383
11122W        W24536  11.209   0.023   5.386  0.0701  0.2905  0.0364
11123W        W24537   4.464  14.952   3.798  0.2031 -0.1645 -0.0061
11124W        W24538   3.688   7.104  12.497 -0.0337 -0.1056 -0.0752
11125W        W24539  11.525  16.289  15.933  0.1441 -0.1299 -0.1078
11126W        W24540   4.833   2.216   3.604 -0.1583 -0.1041 -0.0080
11127W        W24541  13.267  15.833  14.145  0.0821 -0.1607  0.3493
11128W        W24542   8.670  12.865   3.539  0.1026  0.2293  0.0672
11129W        W24543   4.832   0.533   4.354 -0.2960 -0.0623  0.2585
11130W        W24544  11.367  12.955  14.112  0.2799 -0.1934 -0.2310
11131W        W24545   2.584  10.868   3.403 -0.1738 -0.2511 -0.2969
11132W        W24546   2.837   4.109  14.500  0.0031 -0.2259  0.2143
11133W        W24547   2.100   9.968  15.209  0.1286 -0.0103  0.0817
11134W        W24548  13.156   0.956  13.753  0.3114  0.3125 -0.4068
11135W        W24549  14.073  17.705  12.033  0.0629 -0.0904  0.1125
11136W        W24550  14.187   4.851   5.305 -0.0948 -0.0945  0.0114
11137W        W24551  10.960  16.402   0.760 -0.2908 -0.3118 -0.0406
11138W        W24552  12.501   0.141   0.014 -0.2496  0.0475 -0.0698
11139W        W24553   4.601   0.033  11.228 -0.2639 -0.0314 -0.0122
11140W        W24554  17.070   9.308   0.728  0.1645  0.0119 -0.1310
11141W        W24555  13.409   7.126  15.196  0.0402 -0.2879 -0.0827
11142W        W24556   7.855   9.282   4.534 -0.1648 -0.0494  0.0766
11143W        W24557  15.283  12.315  12.726  0.0776 -0.0610  0.0169
11144W        W24558  13.547   0.999  14.286  0.2417  0.0735 -0.3126
11145W        W24559  17.084   2.996   5.143 -0.1180  0.1563  0.1308
11146W        W24560  11.464   7.780   4.490 -0.1495 -0.0948 -0.1388
11147W        W24561   0.753   9.464  11.625 -0.1873 -0.0179 -0.0814
11148W        W24562   3.301  11.103  13.567  0.0118 -0.0425  0.3359
11149W        W24563   4.168   8.271  13.350 -0.5230  0.3546  0.3166
11150W        W24564   7.073   0.963  11.746 -0.2266  0.0034  0.1451
11151W        W24565   3.924   3.948  15.545  0.1019 -0.0074  0.0627
11152W        W24566   3.050   1.328  13.453 -0.0665  0.0042 -0.2342
11153W        W24567   6.137  16.090   4.129 -0.1549 -0.2797 -0.2450
11154W        W24568  16.411  16.597  10.985 -0.1966  0.1302 -0.0822
11155W        W24569  10.044   0.262   5.575  0.0252  0.0036  0.2502
11156W        W24570   6.848   2.691   5.179 -0.1533  0.0863 -0.2682
11157W        W24571  16.077  17.948  13.916  0.0861  0.2160  0.6582
11158W        W24572   5.005   0.271   5.211 -0.2828 -0.0513 -0.0603
11159W        W24573   2.420   9.300   4.629  0.0800  0.0110 -0.0628
11160W        W24574  14.376  15.126  10.541 -0.1296 -0.0219  0.0380
11161W        W24575   7.546  12.874   0.875 -0.0348 -0.2197  0.1350
11162W        W24576   8.230   3.944  12.800  0.1672 -0.1353  0.2673
11163W        W24577   6.060  15.668  13.271 -0.2016  0.1272 -0.0759
11164W        W24578   5.089  16.080   4.190  0.2911 -0.2314 -0.2638
11165W        W24579  17.724  10.263  10.776 -0.0747  0.2744 -0.1195
11166W        W24580   1.666  15.468   5.396 -0.0066  0.2577 -0.0248
11167W        W24581  12.562  11.895   4.957  0.0097 -0.3868 -0.0070
11168W        W24582   3.873   8.681   2.331  0.1639 -0.1232  0.1324
11169W        W24583   6.087   3.594   3.448  0.1582  0.1685 -0.2317
11170W        W24584   2.988  11.825  12.437  0.0548 -0.0021  0.1930
11171W        W24585   6.185   7.565   2.899  0.2910 -0.1557 -0.2757
11172W        W24586   6.229  14.931   0.018 -0.3641 -0.1027 -0.0341
11173W        W24587   9.360  10.878  14.670  0.0130 -0.1074  0.3864
11174W        W24588  16.487  11.570   6.566  0.0978 -0.0766 -0.0600
11175W        W24589   5.902  17.833   3.648 -0.2052 -0.0338 -0.4454
11176W        W24590  11.648   2.817   0.858 -0.0749  0.0183  0.0037
11177W        W24591  15.110   0.179  11.569 -0.1574  0.0027  0.0944
11178W        W24592   9.574  13.150   5.025  0.1206 -0.1968  0.1551
11179W        W24593  15.273  17.479  10.216  0.2262 -0.0104 -0.0687
11180W        W24594  17.635   4.760   0.514  0.1216  0.1611  0.2427
11181W        W24595   8.447  15.243  12.784 -0.1118  0.0022  0.2879
11182W        W24596   7.469   2.776  16.064 -0.0430  0.0098  0.0962
11183W        W24597  17.067  10.953   3.811  0.1029 -0.2576 -0.0508
11184W        W24598   1.313  16.602   3.740  0.0210  0.0212  0.1380
11185W        W24599   5.304  12.854  11.795 -0.1308 -0.3039  0.1836
11186W        W24600  12.515   9.461   0.582  0.2877  0.0828  0.0282
11187W        W24601   3.730  11.417   3.976 -0.1566  0.0440 -0.1748
11188W        W24602   3.088  14.903  15.942 -0.1572  0.0498  0.0297
11189W        W24603  12.438  14.523   4.998 -0.0417  0.2091 -0.0408
11190W        W24604  13.705  10.817  15.404 -0.0621 -0.2761 -0.1084
11191W        W24605   8.494  12.920   2.206  0.0724  0.0523  0.2583
11192W        W24606   6.738  14.791  16.741 -0.0607 -0.1147 -0.0243
11193W        W24607   9.006   2.045  15.085  0.3824 -0.1589 -0.1558
11194W        W24608  17.212  12.036  11.159 -0.1505 -0.1104 -0.3091
11195W        W24609   8.991  10.043  12.980 -0.1592  0.0268  0.3096
11196W        W24610  10.717   7.132  13.470 -0.1356 -0.1780  0.3706
11197W        W24611   0.884   0.601  14.745  0.0677  0.3960 -0.3374
11198W        W24612  12.757   5.972   4.149 -0.1338 -0.0158 -0.0142
11199W        W24613   6.350  14.916   3.167  0.2127 -0.1902 -0.2300
11200W        W24614   4.003  17.465   0.039 -0.0970 -0.0942  0.0853
11201W        W24615   2.482  15.501  12.291 -0.1515  0.0622 -0.1390
11202W        W24616  16.884  11.034   1.829 -0.3812 -0.1843  0.1538
11203W        W24617   4.064  16.170   5.082 -0.1839 -0.3294  0.1737
11204W        W24618   3.112   3.703  13.483  0.0988  0.3551  0.2785
11205W        W24619  17.207  10.083  14.062 -0.1971 -0.2687 -0.0124
11206W        W24620   5.824   0.160  13.387 -0.1946  0.2867 -0.0042
11207W        W24621   4.557   8.484   5.836  0.0897  0.1065  0.2046
11208W        W24622  15.333   5.653  12.245 -0.1182  0.4260 -0.1391
11209W        W24623  15.882   4.281  15.957 -0.1529 -0.1030  0.2378
11210W        W24624  10.718   5.499   5.399 -0.1461 -0.0271 -0.2780
11211W        W24625   5.763   2.387   0.649 -0.0551  0.1725 -0.2852
11212W        W24626  14.858  15.848  16.009  0.5029  0.3515  0.0887
11213W        W24627  16.317   4.031   1.299  0.2885  0.0981 -0.1561
11214W        W24628  15.640  11.595   6.089  0.0649  0.1862 -0.1030
11215W        W24629   4.671  12.208   3.587 -0.1068  0.2999  0.1814
11216W        W24630   1.615   3.567  10.871  0.0917 -0.2161 -0.1286
11217W        W24631   3.440  17.910  10.750 -0.1631  0.0284  0.0716
11218W        W24632   6.417  15.295  13.721 -0.2425  0.1767  0.0137
11219W        W24633   7.253  13.422   0.083  0.0306 -0.3995 -0.0680
11220W        W24634   7.192   5.060   0.912  0.2209  0.0822  0.2246
11221W        W24635  16.744   2.433   1.000 -0.0230 -0.2187 -0.2021
11222W        W24636  17.003  14.004   2.670 -0.0439  0.1651 -0.1554
11223W        W24637   2.162   7.417  12.474 -0.0877 -0.0694  0.0722
11224W        W24638   4.094  11.089  14.805  0.0655 -0.1444 -0.1839
11225W        W24639   1.606  16.371  16.331  0.1994 -0.1921  0.3192
11226W        W24640   2.824   4.391   4.598  0.2295  0.2811 -0.0121
11227W        W24641  17.367  14.314  14.620 -0.2932  0.0591  0.0195
11228W        W24642  15.964  12.446  15.372 -0.0272 -0.1247 -0.1002
11229W        W24643  13.039  12.320   5.733  0.2333  0.0986 -0.1218
11230W        W24644   3.848  12.739  15.780  0.1056  0.0802 -0.2107
11231W        W24645   1.593   9.783   4.208 -0.1984  0.0730  0.0650
11232W        W24646   8.845   3.969  14.303  0.0083 -0.0626  0.0912
11233W        W24647  10.785   8.438   6.003 -0.1177 -0.1191  0.0292
11234W        W24648   8.368  10.046  11.741 -0.2432 -0.0389 -0.0412
11235W        W24649   5.874   6.673   0.508  0.3389 -0.1364  0.0291
11236W        W24650   4.454  11.455   5.983  0.1794 -0.2821  0.2786
11237W        W24651   6.458   6.316   3.520  0.1065 -0.1113 -0.1750
11238W        W24652   8.516   3.622  11.968  0.0026 -0.0612 -0.2522
11239W        W24653  15.793  16.350  13.078 -0.2210 -0.0432 -0.2567
11240W        W24654  14.559   5.741  10.431  0.1793 -0.0268  0.1396
11241W        W24655  11.989   0.535   3.719 -0.1374  0.1986 -0.2275
11242W        W24656   3.357   3.750   4.179  0.0203 -0.1885  0.0957
11243W        W24657   5.289   3.173   4.455 -0.0523 -0.0936  0.1336
11244W        W24658   1.265   8.741  12.775  0.1504 -0.0496  0.0515
11245W        W24659  15.741  14.002   4.614 -0.0570 -0.0476  0.2029
11246W        W24660   4.738  15.650  15.101  0.1136  0.1127 -0.1233
11247W        W24661   1.443   4.286   2.687  0.3679 -0.1842  0.2260
11248W        W24662  13.699   0.284   4.674  0.0074  0.1890  0.2372
11249W        W24663   5.458   6.145   6.565  0.0075  0.1263 -0.0204
11250W        W24664  17.056   8.156  11.530  0.0487 -0.2496  0.3675
11251W        W24665   8.967   6.473   5.241 -0.0576  0.2320 -0.2823
11252W        W24666   3.829  16.841  11.943  0.2655 -0.1265 -0.0850
11253W        W24667   8.510   1.368  16.031  0.1163  0.0684 -0.0658
11254W        W24668   7.328  14.299  15.721  0.0930  0.2313  0.0125
11255W        W24669  16.865   9.224   4.357  0.0495  0.0083 -0.1399
11256W        W24670   1.224   0.355   4.968 -0.0996  0.1877 -0.4102
11257W        W24671   4.409  16.527   3.832 -0.0200  0.0409 -0.1542
11258W        W24672  17.375   2.582  13.147 -0.2160  0.1899 -0.1754
11259W        W24673   0.211   5.046   6.304  0.0121 -0.3928  0.0289
11260W        W24674  10.456  11.352  15.678  0.4553 -0.3530  0.0581
11261W        W24675   6.998   6.822  15.716 -0.0483 -0.0454 -0.6337
11262W        W24676  10.588  13.910   5.898  0.1146  0.0652 -0.1468
11263W        W24677  12.191  15.104   1.465 -0.0961 -0.0725 -0.1110
11264W        W24678   8.686   0.281   5.533  0.0552  0.0998 -0.0631
11265W        W24679   7.868   4.933   3.632 -0.1971 -0.0382 -0.0765
11266W        W24680   3.273   0.755   0.087  0.1716 -0.0440 -0.1834
11267W        W24681  12.420   2.571  14.708  0.1410  0.1306 -0.0887
11268W        W24682  15.767   2.290  15.854  0.1132 -0.2242  0.1580
11269W        W24683  11.599   8.802  15.687 -0.0510  0.1883  0.0775
11270W        W24684  10.673  11.163   3.933 -0.4032  0.0300  0.2440
11271W        W24685  17.113   6.450   3.794  0.2249 -0.2229  0.1107
11272W        W24686  16.559  12.509   3.795 -0.1239 -0.1001  0.4356
11273W        W24687  13.895  11.315  13.301  0.1253  0.1121 -0.1627
11274W        W24688   8.733  16.168  13.818  0.3356 -0.0348 -0.0965
11275W        W24689  16.506  14.358   0.948  0.1147 -0.2079  0.2487
11276W        W24690  14.159   5.288  15.943 -0.0073 -0.3206  0.0618
11277W        W24691  15.879   0.961  10.962  0.1434  0.0552 -0.1430
11278W        W24692  10.814  14.044  13.180  0.0936  0.0139 -0.0647
11279W        W24693  13.071  13.258  12.849 -0.2082  0.0708  0.1336
11280W        W24694  12.175  12.647   1.883  0.2242  0.2344  0.0477
11281W        W24695   7.231  17.626  12.145 -0.0749 -0.2162  0.2703
11282W        W24696   6.528  13.933  11.801  0.0778 -0.2197 -0.0688
11283W        W24697   5.567   7.080   4.903  0.1629 -0.1988 -0.0728
11284W        W24698   7.449  12.258  15.122  0.1757  0.3521  0.1662
11285W        W24699  12.895   1.875   2.228  0.0175  0.1373  0.1807
11286W        W24700   7.148   2.508   4.109  0.1639 -0.0301 -0.1637
11287W        W24701  17.514   7.202  16.178 -0.1585  0.1857  0.1266
11288W        W24702  11.707  16.833  12.489 -0.2733  0.2460  0.0023
11289W        W24703   8.627   6.187  13.330  0.2194 -0.0529  0.1665
11290W        W24704  11.548   1.838  11.058 -0.1869 -0.0675  0.3372
11291W        W24705  14.302   7.361  15.438  0.1449 -0.0820 -0.1511
11292W        W24706   8.852  17.984   3.621 -0.1908  0.0735  0.1605
11293W        W24707   4.364  14.182  11.314 -0.2989  0.0948  0.1243
11294W        W24708  11.471  13.249  15.492  0.1170 -0.0041 -0.2575
11295W        W24709   0.434   5.061  15.319 -0.1384  0.1745 -0.3393
11296W        W24710   3.395   7.958   3.100  0.0056 -0.0242 -0.1315
11297W        W24711   8.464  13.929  11.687 -0.2444  0.0741 -0.0043
11298W        W24712  15.699   7.209   1.386 -0.1029 -0.0448  0.3655
11299W        W24713  11.787  15.148  16.589  0.1269 -0.0666  0.1874
11300W        W24714   8.937  10.692  13.766  0.1908 -0.1936 -0.0678
11301W        W24715   7.572   6.730   4.531 -0.2142  0.0969  0.1276
11302W        W24716  13.721  12.563  11.863 -0.4115 -0.1471 -0.0115
11303W        W24717  14.556   1.991   5.975  0.0264  0.1120  0.4126
11304W        W24718   0.222  17.069   2.903  0.1988  0.1553 -0.2426
11305W        W24719  14.439   4.149  12.514  0.1269 -0.1842 -0.1180
11306W        W24720   7.164   6.688   4.812  0.0081  0.0652 -0.0337
11307W        W24721  14.873   5.486   4.979  0.0222  0.0931  0.2057
11308W        W24722  17.743  11.387   0.442 -0.1284 -0.1972 -0.1166
11309W        W24723  14.981  13.834  15.118 -0.0390 -0.1067  0.0973
11310W        W24724   9.405  11.989   4.462 -0.1659 -0.2570  0.3059
11311W        W24725  15.462  12.004  12.361 -0.5586  0.1807  0.0919
11312W        W24726  16.907   5.801  11.595  0.3169  0.0814  0.0879
11313W        W24727   3.071  17.082  10.779  0.1199 -0.1986  0.0350
11314W        W24728  14.666  10.689  12.166  0.2880 -0.0736 -0.0833
11315W        W24729  16.858   4.190  12.865  0.1802 -0.3013 -0.1172
11316W        W24730   7.949  15.761   1.834  0.5224 -0.1041  0.0882
11317W        W24731   5.648   5.736   0.804 -0.0223  0.1156  0.2585
11318W        W24732  17.828   2.253  12.297 -0.0426 -0.2497 -0.0879
11319W        W24733   8.898   4.057   4.954  0.2566 -0.0618  0.0106
11320W        W24734   9.228  11.484  16.126 -0.2078  0.0627  0.2844
11321W        W24735   0.223  12.521  14.621 -0.0160  0.0767 -0.1952
11322W        W24736   1.340   5.873   5.361 -0.0502 -0.0787  0.1133
11323W        W24737  11.139  11.455  12.862  0.3980 -0.3812  0.1075
11324W        W24738  11.797   5.595   2.558  0.0183  0.0535 -0.3895
11325W        W24739  12.164   3.229  10.018 -0.0592  0.0725  0.0965
11326W        W24740   9.381   2.779  16.565 -0.1674 -0.1929 -0.1740
11327W        W24741  11.842   2.935   1.444 -0.0468 -0.1626  0.2655
11328W        W24742  12.602   3.622  14.690  0.1343 -0.3175 -0.0054
11329W        W24743  13.144  13.600   2.021 -0.0754  0.1373  0.1426
11330W        W24744   8.156   2.152  16.043 -0.0471 -0.2815  0.2607
11331W        W24745  11.836  11.228  12.078  0.0613  0.1553  0.2416
11332W        W24746   7.716   8.642  11.731  0.1533  0.0426  0.0910
11333W        W24747   6.959   1.913  11.966  0.1832 -0.1368  0.2018
11334W        W24748   8.944   1.023   0.671 -0.1204 -0.2145  0.2132
11335W        W24749  14.682   1.996   0.667  0.1935  0.2553 -0.2047
11336W        W24750  15.035  11.598  15.022  0.0798 -0.0334 -0.3042
11337W        W24751  14.627  14.445   5.698 -0.5372  0.1751 -0.1219
11338W        W24752   3.722   2.579  16.662  0.2369  0.0316  0.2329
11339W        W24753   3.983  18.012  11.924 -0.0735  0.0183  0.0472
11340W        W24754   4.687   7.131  10.773  0.3587  0.0659  0.1390
11341W        W24755  13.576  12.829  14.596 -0.0026 -0.1282  0.0178
11342W        W24756  12.460  13.555  13.537 -0.1843  0.0411 -0.0825
11343W        W24757   2.685  15.980   1.057  0.1528  0.0916  0.2326
11344W        W24758   8.082  14.647  13.271 -0.0660  0.0181  0.0345
11345W        W24759   3.996  12.586   0.087 -0.4426 -0.0619  0.1013
11346W        W24760  13.363   1.513  12.207 -0.3731  0.1087  0.1281
11347W        W24761  15.743  12.827   6.746  0.1901 -0.3145  0.1405
11348W        W24762   6.663  12.829   1.257 -0.2054 -0.4627  0.4603
11349W        W24763  11.036   8.180  15.682 -0.0044  0.0477  0.2263
11350W        W24764  14.249  10.425   4.768  0.0015  0.0518  0.0764
11351W        W24765   8.892  17.207  14.747  0.0635 -0.0279 -0.1654
11352W        W24766   6.124   4.547  15.833  0.0504  0.1448  0.0749
11353W        W24767  16.574   4.906   1.397 -0.1534 -0.0622 -0.2195
11354W        W24768  12.520   2.603   4.621 -0.2695 -0.1326 -0.3458
11355W        W24769  11.076   4.021  14.159  0.0907 -0.0804  0.2568
11356W        W24770   3.987   2.463  14.068 -0.1042  0.1544  0.1239
11357W        W24771   8.115   8.685   0.141  0.2563  0.1035 -0.0663
11358W        W24772   5.256  10.022  12.588 -0.0621 -0.5488  0.1230
11359W        W24773  14.039   8.639  12.589  0.2744 -0.1173  0.1392
11360W        W24774  14.832   4.874  16.235 -0.1773 -0.1291 -0.1122
11361W        W24775   8.701   3.606   2.779 -0.2259 -0.0252 -0.1087
11362W        W24776  16.402   4.414   0.543  0.1620 -0.0264 -0.0145
11363W        W24777   0.961   6.254  16.576 -0.0373 -0.0592  0.1688
11364W        W24778  12.763   4.887  13.410 -0.0498 -0.0137  0.0576
11365W        W24779   9.128   3.142  11.210 -0.1345  0.1329 -0.1319
11366W        W24780   2.501   7.779  16.702 -0.0291  0.3146 -0.0101
11367W        W24781  13.259  13.252   0.073  0.0263  0.0846 -0.1469
11368W        W24782   7.744  12.673   0.282 -0.1986 -0.2481 -0.0107
11369W        W24783   0.129   1.198  14.735 -0.1059 -0.0411  0.0762
11370W        W24784   7.522  13.037  10.996  0.2184 -0.1697 -0.0728
11371W        W24785  12.614   8.056  14.212 -0.0807 -0.2487  0.1302
11372W        W24786   4.266  10.575   5.419 -0.0097 -0.0141  0.0250
11373W        W24787   9.929   6.873  13.854  0.1426  0.1787  0.0572
11374W        W24788   6.857   2.009   6.082 -0.0178 -0.1252  0.0547
11375W        W24789   8.002  10.137  14.623  0.1755  0.3001 -0.3154
11376W        W24790  10.993  17.934  13.143 -0.2986 -0.0906 -0.0628
11377W        W24791  17.329   3.025   3.780 -0.3448  0.0272  0.0907
11378W        W24792   7.413   0.202  16.364 -0.3101  0.1902 -0.2225
11379W        W24793  13.946  10.633   6.130 -0.0939  0.2259  0.2166
11380W        W24794   0.714   7.015  12.221 -0.0643 -0.0740 -0.0604
11381W        W24795   2.744   5.824  12.070  0.0356 -0.0664  0.0254
11382W        W24796   0.474  11.782   4.106 -0.0016 -0.0062 -0.0894
11383W        W24797   6.395   1.813  15.566  0.0846 -0.2594  0.2373
11384W        W24798   2.197  17.939  12.496 -0.0808  0.0534 -0.1139
11385W        W24799   4.501   4.356  14.714 -0.1245 -0.1239  0.1184
11386W        W24800  13.953  17.288   5.259  0.3113 -0.0741  0.1051
11387W        W24801   1.788   6.863   2.616  0.0879  0.2744  0.0905
11388W        W24802  14.769  14.334  11.746 -0.1640  0.1563  0.1337
11389W        W24803  10.704  12.282  13.655 -0.0726 -0.0239 -0.0685
11390W        W24804  17.518   8.605   6.384  0.0080 -0.0618  0.1464
11391W        W24805  12.332   2.191  14.319  0.3248 -0.0490  0.1645
11392W        W24806   3.462   6.459  13.130 -0.2338 -0.2219 -0.0575
11393W        W24807  16.593  11.990  11.488  0.3311 -0.1867  0.2916
11394W        W24808  15.272  17.134  15.599  0.1024  0.1708  0.0360
11395W        W24809  14.384  12.394  14.163 -0.0172  0.2604 -0.0965
11396W        W24810   1.286   1.637  14.496  0.0304  0.3009  0.0744
11397W        W24811  16.545  14.181  16.634  0.0328  0.0222  0.1146
11398W        W24812   3.547   6.292  11.382 -0.1432 -0.1284  0.2862
11399W        W24813   0.001  17.777   4.391 -0.1137  0.0268 -0.0022
11400W        W24814   1.848  17.767  11.966  0.0611 -0.1568 -0.0350
11401W        W24815   7.973  11.214   1.823  0.0985  0.2289 -0.0396
11402W        W24816   4.152  15.730   0.108  0.2035 -0.0034 -0.0703
11403W        W24817  12.981  16.297   6.076 -0.1715  0.1410 -0.0675
11404W        W24818  12.549   2.817  16.269  0.2941  0.1904 -0.0420
11405W        W24819   9.192   5.770  10.989 -0.0183  0.1475 -0.2481
11406W        W24820  13.076  17.038   4.981 -0.0725 -0.1638 -0.0460
11407W        W24821  17.454  10.457  13.178  0.2001  0.2503  0.2934
11408W        W24822   5.890  13.801   3.734 -0.1751 -0.1449  0.1856
11409W        W24823   3.950  10.655  16.570  0.1203 -0.1320  0.0778
11410W        W24824  13.260   3.660  12.205  0.1465 -0.2219  0.0585
11411W        W24825  12.333   5.888   3.768 -0.1593 -0.0354  0.0410
11412W        W24826  10.068  10.172  13.501  0.3302 -0.0381 -0.0288
11413W        W24827  13.018   5.263   4.559  0.1554 -0.5334  0.2451
11414W        W24828   3.920   5.979  16.347 -0.0285 -0.1729 -0.0034
11415W        W24829  10.799   4.752  14.546 -0.1544  0.1582  0.1023
11416W        W24830  13.306  13.286   4.500  0.0036  0.3765 -0.1510
11417W        W24831  17.671   7.065   5.067  0.2883  0.0014  0.0020
11418W        W24832  10.894  17.543   2.947  0.1258  0.0617  0.1295
11419W        W24833   0.418   1.529  14.978  0.0173 -0.1660 -0.0407
11420W        W24834  13.477   7.958   2.409  0.0630 -0.0608  0.0662
11421W        W24835   3.277  12.845  15.088  0.1982  0.1021 -0.0304
11422W        W24836  17.711  11.658   3.489  0.2410  0.2671  0.3620
11423W        W24837   2.927   9.543   2.609  0.1476 -0.0665 -0.0449
11424W        W24838   7.918  13.720  13.377  0.1251 -0.2042 -0.0736
11425W        W24839  13.193  14.335  12.622 -0.4386 -0.0020  0.0656
11426W        W24840  13.460   3.259   5.368 -0.0186  0.3475 -0.0501
11427W        W24841   2.454   6.913   0.904  0.0391 -0.1739 -0.2142
11428W        W24842   9.062  17.953   5.501  0.1454  0.1883 -0.3412
11429W        W24843   2.268   9.436   3.264 -0.0125 -0.1120  0.0960
11430W        W24844   9.634   0.970  14.312  0.0455 -0.1154  0.0525
11431W        W24845  12.128   6.453   3.835 -0.2156  0.1751 -0.1282
11432W        W24846  14.614  14.760   2.322 -0.0105 -0.0174  0.3177
11433W        W24847  12.404   4.241  13.744  0.3762  0.0370 -0.0921
11434W        W24848   7.156  11.999   1.010 -0.0128  0.0293 -0.2893
11435W        W24849  12.705   8.559   2.230 -0.0272  0.0829  0.1143
11436W        W24850   2.693   4.241  12.830  0.0166 -0.0053  0.1639
11437W        W24851  15.893   8.340  14.923  0.0730  0.0623  0.1022
11438W        W24852  10.126  11.548   0.362  0.0327 -0.1825  0.2711
11439W        W24853   6.286  10.473   2.799 -0.0547  0.0400 -0.0666
11440W        W24854   3.900  16.578  16.748  0.0330 -0.0515  0.2003
11441W        W24855   6.067  10.427  15.902  0.1567  0.0098 -0.0423
11442W        W24856   5.555   4.255  14.136  0.1839 -0.1611  0.3993
11443W        W24857   5.908   9.977   6.344  0.0380 -0.1418 -0.2095
11444W        W24858  16.207   9.956   2.522  0.1063  0.0529 -0.1251
11445W        W24859  15.358  10.383   4.400  0.1925 -0.1068 -0.1210
11446W        W24860  12.349  13.886   1.639 -0.2770  0.0281 -0.1440
11447W        W24861   4.240   0.277   0.984 -0.2504 -0.0695  0.0551
11448W        W24862  16.861   7.872  14.533 -0.0161  0.2484 -0.2014
11449W        W24863   8.867   3.087   4.638  0.0286  0.0607  0.4344
11450W        W24864   0.142   8.687  16.285  0.1164  0.2116  0.1222
11451W        W24865  15.136  11.587   1.179  0.0752 -0.1360 -0.5477
11452W        W24866   3.216   6.431   4.842  0.0772 -0.1605  0.3204
11453W        W24867  13.774   2.919   0.937  0.0911  0.2791  0.1124
11454W        W24868  10.998   8.018  12.433  0.0536 -0.0246 -0.0668
11455W        W24869  17.309   4.910   4.863 -0.0704 -0.1165 -0.1001
11456W        W24870  10.413   6.077  15.041 -0.0204  0.1183 -0.2706
11457W        W24871   5.846  17.133  14.949  0.0292 -0.0193 -0.1068
11458W        W24872  13.339   6.264   1.010  0.0020  0.2182  0.0285
11459W        W24873  10.528  17.038  15.720 -0.2762 -0.3968  0.0338
11460W        W24874   8.874   7.617  13.406  0.1095  0.1159 -0.1426
11461W        W24875  13.361  13.836  11.626 -0.0098  0.1050  0.0591
11462W        W24876   1.493   9.131  14.349  0.1265 -0.3832  0.2088
11463W        W24877   7.470  13.726   2.067 -0.2112  0.1458 -0.4210
11464W        W24878   8.415  17.754  15.456  0.1176  0.0607 -0.1743
11465W        W24879   6.527   0.838   5.309 -0.0129  0.0780  0.1352
11466W        W24880  15.338  16.825   5.290  0.1066 -0.4365  0.0361
11467W        W24881  16.226   5.447  15.024  0.0384  0.0569  0.0871
11468W        W24882   6.814   4.565  14.541 -0.0060  0.1442  0.1780
11469W        W24883   9.925  10.332   6.154 -0.0884  0.2086 -0.0611
11470W        W24884   7.192   6.443   4.372  0.2003 -0.0402  0.0959
11471W        W24885   0.753   8.544  12.814  0.0625  0.1909  0.1467
11472W        W24886   8.328  13.900   0.214 -0.1212 -0.2280  0.1537
11473W        W24887   4.245  11.488   5.341  0.1235  0.3316 -0.2137
11474W        W24888  12.135   2.127   0.512 -0.0950  0.1645  0.0138
11475W        W24889   2.850  16.811   2.738  0.2888 -0.1221 -0.0080
11476W        W24890   9.842  14.900   5.018  0.0888 -0.0293  0.1733
11477W        W24891   0.589  16.770  11.538 -0.0796 -0.1740 -0.0280
11478W        W24892   6.863   2.102   3.114 -0.0274  0.1376 -0.1455
11479W        W24893  12.163   5.042   0.254 -0.0805  0.1843  0.0627
11480W        W24894  13.602  13.993   1.183 -0.2973  0.0113 -0.1199
11481W        W24895  13.499   0.107   0.227 -0.1315  0.1387 -0.0828
11482W        W24896   4.691   8.421  11.139 -0.3535 -0.0898  0.1117
11483W        W24897   7.367   4.532  11.045 -0.2890  0.1128  0.3866
11484W        W24898   2.527  14.165   5.868  0.5575 -0.1095  0.2406
11485W        W24899   1.449   4.869  15.714  0.0429 -0.1038  0.1415
11486W        W24900   2.583   1.499  12.399  0.0585 -0.1567 -0.0049
11487W        W24901   5.790  12.575  16.677 -0.0943 -0.0649  0.0984
11488W        W24902   6.637  17.306   5.237 -0.3143  0.1588  0.1157
11489W        W24903   8.782   0.180   4.596  0.2102  0.1026  0.0311
11490W        W24904  12.177  14.708  14.263  0.0052  0.1794 -0.3539
11491W        W24905  11.023   7.390   1.448 -0.1433 -0.0473 -0.0755
11492W        W24906   9.056  16.923   5.086  0.4447 -0.0293 -0.2744
11493W        W24907   0.736   9.589  15.436 -0.0316  0.0656 -0.5026
11494W        W24908   2.509   1.002  15.764  0.0453  0.0537  0.0248
11495W        W24909  14.454  14.247  11.331  0.0534  0.1813  0.0936
11496W        W24910  12.209  10.088  13.212 -0.1049  0.0102 -0.0704
11497W        W24911  12.596   2.981  12.264 -0.1361 -0.2699  0.1899
11498W        W24912  10.535  13.925   3.705  0.1128  0.1398 -0.1867
11499W        W24913   2.212   9.761   0.221 -0.1960  0.1401  0.0867
11500W        W24914  15.716  16.661  12.583  0.0428  0.0298 -0.2770
11501W        W24915   1.045  16.430  11.321  0.0800 -0.4301  0.1204
11502W        W24916   6.685   0.578   4.784 -0.0645  0.0352 -0.2690
11503W        W24917   1.413   1.465  10.589  0.0466 -0.0097 -0.2617
11504W        W24918  14.644  13.240   1.996  0.0027  0.0483  0.5154
11505W        W24919   3.858  13.606  11.115 -0.0977  0.1447  0.0240
11506W        W24920  17.305   1.396   3.184 -0.2823 -0.0086 -0.0000
11507W        W24921   1.692  12.542  12.279 -0.1208 -0.0533 -0.0334
11508W        W24922  16.218  16.352  13.705 -0.3104 -0.0238  0.1797
11509W        W24923   1.285   3.361   5.111  0.1948  0.1553 -0.1729
11510W        W24924  10.493   4.178  16.274 -0.1804  0.2787  0.2567
11511W        W24925   7.978   8.200   5.986  0.1220 -0.1197  0.0580
11512W        W24926  14.886  13.548   2.376 -0.1191 -0.0808 -0.0383
11513W        W24927  17.847   1.217  11.794  0.0452  0.0995 -0.0228
11514W        W24928   5.984  11.917  16.055 -0.0444  0.1923  0.0099
11515W        W24929   9.717   2.994  14.918  0.2995  0.0639 -0.0604
11516W        W24930  11.915   9.997   6.723  0.1840 -0.0031  0.0566
11517W        W24931   8.106   6.315  13.069 -0.0577 -0.0576  0.0662
11518W        W24932   9.838   3.179   5.862  0.0102  0.0777  0.1565
11519W        W24933   2.977   7.173  11.601  0.0080  0.0973  0.0959
11520W        W24934   5.044  15.480  14.227 -0.0621 -0.5844 -0.0302
11521W        W24935   4.441   7.897   1.592  0.0183  0.1684 -0.0898
11522W        W24936   2.226  13.560  11.147  0.0631 -0.5478  0.0697
11523W        W24937   9.752   7.040  14.387  0.1714 -0.0205 -0.0066
11524W        W24938  13.781   3.538  15.479 -0.0764  0.1087  0.1360
11525W        W24939  12.550  14.778   1.426  0.1770 -0.1755  0.1082
11526W        W24940  13.529   2.216   4.041  0.2385  0.2143  0.1468
11527W        W24941  11.236  16.752  15.989  0.0229  0.0142  0.1045
11528W        W24942   0.858   1.481  13.591  0.0577 -0.1682  0.0393
11529W        W24943  11.924  15.139  13.252  0.0262 -0.4261 -0.0781
11530W        W24944   0.620   3.998  13.204  0.0777 -0.0113 -0.0201
11531W        W24945  14.753  13.855  11.996  0.0679 -0.2306  0.2243
11532W        W24946   0.053  12.630   1.627 -0.2320 -0.1915  0.1556
11533W        W24947  14.864  14.432   3.296 -0.0676 -0.0864 -0.1874
11534W        W24948  13.889   5.442   2.693  0.0109 -0.0559 -0.1558
11535W        W24949   3.365   3.710   4.740 -0.0481  0.1311 -0.2461
11536W        W24950   8.910   8.408   0.310  0.0586 -0.0608  0.1251
11537W        W24951  10.846   9.783  12.757  0.2822 -0.1387 -0.2811
11538W        W24952   7.261  13.067  12.664  0.0467  0.1427  0.0437
11539W        W24953   9.950  17.583  14.036  0.1707 -0.0383 -0.2248
11540W        W24954  12.214  16.786  15.816 -0.3310  0.1537 -0.4548
11541W        W24955  16.489   6.491   2.965 -0.1034  0.1889  0.2504
11542W        W24956   2.729   3.334   3.610  0.0308 -0.0932 -0.1722
11543W        W24957  12.745   7.305  13.737  0.0599  0.0655  0.0410
11544W        W24958   9.758   5.386  13.383 -0.1722 -0.0729  0.0978
11545W        W24959   9.514  12.880   3.757  0.1345  0.0621  0.2248
11546W        W24960  17.149   8.538  11.814 -0.0849  0.0006 -0.1089
11547W        W24961  14.883   0.353   1.882 -0.0372  0.1557  0.2669
11548W        W24962   9.119   9.126  12.225 -0.2260 -0.0054 -0.1902
11549W        W24963  13.261   1.219   4.658 -0.2508 -0.1014  0.1406
11550W        W24964  15.374   2.181   0.505 -0.2242 -0.2328 -0.3326
11551W        W24965  15.456   5.380   5.517  0.1280  0.2526 -0.1257
11552W        W24966   1.991  10.298  12.598 -0.0832 -0.0867  0.0120
11553W        W24967  14.313   1.861  13.496 -0.1755 -0.0498  0.3187
11554W        W24968   9.991  16.551  11.738 -0.1321 -0.1447 -0.1168
11555W        W24969  17.101   7.241   4.984 -0.1190 -0.0531 -0.2707
11556W        W24970   4.103   2.830  14.556  0.3822  0.1199 -0.1906
11557W        W24971   9.136   6.083  13.184  0.0566 -0.0183 -0.0504
11558W        W24972  15.274  17.599  13.638 -0.0267 -0.0665  0.1733
11559W        W24973  12.678  10.116  12.543  0.0735 -0.1450  0.0906
11560W        W24974   0.048   5.930  16.167  0.1274  0.1528 -0.2464
11561W        W24975  12.011   0.685  11.913  0.3355  0.2300 -0.2379
11562W        W24976  10.804  11.782   6.180  0.0376  0.1849  0.0153
11563W        W24977  14.855  11.120   6.069 -0.1471 -0.1390 -0.1639
11564W        W24978   8.303   0.022   1.865 -0.0350  0.0261 -0.2118
11565W        W24979   5.580   8.444   4.585  0.2824 -0.1767 -0.2825
11566W        W24980   4.697   8.902  11.334  0.0726  0.4684  0.1390
11567W        W24981   3.790   6.258   1.282 -0.2558 -0.2289  0.0273
11568W        W24982   0.644   2.410  12.737  0.2322  0.1222 -0.1137
11569W        W24983   0.072   5.531  13.889 -0.3004  0.1890  0.2277
11570W        W24984  15.990   9.107   3.708  0.1695  0.1501  0.0264
11571W        W24985   1.607   8.505   1.972 -0.1215 -0.3421  0.3786
11572W        W24986   8.577   3.508  15.622  0.0579 -0.1254  0.2240
11573W        W24987   5.554   0.472   0.522  0.0592  0.0238 -0.0428
11574W        W24988  16.440   2.936   0.224 -0.0214  0.3434  0.0174
11575W        W24989   6.673   9.187   3.048  0.2231  0.2189  0.0977
11576W        W24990   1.653   0.564   2.028  0.1367 -0.1808 -0.0402
11577W        W24991   3.169   2.291  13.896  0.3646  0.0156 -0.1370
11578W        W24992   8.918  13.981  14.106  0.1008 -0.1104 -0.1327
11579W        W24993  10.120   5.349  15.112  0.2751 -0.0121  0.2200
11580W        W24994   9.976  14.017   5.993  0.2785  0.2144 -0.2685
11581W        W24995  11.676   5.214  11.755 -0.0017 -0.0432  0.0665
11582W        W24996  14.065   8.562   1.277  0.2192  0.3351  0.3590
11583W        W24997   9.169   1.055   4.384 -0.0931  0.0977 -0.0681
11584W        W24998  12.168   4.598   5.135  0.1459  0.0830 -0.1459
11585W        W24999   7.667   1.264   3.914 -0.1656  0.1355 -0.1863
11586W        W25000   1.686   6.556   2.080 -0.2442  0.0024  0.1858
11587W        W25001   6.523   1.556  14.903  0.1740 -0.0058  0.1807
11588W        W25002  16.243   3.721  14.217 -0.1725 -0.1937  0.1208
11589W        W25003   4.689  15.401   0.966  0.3709  0.4396 -0.0245
11590W        W25004   9.366  15.752  14.193 -0.0257  0.0127 -0.0676
11591W        W25005   9.149  12.750   5.220  0.3219 -0.1570  0.0484
11592W        W25006   9.093   6.115   2.728 -0.0392  0.5549 -0.1541
11593W        W25007   6.360   0.637   3.928  0.0741  0.5046  0.1117
11594W        W25008  12.190   7.735  16.107 -0.1065  0.1703  0.1596
11595W        W25009  11.756   6.874   0.884  0.1214 -0.1473  0.1387
11596W        W25010   3.387  17.740   5.765 -0.0892  0.1267  0.1183
11597W        W25011   8.586   9.510   3.569  0.0670  0.1884 -0.1623
11598W        W25012   9.542   7.437  13.021 -0.0252  0.2505 -0.0722
11599W        W25013   7.116   6.389   2.647 -0.2208 -0.0159  0.1376
11600W        W25014   9.793   1.595  12.899 -0.0939 -0.1415  0.2972
11601W        W25015   1.122  17.164  14.346 -0.1075  0.0898 -0.0958
11602W        W25016  11.864  15.148  13.739 -0.1089 -0.1959 -0.1922
11603W        W25017  14.089  17.485  14.705  0.0071  0.3017 -0.3971
11604W        W25018   4.001   3.712   5.664 -0.0599  0.2153 -0.0151
11605W        W25019   1.062  13.314   3.148 -0.1118  0.0718  0.0698
11606W        W25020   6.002   2.270  15.576  0.2574  0.0062 -0.2452
11607W        W25021  11.228  17.671  15.972 -0.1493 -0.2969  0.2053
11608W        W25022  11.358   6.947  11.471 -0.1987 -0.1445 -0.0250
11609W        W25023   5.642   4.631  16.022  0.0141  0.1152  0.2164
11610W        W25024   8.572  12.860  15.074 -0.1401 -0.0460  0.0137
11611W        W25025   0.072   9.557   4.311  0.0758  0.1346 -0.1239
11612W        W25026   7.919   5.223  12.149 -0.0739  0.0483  0.4393
11613W        W25027   5.221  11.464   5.679 -0.1603  0.0837  0.1843
11614W        W25028   5.779   3.367  13.011  0.0876  0.1301 -0.2632
11615W        W25029   2.340   9.926   3.452  0.0102 -0.2322  0.2498
11616W        W25030   2.115   9.861  11.689 -0.0912  0.0589  0.0712
11617W        W25031  14.752  10.142   3.734 -0.2060  0.1683 -0.2893
11618W        W25032  11.405  14.957   6.187 -0.2591 -0.0437  0.1065
11619W        W25033   8.392   3.492  12.701 -0.1030  0.0921  0.1171
11620W        W25034   7.595  11.515  15.213 -0.0730 -0.2668 -0.2807
11621W        W25035   7.559   1.864  12.064  0.3501 -0.2894 -0.2353
11622W        W25036  14.498   2.860   5.530  0.1167  0.0629  0.3043
11623W        W25037  16.170  15.256   1.280  0.1478 -0.0261 -0.0333
11624W        W25038  14.725   5.654  14.440 -0.1326 -0.3259  0.1175
11625W        W25039   1.242   2.777   2.262 -0.2749 -0.1163  0.0197
11626W        W25040   8.134  10.787  15.513 -0.0830  0.0322  0.1263
11627W        W25041   9.037  10.887   4.574  0.0713 -0.1584  0.1505
11628W        W25042   7.318  16.983   0.575 -0.2659  0.1325 -0.0871
11629W        W25043   5.028   8.670  16.032  0.0766  0.1126  0.1848
11630W        W25044  10.786   7.972  16.081  0.2297 -0.1114  0.0068
11631W        W25045   5.840  14.381  12.427  0.1221  0.2857 -0.2727
11632W        W25046   2.445  12.111   4.028 -0.1601 -0.2524  0.0992
11633W        W25047  15.814  11.224  12.384 -0.1959  0.2076 -0.0473
11634W        W25048   3.034   1.655  16.504  0.0190 -0.0920  0.3968
11635W        W25049  17.319  13.176   0.589 -0.2983 -0.1549  0.2763
11636W        W25050  14.657  17.691   3.709 -0.0781 -0.0317 -0.0042
11637W        W25051  11.269   5.635   4.608  0.1205 -0.2204  0.0402
11638W        W25052   6.920   6.495   1.248 -0.1465 -0.1661 -0.0095
11639W        W25053   2.378   8.399   2.341 -0.4732  0.0592  0.3084
11640W        W25054  12.562  12.853   6.394  0.0501  0.0108 -0.1568
11641W        W25055  13.640   6.192  15.246  0.0075  0.0925 -0.3120
11642W        W25056  12.432  13.105   4.912 -0.1782 -0.0507 -0.1095
11643W        W25057  16.547   8.001   5.302 -0.0710  0.1329 -0.1197
11644W        W25058   5.965   4.885   1.778  0.3774  0.1796  0.2378
11645W        W25059  15.328   4.812   2.914  0.3161  0.1358 -0.2369
11646W        W25060   2.260  10.246  14.812 -0.2014  0.1339 -0.1359
11647W        W25061   0.265  14.591  16.627  0.3721 -0.1167 -0.1650
11648W        W25062   5.745  17.201  14.464  0.0067  0.1771 -0.1816
11649W        W25063   7.945   2.880   4.150 -0.2869  0.0976 -0.0318
11650W        W25064  10.421  17.012   1.469  0.1288  0.0253  0.1942
11651W        W25065   5.475  17.745  13.695 -0.0708  0.1597 -0.0602
11652W        W25066   8.684  15.328  16.224 -0.1313 -0.1714 -0.5490
11653W        W25067   2.169  13.066  16.088 -0.0346  0.2223 -0.0112
11654W        W25068   5.034   8.549  16.517  0.1518 -0.1128  0.0815
11655W        W25069   3.036  14.302  14.390 -0.0013  0.0996 -0.2053
11656W        W25070  10.128   1.525  11.474 -0.1882  0.1952 -0.0865
11657W        W25071   9.875   6.314  15.113  0.2453 -0.0332  0.1843
11658W        W25072   4.023  17.014  15.832  0.2495 -0.0812 -0.4270
11659W        W25073   5.511  13.090   4.649 -0.0305 -0.3640 -0.0105
11660W        W25074   4.262   6.205  14.611 -0.1782  0.1624 -0.0391
11661W        W25075  16.273   2.033  12.762 -0.0190 -0.3144 -0.1322
11662W        W25076  15.292  12.563  13.269  0.0088  0.1658 -0.0689
11663W        W25077   2.503   3.961  10.700  0.1502 -0.1098 -0.0545
11664W        W25078  15.325  13.833   4.055 -0.1381 -0.1795 -0.2159
11665W        W25079  10.457  10.956  12.386  0.0769  0.0647 -0.2822
11666W        W25080   3.231   8.805   3.776 -0.0571 -0.0946  0.0947
11667W        W25081   5.014  13.934  15.399 -0.2043  0.0269  0.1530
11668W        W25082  12.838   4.964   4.105  0.1381  0.0630 -0.2600
11669W        W25083   8.479   2.971  16.331  0.0526 -0.1063  0.0912
11670W        W25084  16.745  15.865  14.502 -0.0919 -0.1945 -0.3253
11671W        W25085   7.034   7.077  12.231  0.2489 -0.0377  0.0795
11672W        W25086  11.025  10.848   3.212 -0.1279  0.1610  0.3231
11673W        W25087  17.259   2.887  16.148 -0.0935  0.1716  0.2008
11674W        W25088   0.805   1.514  14.611  0.0750 -0.2682 -0.0471
11675W        W25089  13.144   4.765   5.258  0.2220  0.2143 -0.2338
11676W        W25090  11.393   9.954   7.003  0.0201  0.0724 -0.0131
11677W        W25091  10.973   0.386  13.598  0.0558  0.0503 -0.1037
11678W        W25092  14.392   9.590   4.370  0.1324 -0.2666 -0.0639
11679W        W25093   4.646   1.684  15.634  0.1430 -0.0481 -0.1125
11680W        W25094  15.965   9.656   3.993  0.0853  0.2404 -0.2835
11681W        W25095   5.866   9.952   0.510 -0.4324  0.0354  0.2326
11682W        W25096   6.179  12.219   5.503 -0.0993  0.0388  0.0858
11683W        W25097   6.866  12.378   3.625 -0.0190  0.1718 -0.0214
11684W        W25098   4.216  14.244  12.905  0.0801  0.2803  0.1484
11685W        W25099   1.603  11.188  14.166 -0.0887  0.1929  0.1014
11686W        W25100   0.286  14.639  12.336  0.1823  0.1836 -0.2331
11687W        W25101  11.887  15.447  15.696 -0.0930  0.0077  0.2152
11688W        W25102   9.222  17.468  14.472 -0.1183 -0.3340 -0.0872
11689W        W25103   1.803   0.708   1.493  0.0311 -0.0937 -0.2739
11690W        W25104   6.567   2.996  13.814  0.1056 -0.0858  0.0165
11691W        W25105  13.866   3.870  15.064 -0.2160 -0.0877  0.2064
11692W        W25106   8.735   0.761  10.224  0.0850  0.1052  0.0635
11693W        W25107   5.327   1.932   3.682  0.1798 -0.2661 -0.1168
11694W        W25108   7.911   8.334   4.734 -0.3288 -0.1231  0.1457
11695W        W25109   5.259  10.331   5.409 -0.1636  0.3251  0.0920
11696W        W25110  10.521  12.754   2.113 -0.1621 -0.2532  0.3235
11697W        W25111  15.959   4.622   0.798  0.2066 -0.3708  0.2647
11698W        W25112   8.337  12.593  14.356 -0.3731 -0.0822  0.0769
11699W        W25113  15.445  10.998   4.765 -0.2915 -0.1586  0.0676
11700W        W25114   0.937   3.589   5.498  0.1448 -0.0930  0.0184
11701W        W25115   9.587   6.774  16.436 -0.1476 -0.0569 -0.1551
11702W        W25116  10.445   6.686  12.036 -0.2432  0.2143  0.2176
11703W        W25117  12.071   4.982   0.813 -0.3956  0.0433  0.1186
11704W        W25118   2.330  17.764   3.336  0.0892  0.0302  0.3117
11705W        W25119  16.012   8.914  16.167 -0.0816  0.3562 -0.3426
11706W        W25120   8.788  16.579   7.084 -0.1368 -0.0704  0.1020
11707W        W25121  17.992   8.443   3.813 -0.1599 -0.1038 -0.0355
11708W        W25122   2.978   7.866   0.197  0.1310  0.0154  0.1667
11709W        W25123  16.615   4.319  12.207  0.0073  0.0612 -0.1575
11710W        W25124  15.220   0.068   1.498  0.2327  0.1023  0.1096
11711W        W25125   8.595   7.205   1.230  0.0873 -0.1125 -0.0451
11712W        W25126   1.397   1.044   4.324  0.2016 -0.0202 -0.1909
11713W        W25127  16.642  10.351   5.750 -0.0978  0.0264 -0.1186
11714W        W25128   7.658   6.798   0.033  0.2014 -0.0042  0.0125
11715W        W25129  14.454  12.779   2.106 -0.1466  0.1860 -0.1388
11716W        W25130  15.126   2.624  11.863 -0.1765  0.0327  0.3363
11717W        W25131  14.871  12.017  14.812 -0.1546 -0.0224  0.1423
11718W        W25132   2.815   0.804  11.508 -0.0562  0.0179 -0.3903
11719W        W25133  11.958  11.493   0.521  0.0492 -0.0001  0.0347
11720W        W25134  11.458   6.510   3.907  0.3796 -0.0305  0.0797
11721W        W25135  12.106   9.575  14.049  0.0078  0.0996  0.0013
11722W        W25136   2.874   7.965  13.840 -0.2384 -0.1091 -0.1403
11723W        W25137   0.798   6.569  16.199  0.0368  0.1252 -0.2654
11724W        W25138   8.339  16.352   4.924 -0.1818 -0.1239  0.2242
11725W        W25139   9.500   3.939  11.271 -0.4030 -0.1519 -0.1550
11726W        W25140   5.305   8.917   3.269  0.1303  0.1383 -0.4050
11727W        W25141  15.809   8.741  11.199 -0.1380 -0.0562 -0.0112
11728W        W25142   2.359  10.743   0.514  0.1777 -0.0390  0.0827
11729W        W25143  11.156  10.519   4.117  0.0228  0.0099  0.0760
11730W        W25144   4.939  10.723  13.155  0.3290 -0.0411  0.1440
11731W        W25145   3.071  15.683  15.631 -0.0684 -0.0426 -0.0466
11732W        W25146  11.686  12.588  14.290  0.0949 -0.0115 -0.0223
11733W        W25147   6.065   1.894   3.670  0.0471 -0.1036  0.2368
11734W        W25148   9.157  13.333   4.476 -0.3853  0.2036  0.0098
11735W        W25149   9.491  12.903  16.092 -0.1009  0.0573 -0.1274
11736W        W25150   6.644  12.707  15.378 -0.0613  0.1210  0.0725
11737W        W25151  16.096  17.222   1.141 -0.0480  0.0352  0.1692
11738W        W25152   3.406  14.162   2.619 -0.0950  0.3877  0.0203
11739W        W25153   6.796   3.829  16.473  0.0253 -0.0542 -0.2752
11740W        W25154  12.404  11.141  14.887  0.0574  0.2002  0.3977
11741W        W25155   1.228   2.436   5.471  0.3737  0.0914 -0.0052
11742W        W25156   6.823   9.527  16.690 -0.2943  0.0591  0.0050
11743W        W25157   6.842   8.449  12.689 -0.4231  0.1964 -0.0337
11744W        W25158   4.310   5.166  14.370  0.0108  0.2611  0.0942
11745W        W25159   6.548  10.506   3.256  0.1655  0.1129  0.0437
11746W        W25160  12.359  11.940   0.469 -0.0298  0.0157  0.0098
11747W        W25161  17.805   2.029  16.414 -0.1186 -0.3067  0.0516
11748W        W25162   4.445   8.281  12.167 -0.1807 -0.2367  0.0981
11749W        W25163   1.631  14.916   5.226 -0.3986  0.1348  0.0246
11750W        W25164   3.446  12.854   1.348 -0.0023  0.0290 -0.1916
11751W        W25165   1.410   9.806   0.675 -0.0377  0.2634 -0.1604
11752W        W25166  10.889   3.200   9.974 -0.2429 -0.2612 -0.0070
11753W        W25167  14.240  12.401   1.876 -0.2195  0.1045  0.0322
11754W        W25168  15.599  12.107   4.652 -0.1042 -0.0206  0.0298
11755W        W25169   6.377   8.490  12.225  0.0393 -0.2254 -0.1323
11756W        W25170   6.115  11.758   5.279  0.0147  0.0307  0.0983
11757W        W25171   0.668  13.563  15.080 -0.0850  0.2793  0.0782
11758W        W25172  15.958   7.423   0.683 -0.1339 -0.0478  0.0894
11759W        W25173   0.127   2.114  12.777  0.2036 -0.1138  0.0809
11760W        W25174   6.690  11.203  10.693  0.1220  0.0670 -0.0441
11761W        W25175  13.588   5.722   2.358 -0.1397 -0.1224  0.0641
11762W        W25176   7.476   8.165   4.963  0.2454  0.0633 -0.0025
11763W        W25177   0.235   0.781  15.995 -0.0250  0.2390  0.0393
11764W        W25178  11.483  12.123  14.583 -0.1141  0.1665  0.3087
11765W        W25179   6.400   9.217  13.649 -0.0747 -0.5312  0.0148
11766W        W25180   9.918   8.720   0.090 -0.1750 -0.0825  0.1211
11767W        W25181   2.425   2.162   4.041  0.0162 -0.0864 -0.0036
11768W        W25182  16.113   9.638  12.477 -0.0456 -0.1791  0.4778
11769W        W25183   1.492   4.069  14.312  0.0135  0.1712 -0.1017
11770W        W25184   0.897  12.460  15.120  0.0355  0.0597  0.1654
11771W        W25185  11.943   7.807   3.865  0.0981 -0.5046 -0.0910
11772W        W25186   6.198  15.968  11.663  0.2519 -0.1714  0.1648
11773W        W25187  16.060   7.679   1.773  0.1503 -0.4049  0.3109
11774W        W25188   7.517  12.507   1.844  0.0038 -0.0906 -0.0213
11775W        W25189  11.327   1.347  13.926 -0.1614  0.1469 -0.0252
11776W        W25190   7.090   0.946   0.238 -0.0385  0.0137  0.0474
11777W        W25191   9.769   2.592  14.536  0.1117 -0.0458 -0.0323
11778W        W25192   9.037   2.042  15.585 -0.2767  0.0576  0.0475
11779W        W25193   4.412   7.915   5.134  0.0473 -0.3101  0.3229
11780W        W25194  15.704  12.291   3.197  0.0756 -0.1321 -0.0021
11781W        W25195  14.021   8.170  15.454 -0.1367  0.0806 -0.2676
11782W        W25196   0.186   9.934  13.116 -0.1019 -0.1182  0.2138
11783W        W25197  13.973  16.740   2.259 -0.1480 -0.0784  0.0451
11784W        W25198   0.121   6.586   5.015  0.0366 -0.1979 -0.0702
11785W        W25199  15.733  11.104   0.124 -0.1429  0.0265 -0.1238
11786W        W25200  13.204  14.237  13.820 -0.3974  0.1801 -0.2097
11787W        W25201   0.706  16.246  16.664 -0.3239  0.0823  0.3538
11788W        W25202   4.817  15.861   1.824 -0.0580 -0.2561  0.0268
11789W        W25203   1.269   6.191  12.039 -0.3398 -0.2152  0.0170
11790W        W25204  11.799   8.576   5.970  0.1148  0.1561 -0.2021
11791W        W25205  11.413  15.756   1.832 -0.1070 -0.1806  0.1777
11792W        W25206  12.952   2.080  13.721 -0.0077  0.2193  0.0328
11793W        W25207   3.008  14.210   1.425 -0.0225  0.0474  0.0430
11794W        W25208   8.421  15.011  15.946 -0.0340 -0.0533  0.4175
11795W        W25209  13.337  12.476  13.536  0.2123 -0.1679  0.0894
11796W        W25210   2.603   5.470  12.922  0.3842  0.0474  0.2373
11797W        W25211   7.958   2.713  10.209 -0.0196  0.1525 -0.0780
11798W        W25212  15.123  16.363   3.090  0.2732 -0.0261  0.1678
11799W        W25213   9.045  17.892  14.729  0.2602 -0.1341  0.3272
11800W        W25214  14.046  11.133  15.219 -0.2556 -0.1399  0.0147
11801W        W25215  12.210   8.975   6.064  0.0726  0.0270  0.2233
11802W        W25216   4.378  16.127   4.694 -0.1288 -0.3593 -0.0082
11803W        W25217   4.423   0.846  11.756  0.0340 -0.1078 -0.1862
11804W        W25218   3.853  16.764   4.924 -0.1063  0.0632  0.0003
11805W        W25219  10.672  13.267  11.390  0.0212  0.0070 -0.2516
11806W        W25220   2.082   9.408  13.807 -0.0720 -0.1086 -0.0038
11807W        W25221  14.062  13.507  15.634 -0.0240 -0.2575 -0.1442
11808W        W25222  15.566  15.402  13.103 -0.2315  0.0411  0.2342
11809W        W25223   1.533   7.693   0.318 -0.0484 -0.0952  0.0116
11810W        W25224   3.692  16.183  15.302 -0.0268  0.0296 -0.1716
11811W        W25225  11.935   8.885   0.987 -0.2631 -0.3717  0.1597
11812W        W25226  14.663   2.595   2.523  0.2886 -0.1435  0.5356
11813W        W25227  12.258   5.088   3.060  0.0513  0.2425 -0.3168
11814W        W25228  13.403  13.921   3.577 -0.0875  0.0917  0.0966
11815W        W25229   8.798  13.228   0.914  0.1821  0.0323  0.0326
11816W        W25230  10.701  17.476   5.984  0.1831 -0.4292 -0.0846
11817W        W25231   4.663  10.628   5.986  0.2747 -0.1125 -0.1970
11818W        W25232   3.381  10.301   0.935  0.0131 -0.0217 -0.0039
11819W        W25233  17.467  12.710  10.669 -0.0826  0.3635 -0.1177
11820W        W25234   9.965  13.911  16.071  0.2337 -0.0196 -0.1081
11821W        W25235  10.258  12.754  14.551  0.0842 -0.0601 -0.1437
11822W        W25236  11.993  14.506  14.663  0.1853  0.1167 -0.1280
11823W        W25237   8.259   4.495   2.751  0.0404  0.1365 -0.2586
11824W        W25238   2.115  16.100   1.223  0.0640  0.0694  0.0649
11825W        W25239  16.930   4.717   6.593 -0.6170 -0.0972  0.1384
11826W        W25240  17.812   2.329  13.363 -0.0843  0.3458 -0.1283
11827W        W25241  14.937  16.921   2.436 -0.2277 -0.0199  0.2616
11828W        W25242   4.011   2.647   3.792 -0.0002 -0.0071 -0.1617
11829W        W25243   4.735  12.088   5.318 -0.0146  0.2127 -0.2049
11830W        W25244  11.080   4.068  11.292  0.2650  0.1322  0.4200
11831W        W25245   8.656  12.435   0.740  0.3336 -0.0700  0.0416
11832W        W25246   4.943  17.758   3.751 -0.1831 -0.1899  0.2769
11833W        W25247  11.410   9.171   5.190  0.0878  0.0613  0.2324
11834W        W25248   7.060  16.316  14.150 -0.0448  0.3202  0.2047
11835W        W25249   3.631  13.741  15.485  0.2402 -0.0449 -0.0636
11836W        W25250  15.153   6.734   6.763 -0.1672 -0.0012 -0.0919
11837W        W25251   6.473   8.658   1.968  0.0085  0.0148 -0.0594
11838W        W25252   3.310  15.964  11.323  0.1495  0.0130 -0.2463
11839W        W25253   3.226   0.199   0.965 -0.0451  0.1834 -0.1813
11840W        W25254   0.726   5.553   4.464 -0.1265 -0.0372 -0.1994
11841W        W25255  17.585   1.382  15.795 -0.0140 -0.2169 -0.1089
11842W        W25256   5.167   1.187   1.144 -0.0004 -0.3042  0.1231
11843W        W25257  12.427  11.572   0.151  0.1205 -0.0111 -0.1517
11844W        W25258  11.046  10.237   6.782 -0.3485 -0.0081 -0.0382
11845W        W25259   3.415   9.729  13.366 -0.2180 -0.1033  0.0493
11846W        W25260  12.624   4.250  10.971  0.0953 -0.2066  0.1150
11847W        W25261  17.201  11.943   5.455 -0.1245 -0.0383 -0.1017
11848W        W25262   2.808   3.611  15.651 -0.0020  0.2962 -0.2422
11849W        W25263  12.251   2.959   5.464  0.4668 -0.1594  0.0464
11850W        W25264   9.598   9.147  14.376  0.0386  0.1353 -0.1598
11851W        W25265   6.105   7.962  12.134 -0.0646  0.4239 -0.0824
11852W        W25266  10.580   6.972  11.522 -0.1085  0.1701  0.2487
11853W        W25267   2.982   7.209   4.670  0.0492  0.1718  0.0262
11854W        W25268   2.410   1.974  14.509  0.4461 -0.0295  0.0066
11855W        W25269  15.964   4.055   3.459 -0.1369  0.0028 -0.0494
11856W        W25270  13.728   2.175  14.991 -0.0426 -0.0737 -0.1174
11857W        W25271   7.779   4.439  12.804 -0.0615  0.0369  0.0716
11858W        W25272  17.074   8.021  14.954 -0.1073 -0.2313  0.1672
11859W        W25273   7.175   7.687   4.898 -0.4815  0.1976 -0.0342
11860W        W25274   8.830   8.555   3.947  0.5197  0.1840  0.2308
11861W        W25275   6.074   4.132  14.086  0.0269 -0.0700  0.1861
11862W        W25276   1.076   1.896  11.403  0.0262  0.1318  0.1368
11863W        W25277   7.094  11.171  14.938 -0.2330 -0.1127 -0.0785
11864W        W25278  15.158  15.564   6.519 -0.2048  0.1176  0.4859
11865W        W25279  12.604  11.466   6.617  0.0260  0.0129 -0.1133
11866W        W25280  12.500   4.453  10.530 -0.0442  0.1689  0.3179
11867W        W25281  17.989  11.700   0.083  0.1280  0.1419 -0.0888
11868W        W25282  13.409  13.817   4.096  0.1646  0.0345  0.0618
11869W        W25283   4.011  16.320  12.608  0.0518  0.0836  0.0583
11870W        W25284  13.409  17.947   3.471 -0.0908  0.1633  0.0831
11871W        W25285   0.478   9.664   2.740 -0.1047  0.1940 -0.0850
11872W        W25286  15.780  10.439  13.139  0.1781  0.3600  0.1097
11873W        W25287   8.730   9.277   4.310  0.1413 -0.1227 -0.2100
11874W        W25288  15.954  15.690   0.664  0.5923  0.0738  0.0467
11875W        W25289  14.828  10.160  15.110  0.0331 -0.0519  0.2562
11876W        W25290   6.353  12.458   5.032 -0.3034 -0.2147 -0.1091
11877W        W25291   2.887  12.114  11.356 -0.4754  0.0899  0.0194
11878W        W25292  13.132   2.434  14.130  0.2174  0.0813  0.0154
11879W        W25293   1.336   3.536  13.408  0.3027  0.0355 -0.1657
11880W        W25294  12.539   9.433  16.225 -0.1539 -0.3759  0.0571
11881W        W25295   9.276   9.258  11.768 -0.1469 -0.0354 -0.2019
11882W        W25296  11.155   1.868  15.988  0.0750 -0.0073 -0.0777
11883W        W25297   0.460   3.735   5.371  0.0585 -0.1824 -0.1229
11884W        W25298  14.153   0.502   0.203 -0.0674 -0.2011  0.0412
11885W        W25299  12.992   8.668   1.107 -0.0845 -0.1088 -0.1955
11886W        W25300   6.450   6.086   5.000  0.0262 -0.0240  0.2474
11887W        W25301  13.041   9.868   4.470  0.0691 -0.1549 -0.1929
11888W        W25302   2.103  16.831  13.482  0.0734 -0.0143 -0.3005
11889W        W25303   0.016  17.647  10.501  0.1874 -0.1915 -0.0671
11890W        W25304   7.437   3.659   0.714  0.2301  0.4092  0.1558
11891W        W25305   6.664   2.229  10.722 -0.1113  0.0435 -0.0062
11892W        W25306  15.363   6.932   1.186 -0.2569  0.1823  0.1311
11893W        W25307  14.548  16.109   4.845  0.2435 -0.0640  0.1500
11894W        W25308   6.800   7.508  12.551  0.2701 -0.0626 -0.0315
11895W        W25309   5.826   2.554   2.657  0.0991 -0.1049  0.2857
11896W        W25310  13.738   1.934  15.903 -0.2514  0.3699 -0.0494
11897W        W25311   9.935  11.095  13.111  0.1175  0.0241  0.1963
11898W        W25312  14.201   8.688   1.750 -0.1462 -0.2006 -0.2061
11899W        W25313  14.370   2.618   4.542 -0.0796 -0.0992  0.2739
11900W        W25314  14.534  17.838  12.218 -0.0644  0.0218  0.0866
11901W        W25315  13.913   0.165  15.477 -0.0315  0.3425  0.1249
11902W        W25316  14.654   6.868  16.694  0.0777 -0.0908  0.3667
11903W        W25317   7.688   8.097  12.969 -0.2861  0.1727  0.0965
11904W        W25318   3.682   9.267  12.648  0.0355  0.0797  0.2047
11905W        W25319   2.303  14.793  10.745 -0.0399 -0.0366 -0.1668
11906W        W25320   5.640   0.696   3.191 -0.2945 -0.1304 -0.2063
11907W        W25321   4.433   7.813  14.575  0.2036 -0.2049  0.1713
11908W        W25322  11.091   2.757   0.701  0.1014  0.1735  0.0646
11909W        W25323   3.844  17.417   4.229  0.0582 -0.4350  0.2286
11910W        W25324   3.203  16.406   0.846  0.1380 -0.2688 -0.0024
11911W        W25325  13.272  11.141  12.320 -0.1026 -0.0720  0.1030
11912W        W25326   1.569  13.101   3.139  0.1250 -0.0216 -0.0736
11913W        W25327  16.221  17.065   0.257 -0.1094  0.0390 -0.0491
11914W        W25328   2.786   5.317  15.142  0.0874  0.0451 -0.1713
11915W        W25329  17.460   4.667  15.880 -0.0680 -0.0394 -0.0890
11916W        W25330  14.902   8.736   0.119  0.0968  0.0761 -0.3280
11917W        W25331  12.804   5.751   3.620  0.1789 -0.2085  0.2150
11918W        W25332  15.511   6.934  13.381 -0.4903  0.0376 -0.1367
11919W        W25333   4.193  13.244   3.421 -0.0458  0.0382  0.1270
11920W        W25334   7.901  17.901  13.947  0.1853  0.4268  0.2696
11921W        W25335  15.887  10.218   1.403 -0.0839  0.2959  0.1795
11922W        W25336  12.197  11.096   2.717 -0.1147  0.0149  0.1811
11923W        W25337   0.602   6.581  16.758  0.0747  0.1230 -0.1036
11924W        W25338   7.712   4.487   2.633 -0.2797 -0.0584  0.2618
11925W        W25339   9.267   2.599   2.207 -0.0652  0.0025  0.0931
11926W        W25340   7.119  16.164  15.155 -0.1232 -0.1923  0.2679
11927W        W25341  11.632   8.524   1.299 -0.0994 -0.2251  0.2819
11928W        W25342  13.579   2.114  10.560 -0.0972 -0.1085  0.2711
11929W        W25343   9.586   1.063   5.044  0.1196 -0.0680 -0.0131
11930W        W25344   1.598  10.860   4.777 -0.0305  0.0337  0.0500
11931W        W25345  17.431  13.545  13.715  0.1246 -0.1882 -0.1586
11932W        W25346   0.128   4.496   0.622  0.1553  0.1115  0.0138
11933W        W25347  15.470  13.914  12.966  0.1333 -0.0274  0.2135
11934W        W25348  10.575   8.905  11.981 -0.0216  0.1156 -0.2827
11935W        W25349  17.364   0.839  13.795  0.2717 -0.0520  0.0275
11936W        W25350  16.523  15.300   3.329 -0.0989  0.2351  0.0861
11937W        W25351  16.913  13.957  12.636  0.0201 -0.0181  0.1279
11938W        W25352  15.963   3.722  16.742  0.0318  0.0046 -0.2358
11939W        W25353   5.843   4.332   4.313 -0.1133 -0.0662  0.3446
11940W        W25354   2.428  12.806   3.663 -0.0268 -0.1456  0.0931
11941W        W25355   4.494   4.415   3.256  0.2402  0.0069 -0.3484
11942W        W25356   1.125   3.442  14.839  0.4140  0.0686 -0.0885
11943W        W25357   3.052   2.640  11.859 -0.4045  0.1459  0.0183
11944W        W25358   2.024  16.367   4.669 -0.1542 -0.1015  0.2763
11945W        W25359   7.906   6.040  15.239 -0.2182 -0.0956 -0.0512
11946W        W25360   5.448  15.433  13.591  0.0222 -0.0944  0.1986
11947W        W25361   4.647   3.629   4.564  0.0639 -0.2354  0.1669
11948W        W25362   5.867  15.335  15.444 -0.0669 -0.1214  0.1034
11949W        W25363   3.998  11.482  11.153  0.3988  0.1910  0.0338
11950W        W25364  11.142   1.529   2.273  0.0366 -0.2422 -0.1327
11951W        W25365   3.770   1.235   3.524 -0.1867 -0.2972  0.0029
11952W        W25366   3.254   1.731  14.908  0.1561 -0.4395  0.0358
11953W        W25367  14.150   0.580  12.504 -0.0049  0.1054 -0.0074
11954W        W25368  16.783  11.961   1.372  0.0633 -0.1192  0.0922
11955W        W25369  17.832   6.527  11.143 -0.0830 -0.2360 -0.2484
11956W        W25370   7.912  11.274   1.328 -0.0570  0.0127  0.0500
11957W        W25371  17.519  17.698   1.552  0.1343 -0.0520 -0.1345
11958W        W25372  12.315   3.514  12.186 -0.1477 -0.3188 -0.0659
11959W        W25373  16.658  13.512  11.752 -0.0629 -0.0887 -0.1440
11960W        W25374  17.767  12.313  16.712  0.0206 -0.2967  0.3120
11961W        W25375   6.426   0.165   4.935  0.0578 -0.0296  0.0227
11962W        W25376  13.184   1.602  16.622 -0.0923 -0.2474  0.1841
11963W        W25377   6.364   9.261  12.386 -0.1570 -0.1406 -0.1049
11964W        W25378  17.019  16.773  12.027  0.0405 -0.1162 -0.2607
11965W        W25379  14.275  17.816   2.408 -0.0690  0.2918  0.2311
11966W        W25380  17.913   9.719  11.820 -0.0231 -0.0836 -0.0993
11967W        W25381   4.959  13.090   1.670  0.0641  0.0137 -0.0280
11968W        W25382  10.133   1.121  12.822  0.3901 -0.1546  0.1199
11969W        W25383   2.294  16.035  14.919  0.0005  0.2150  0.0003
11970W        W25384   3.217   3.294   5.042 -0.1393 -0.1797 -0.0611
11971W        W25385   7.151   4.552   1.033  0.0964 -0.1365 -0.0064
11972W        W25386  13.236  16.834  12.404 -0.0025 -0.1415 -0.0566
11973W        W25387  10.039  14.455   6.566  0.1055  0.0254 -0.1846
11974W        W25388  13.707  11.090   3.633 -0.2882  0.3317  0.0888
11975W        W25389  10.775   6.375  12.264 -0.0731  0.0550  0.0540
11976W        W25390  13.713  12.510  12.390  0.1176 -0.2570  0.1643
11977W        W25391  13.326   7.300   5.642 -0.2694 -0.2914  0.0717
11978W        W25392  13.879   2.292   2.085  0.2523  0.2429 -0.0444
11979W        W25393   8.355  12.904   1.621 -0.0909 -0.1343 -0.2441
11980W        W25394  17.105  11.947   4.358  0.4480 -0.0443  0.0617
11981W        W25395  11.629   5.918  14.064 -0.2459 -0.0727 -0.1368
11982W        W25396   4.460   4.782   1.104  0.0125  0.1671 -0.1446
11983W        W25397   7.189   3.050   3.163 -0.1615  0.2420  0.0645
11984W        W25398   2.283  13.798   3.923  0.0332 -0.0639 -0.0093
11985W        W25399  14.747   0.611   3.880  0.0531  0.3192 -0.0310
11986W        W25400  11.436   7.025  14.937  0.0991  0.1984  0.0057
11987W        W25401  14.054   1.474  13.663  0.2329 -0.1805  0.2489
11988W        W25402   3.870  11.086  13.794  0.4554  0.0701 -0.0580
11989W        W25403   1.232   2.065   2.364 -0.1891 -0.2039  0.0312
11990W        W25404  11.811   6.044   4.011 -0.0781  0.0739  0.0525
11991W        W25405   2.067  17.073   9.829  0.0416  0.1809 -0.4030
11992W        W25406   0.885  16.938  15.060 -0.0699  0.3275  0.1644
11993W        W25407   0.861  16.480  15.881  0.0069  0.0404  0.2825
11994W        W25408   5.749   4.674  15.499 -0.0248 -0.1087 -0.1449
11995W        W25409   1.699  13.972  12.812  0.1295  0.2266 -0.1904
11996W        W25410   5.004  10.397   4.596  0.0136 -0.2036  0.1637
11997W        W25411  14.944   6.690   6.289 -0.2066 -0.0399  0.1947
11998W        W25412   1.006   4.373  13.291 -0.0189  0.0610  0.2132
11999W        W25413  14.303   2.332  15.695  0.1047  0.1899  0.2824
12000W        W25414   4.836   2.063   0.592  0.3579 -0.2965 -0.0226
12001W        W25415  15.326  14.556   3.444  0.1027 -0.1359 -0.1704
12002W        W25416  16.142  10.389   4.556  0.4566  0.2911 -0.1667
12003W        W25417  14.842   0.806   2.749 -0.2491 -0.0984  0.0950
12004W        W25418  16.815   6.275  14.793  0.0645 -0.2207 -0.3122
12005W        W25419  17.137  11.070   5.317 -0.0861 -0.2910  0.0855
12006W        W25420   9.014   7.578   0.663  0.1325 -0.0244  0.0225
12007W        W25421  15.172  17.218  13.949 -0.0744 -0.0035 -0.1463
12008W        W25422   1.503  16.229   4.109 -0.3607 -0.1816  0.2415
12009W        W25423   1.148   4.358  16.139 -0.0060 -0.0605 -0.0119
12010W        W25424  11.591   8.741   5.489 -0.0022 -0.0221 -0.0478
12011W        W25425  10.593  16.755   1.037 -0.0210  0.0648  0.0695
12012W        W25426  13.650  13.057   5.337  0.1173  0.0895 -0.0503
12013W        W25427   3.763   2.239   3.746 -0.1953 -0.0831  0.0270
12014W        W25428  17.285  15.778   3.835  0.1412  0.2179  0.0835
12015W        W25429   8.061   5.879   6.004 -0.4052  0.0703  0.1981
12016W        W25430  16.221   7.273   1.517 -0.4689  0.2876 -0.0103
12017W        W25431   9.607   4.124   3.810  0.0590 -0.1878  0.2122
12018W        W25432  16.082   6.937  12.535 -0.2452  0.0008  0.0288
12019W        W25433   9.702   3.569   2.447  0.0631  0.2558 -0.0849
12020W        W25434   9.747   9.692   5.062 -0.0204 -0.2062  0.2628
12021W        W25435   6.004  11.899  14.190  0.2506 -0.4162  0.0226
12022W        W25436   8.950   4.813  11.302  0.0211  0.2260  0.3379
12023W        W25437  13.725  11.123   2.129 -0.0805 -0.0897  0.0598
12024W        W25438  11.499   5.009  13.068  0.1360 -0.0077  0.2180
12025W        W25439   9.376   8.260   0.648 -0.0297 -0.2036  0.1270
12026W        W25440   5.607   4.092  10.519 -0.0286  0.0594 -0.1406
12027W        W25441   4.362  15.033  13.209 -0.0541  0.1270  0.1532
12028W        W25442  12.216   5.601   5.016 -0.3289  0.0190  0.0237
12029W        W25443  13.437  10.795   0.175  0.1837  0.1165  0.0225
12030W        W25444   9.824  14.454  14.653  0.3468  0.0360 -0.2524
12031W        W25445  17.000   3.364   2.162  0.0346 -0.1913  0.0177
12032W        W25446   2.964   4.752   1.926  0.1435  0.1712  0.0470
12033W        W25447  17.048   2.354  15.415 -0.0348  0.0348 -0.0511
12034W        W25448   0.530  17.158   0.911 -0.2014 -0.0998  0.3734
12035W        W25449  10.981   7.379   3.727 -0.1225 -0.1956  0.4297
12036W        W25450  15.147   0.823   0.951  0.2989 -0.1114  0.0095
12037W        W25451  13.152  13.394   3.824 -0.4310 -0.0674  0.0535
12038W        W25452  13.506  13.396   2.893  0.0573  0.0213  0.1620
12039W        W25453  10.767   5.459   4.482  0.3063 -0.2128  0.3379
12040W        W25454   1.369   3.813   0.600  0.1478  0.4580 -0.0940
12041W        W25455   9.515   1.501   1.370 -0.2913 -0.0496 -0.0372
12042W        W25456  11.803  11.053   1.715  0.1829 -0.4018  0.1892
12043W        W25457   3.732   5.796   1.432 -0.1979  0.1835 -0.0443
12044W        W25458   0.956   4.438   2.838 -0.1394 -0.1487  0.0556
12045W        W25459  13.106   1.116  13.154  0.2861 -0.1566 -0.3099
12046W        W25460  13.171  17.808  16.493  0.0625  0.2847 -0.2078
12047W        W25461  12.544   6.540  13.378  0.0951  0.0879 -0.2186
12048W        W25462  16.415  13.239   4.525 -0.0446  0.0911 -0.0869
12049W        W25463  14.399   4.436  14.095  0.0344 -0.0045 -0.1129
12050W        W25464  16.810  17.669   2.398  0.0010  0.0174  0.0172
12051W        W25465  15.046  16.545   6.138 -0.1787 -0.4062 -0.0449
12052W        W25466   7.624   2.461  14.090 -0.1863 -0.3194  0.2078
12053W        W25467   7.790  16.629  13.668 -0.0644  0.3022  0.0577
12054W        W25468  16.757   0.681  13.121  0.2240 -0.0206 -0.1031
12055W        W25469  10.682   2.723  11.892  0.0468  0.0413  0.5266
12056W        W25470   2.721   4.039   2.695  0.2465 -0.3193 -0.0220
12057W        W25471   9.517   4.107  16.345 -0.2500  0.0634 -0.0868
12058W        W25472  14.792  12.816   0.398  0.2699  0.2676 -0.1535
12059W        W25473   4.042   4.960   0.838  0.0876  0.0974  0.0469
12060W        W25474   1.667  15.502  15.908 -0.3340  0.0833  0.0665
12061W        W25475  11.156   6.234   2.258 -0.0486 -0.0090 -0.3446
12062W        W25476  10.055   4.605  14.659  0.1689 -0.2271 -0.1804
12063W        W25477  15.785  10.083   5.856  0.1535  0.2232 -0.3765
12064W        W25478   0.854   0.139   4.034 -0.1324 -0.4016 -0.1897
12065W        W25479  10.024  10.034  13.008  0.1349 -0.0842 -0.0935
12066W        W25480  17.121  15.489   1.460 -0.1304 -0.0076  0.0873
12067W        W25481  12.189  12.858  12.665  0.0289 -0.1637  0.2409
12068W        W25482   2.281  11.246  14.817  0.1641 -0.4438  0.0093
12069W        W25483   7.047  16.433   3.646 -0.1014 -0.2380  0.2842
12070W        W25484   9.957   1.217   5.313  0.1551  0.2088 -0.1510
12071W        W25485  12.770  11.322  14.074  0.2617 -0.0492  0.3319
12072W        W25486  16.032  16.212   2.662  0.2104  0.0537  0.1802
12073W        W25487  14.440  11.795   2.626  0.3356 -0.2050  0.1713
12074W        W25488   4.487   4.818   4.462 -0.3210  0.1798  0.0306
12075W        W25489  16.603  13.431  13.105 -0.2055 -0.1445 -0.2893
12076W        W25490   6.430  13.268   3.556  0.2904  0.0578  0.2550
12077W        W25491   6.353  16.482  13.653 -0.1650 -0.0498 -0.2471
12078W        W25492  15.717   1.814   2.137  0.2159  0.2376 -0.3310
12079W        W25493  12.970   6.604   1.391 -0.0598 -0.3319 -0.0654
12080W        W25494   0.153   5.466   3.129  0.0178 -0.0108  0.0930
12081W        W25495   2.105  17.175   1.757 -0.1249 -0.0892 -0.0438
12082W        W25496   3.215   6.897   3.654 -0.1150  0.0326  0.0949
12083W        W25497  10.948   1.641   0.665 -0.0175  0.0569 -0.0220
12084W        W25498  16.123  17.465  11.391  0.1023 -0.4258 -0.3238
12085W        W25499  17.537   0.003  12.441 -0.1735 -0.0485  0.2491
12086W        W25500  10.918   8.077   5.361  0.0291  0.0892  0.2698
12087W        W25501  14.844   0.709  13.711  0.3912 -0.4099  0.0070
12088W        W25502  10.091   5.388   3.915  0.0242 -0.1522  0.1210
12089W        W25503   5.495   8.351  15.687 -0.1626  0.0115  0.0286
12090W        W25504   4.309  13.359   2.697  0.1070 -0.1102  0.1119
12091W        W25505  14.398   8.311  12.261 -0.0606 -0.0499 -0.0831
12092W        W25506   7.973   6.808   2.614 -0.0897  0.1138  0.0660
12093W        W25507   2.497   2.193  11.098  0.0003 -0.0557 -0.4634
12094W        W25508   2.401   8.613  11.811 -0.0780 -0.0398  0.1224
12095W        W25509  15.895   2.465  14.056  0.0628  0.1618  0.3601
12096W        W25510   4.933   0.242   2.932  0.0601 -0.0582  0.1473
12097W        W25511   5.533  12.391  14.631  0.0329  0.1369  0.1214
12098W        W25512  10.440   2.193   4.173  0.0558  0.1117 -0.1195
12099W        W25513   1.622  14.077   9.921 -0.1877  0.2141  0.4085
12100W        W25514   9.832   7.551   0.524 -0.0339 -0.0575  0.0890
12101W        W25515   1.220  12.123   3.526 -0.3987 -0.2686 -0.1382
12102W        W25516  11.239   9.269  13.877 -0.0951  0.1026  0.2958
12103W        W25517   9.224  12.288  13.232  0.0110 -0.0714  0.0941
12104W        W25518   3.854   3.226  14.992  0.0089  0.0145  0.0776
12105W        W25519  11.703  11.567   5.609 -0.2074 -0.1414  0.0213
12106W        W25520   5.409  14.403   3.090 -0.1181  0.0542 -0.1122
12107W        W25521   0.161   4.808   4.711 -0.2926  0.1110 -0.0172
12108W        W25522   2.534  14.372   2.215  0.0028  0.0311  0.2132
12109W        W25523   6.021  13.151   4.542  0.0994 -0.0280  0.0668
12110W        W25524  11.172   3.571  16.352  0.2347  0.0207  0.0356
12111W        W25525   4.236  13.727  13.696 -0.4008  0.0231  0.2345
12112W        W25526   0.039   5.369  15.399 -0.0552  0.1718  0.1605
12113W        W25527  11.848  11.991   1.283 -0.1231 -0.1072  0.1096
12114W        W25528   4.287   8.083  12.676 -0.0638 -0.0238  0.1664
12115W        W25529  17.449  12.619   6.161 -0.0225 -0.2327  0.0530
12116W        W25530   8.729   0.783  15.078 -0.1928  0.0752  0.0070
12117W        W25531   7.864  13.841   0.380  0.2593  0.1374  0.1218
12118W        W25532  16.887   1.534   5.272  0.0996  0.1328  0.1791
12119W        W25533  16.441  13.619  16.168 -0.0210 -0.0975 -0.0451
12120W        W25534   6.793  16.997   1.957 -0.0888  0.0320 -0.0889
12121W        W25535  15.994  12.718   3.998 -0.0506 -0.0758 -0.1390
12122W        W25536   4.101   9.907  16.036 -0.0022 -0.0759 -0.1292
12123W        W25537   9.685  14.301   6.294  0.3325 -0.2608 -0.3054
12124W        W25538  14.463   2.724  11.368 -0.1254 -0.0077 -0.0105
12125W        W25539  14.380  17.090  14.908 -0.0892  0.1383  0.1204
12126W        W25540   9.485  13.561   3.270 -0.0555 -0.3502  0.0325
12127W        W25541   7.698  14.717   0.305 -0.1906 -0.0600  0.3622
12128W        W25542   7.867  15.320   5.234 -0.0516 -0.1358  0.0641
12129W        W25543   1.277   9.346  11.548  0.2202  0.0335 -0.1514
12130W        W25544  11.279  14.721   0.002 -0.0268  0.1933 -0.3464
12131W        W25545  16.783   9.769  15.174  0.1260  0.2727 -0.0972
12132W        W25546  12.762   6.058  12.715  0.1599 -0.1808 -0.3517
12133W        W25547   9.855   4.905  16.424  0.2094  0.1691  0.0989
12134W        W25548   6.237   6.240  13.999 -0.3224  0.1003 -0.0104
12135W        W25549   9.762  13.071  15.337  0.3675 -0.2039  0.3433
12136W        W25550   1.212  13.934   2.412 -0.1234 -0.2754  0.0386
12137W        W25551  12.175   1.254  15.831 -0.1717  0.2302  0.0988
12138W        W25552   4.824   9.330   5.196  0.2925 -0.0857 -0.0337
12139W        W25553   8.420  14.817   5.989 -0.1138  0.1378  0.2615
12140W        W25554  11.781   5.111   2.641  0.1138 -0.0077  0.2502
12141W        W25555  16.162   5.404   0.667 -0.0348  0.1863  0.0952
12142W        W25556  17.780   9.028   1.957  0.1598 -0.2866  0.1910
12143W        W25557  10.152   0.095  15.300 -0.0319  0.1564 -0.1171
12144W        W25558  13.169  12.422  14.612  0.2094 -0.0485 -0.2224
12145W        W25559  15.328   7.414  11.192  0.0618  0.0084 -0.3907
12146W        W25560   7.752  13.795  12.257 -0.2985  0.1381 -0.0476
12147W        W25561  10.410  11.914   4.284  0.1732 -0.0458  0.0429
12148W        W25562  15.609   9.334  16.498  0.0186 -0.3416  0.1247
12149W        W25563   5.388   8.357   1.183 -0.0087  0.2267  0.1698
12150W        W25564   5.914  13.512  16.569 -0.1051 -0.1098 -0.2110
12151W        W25565  12.307   7.431  14.437  0.1024  0.2504  0.1243
12152W        W25566   7.759   2.250   0.574  0.2001 -0.0221  0.1891
12153W        W25567  11.280  12.356  16.645 -0.0791 -0.2090 -0.0927
12154W        W25568  10.851   2.043   4.474 -0.2411 -0.1090  0.1086
12155W        W25569   1.535  11.750  13.627  0.1581  0.1378  0.0642
12156W        W25570  13.728  16.881  13.619 -0.2715 -0.1120  0.0922
12157W        W25571   5.758   4.146  15.836  0.1388  0.5425  0.0307
12158W        W25572  11.254  14.982   1.499  0.0451 -0.2454 -0.2553
12159W        W25573   8.903  16.460  11.188  0.1367  0.0783 -0.1024
12160W        W25574  16.484   0.299   1.634 -0.0765 -0.3770  0.3863
12161W        W25575   6.777  14.054  16.554  0.0902 -0.0641  0.0366
12162W        W25576  16.224   1.710   2.108 -0.1801  0.4164 -0.0748
12163W        W25577   0.129   7.442   2.808 -0.1603 -0.3440 -0.3587
12164W        W25578  11.860   9.266   4.925  0.1710 -0.0104  0.0581
12165W        W25579  16.254   5.914   3.895  0.2026  0.0904  0.0399
12166W        W25580   5.372   1.261  12.594 -0.1177  0.1442  0.2011
12167W        W25581   9.706   0.671  15.851  0.2948  0.0487 -0.0888
12168W        W25582   3.153   5.051   0.794  0.1461  0.0827  0.1511
12169W        W25583  16.053   5.305  16.616  0.0273 -0.2115  0.2185
12170W        W25584  15.226  16.072   6.100 -0.1210  0.0806 -0.0811
12171W        W25585   3.116  13.303   0.971  0.1340  0.0339  0.1838
12172W        W25586  12.431   4.609   4.079  0.0073 -0.1078 -0.2608
12173W        W25587   5.428  16.383  13.956 -0.0556 -0.1440 -0.1396
12174W        W25588   4.422  12.564   5.301 -0.2928 -0.0163  0.2166
12175W        W25589  17.834   6.313  15.347 -0.0596  0.0524 -0.2696
12176W        W25590   9.819   2.789  11.890  0.2978 -0.1242 -0.1346
12177W        W25591   5.078   0.165   0.244  0.1327 -0.1580  0.0546
12178W        W25592  11.588   4.366   3.896  0.3456  0.0138 -0.2824
12179W        W25593   3.141  13.284  10.613 -0.1002 -0.0054  0.1933
12180W        W25594  16.892   1.640   0.563  0.0284  0.1885 -0.1679
12181W        W25595   1.817  16.921  14.797  0.3546  0.1198 -0.2813
12182W        W25596   5.946  14.619  14.011 -0.3302 -0.0894 -0.1113
12183W        W25597  14.392   6.053   3.098  0.1400 -0.1963  0.1589
12184W        W25598  14.279   7.538   5.423  0.0776  0.0233 -0.0239
12185W        W25599   4.583  13.917   1.329  0.0457 -0.1654  0.1209
12186W        W25600   2.986  16.779   5.438  0.3558  0.0693  0.0193
12187W        W25601   0.142  13.185   1.745  0.1876 -0.0265  0.2417
12188W        W25602  14.141  10.381   0.428 -0.1720 -0.2260 -0.0717
12189W        W25603  17.026   9.490   0.256  0.1350  0.2116  0.4142
12190W        W25604  16.604  17.454   3.581  0.0502 -0.3438  0.1189
12191W        W25605  14.267  13.553   4.620 -0.1225 -0.1063  0.2349
12192W        W25606  14.407  13.090   3.216  0.2593 -0.2652  0.3076
12193W        W25607  15.533  16.504  15.407 -0.1156  0.3581  0.0691
12194W        W25608  14.442   4.703   5.808  0.0097 -0.0633  0.0208
12195W        W25609   0.508   4.190   3.014 -0.2901 -0.0535  0.0833
12196W        W25610   8.988   1.817  12.184 -0.0481 -0.1478  0.0118
12197W        W25611   3.453  14.638  12.258  0.3328  0.1019  0.1830
12198W        W25612   0.903  14.962   0.547 -0.2496  0.0652 -0.0334
12199W        W25613  13.361  16.904  13.279 -0.0865 -0.0986  0.2231
12200W        W25614   6.643   7.885  12.905  0.1541  0.0166  0.0694
12201W        W25615  12.433  12.586  15.827  0.0276  0.0667  0.2971
12202W        W25616   2.082  12.148   2.606 -0.1432 -0.0831 -0.0564
12203W        W25617  17.367   7.369   0.891 -0.2347 -0.0480  0.2262
12204W        W25618  15.432   9.431  15.494 -0.1081 -0.2388 -0.1084
12205W        W25619  16.590   1.396   4.384 -0.0213  0.1400  0.2749
12206W        W25620  10.100  14.992   1.278 -0.0961 -0.0358 -0.0734
12207W        W25621   9.579   6.950  13.410  0.1903 -0.1065  0.0602
12208W        W25622  15.229   6.743   0.624 -0.0406 -0.0131 -0.1759
12209W        W25623   1.946  14.228  14.664  0.0312  0.1771 -0.1563
12210W        W25624  16.619  13.643   1.330  0.0071  0.1417  0.3862
12211W        W25625   6.290  14.437   4.695 -0.0256 -0.0318  0.0964
12212W        W25626  15.285  13.760   1.439 -0.1355 -0.2600  0.1592
12213W        W25627   0.452   3.570  16.232  0.0713  0.1529  0.0261
12214W        W25628   7.995   0.549   0.046 -0.2664 -0.1762 -0.2679
12215W        W25629   9.086  16.054  12.347 -0.0350 -0.1953  0.0089
12216W        W25630   2.608   1.477  16.179 -0.0707  0.1144 -0.0470
12217W        W25631  17.425  14.286   3.262 -0.0822 -0.6371  0.0420
12218W        W25632   3.058   7.029   3.138 -0.2764 -0.0280  0.1253
12219W        W25633  13.935   0.466   2.897  0.0002 -0.0995 -0.0810
12220W        W25634   0.763   0.253   5.038 -0.0797 -0.1152 -0.2143
12221W        W25635  12.872  13.374  14.295 -0.4138 -0.0167 -0.0185
12222W        W25636   0.437   7.745   4.315 -0.1457  0.1566  0.1267
12223W        W25637   3.359   8.021   1.926  0.0585  0.0228  0.1494
12224W        W25638  10.105   7.566  10.546  0.0229 -0.0049 -0.3362
12225W        W25639   2.292  16.001  11.085 -0.1322  0.1751 -0.2860
12226W        W25640   1.241   3.386   3.179 -0.3556 -0.1155  0.1591
12227W        W25641  10.019   3.502   5.405 -0.1173 -0.1741 -0.2482
12228W        W25642  17.901  13.312  15.968  0.1838  0.3675 -0.1323
12229W        W25643  15.783  11.946   2.846  0.0438 -0.1013  0.0869
12230W        W25644   1.063   1.039  14.546 -0.1553  0.0583  0.1116
12231W        W25645   1.922   2.237   3.940 -0.0977  0.2959 -0.0829
12232W        W25646  12.844  16.501   3.313 -0.1253 -0.1458 -0.1935
12233W        W25647   9.131  11.355   5.432 -0.0889 -0.1961  0.0064
12234W        W25648   6.472  15.180   1.677  0.3727  0.2421 -0.2187
12235W        W25649  17.898   5.547  11.483 -0.3106  0.0623 -0.4709
12236W        W25650   6.875   6.041  15.236 -0.1864  0.1631  0.2577
12237W        W25651  17.999   7.456  14.046 -0.0562 -0.2630  0.1524
12238W        W25652   0.075   5.093   3.841 -0.0190 -0.1908 -0.2012
12239W        W25653   9.327  11.826   7.154 -0.1404 -0.0124 -0.0667
12240W        W25654   1.096   4.057   5.624 -0.0477  0.0879  0.0628
12241W        W25655  10.723  12.017   0.559 -0.0040 -0.4457  0.2022
12242W        W25656  15.784  16.475   4.203 -0.2360 -0.3308 -0.0584
12243W        W25657  17.171   4.285   1.152 -0.1050 -0.0554 -0.0428
12244W        W25658   2.720   3.867  15.241  0.0211  0.2688 -0.3625
12245W        W25659   0.705  15.854  10.468 -0.1249 -0.0191 -0.1169
12246W        W25660   1.491   8.270  14.720  0.1230 -0.0411  0.0887
12247W        W25661   3.002   3.399   4.499  0.2793  0.0772  0.0590
12248W        W25662   8.183   1.491   0.329  0.1216  0.0097  0.0864
12249W        W25663  13.108  15.170   6.710 -0.0280 -0.0746 -0.2802
12250W        W25664  12.484   7.251   2.655 -0.0343  0.3017  0.1827
12251W        W25665   9.119   4.117   4.014 -0.1120  0.0379 -0.0645
12252W        W25666   3.775   4.158   4.845 -0.0580 -0.0832 -0.1872
12253W        W25667   6.284  17.918   4.073 -0.0946 -0.1443  0.0889
12254W        W25668   0.349   1.362   5.265  0.0964  0.1551  0.0461
12255W        W25669   4.181  16.170  16.608 -0.0025 -0.1390  0.0284
12256W        W25670   3.915   3.582   2.214 -0.1731 -0.0570 -0.0279
12257W        W25671  11.202  11.676   1.202 -0.2378 -0.1230  0.2370
12258W        W25672   7.989  10.338   3.054 -0.2109  0.0758  0.4444
12259W        W25673   1.308  14.337  14.828  0.0098  0.0975 -0.0114
12260W        W25674   1.996   4.118   3.711 -0.1354  0.2512  0.1082
12261W        W25675   6.242   5.419  14.528  0.2463 -0.0049  0.3415
12262W        W25676   7.045  13.921   2.331  0.0311  0.0644  0.1998
12263W        W25677   4.935   4.514   4.416 -0.0716  0.1485 -0.0965
12264W        W25678  14.916   4.951   4.195 -0.3468 -0.0275  0.2124
12265W        W25679  14.770   2.901  16.291 -0.4324  0.1187 -0.1205
12266W        W25680   5.228  13.244   4.239 -0.1365  0.2367 -0.3287
12267W        W25681   9.339   0.441   5.143  0.0953  0.0155 -0.0583
12268W        W25682   4.864   7.469  16.482  0.0234 -0.0224  0.1218
12269W        W25683   2.569   2.269   0.873 -0.1435 -0.1070 -0.3625
12270W        W25684  10.804  12.434  12.084 -0.2576  0.2348 -0.1012
12271W        W25685   1.924  14.773  12.974 -0.0592 -0.0766 -0.2926
12272W        W25686  17.571  10.953   0.714 -0.0233 -0.1008 -0.4024
12273W        W25687  12.109   3.365   4.299 -0.1368  0.4306 -0.3599
12274W        W25688   1.654   4.831   4.031  0.2318 -0.2185  0.1909
12275W        W25689  11.038   3.794  10.837  0.2104 -0.1209  0.0714
12276W        W25690   5.537   8.405   5.592 -0.3192  0.1128  0.2881
12277W        W25691   5.732  15.929   1.917  0.1328  0.0193 -0.0398
12278W        W25692   6.886   0.727   5.645 -0.0579  0.3147  0.3703
12279W        W25693   4.596   0.246   0.315 -0.2286  0.0572  0.1170
12280W        W25694  12.112   1.079  14.579 -0.4743  0.2090 -0.2153
12281W        W25695   7.380  10.740  13.945  0.0850 -0.0034  0.4282
12282W        W25696   1.693  11.165   5.615  0.1033  0.0100 -0.1654
12283W        W25697   2.995   0.097   3.292  0.2721 -0.0104 -0.0536
12284W        W25698   5.238  15.816  13.326 -0.1616  0.1201 -0.2272
12285W        W25699   3.106   6.327  15.782  0.0499 -0.1530  0.3115
12286W        W25700   6.521  10.555   4.943 -0.1822 -0.1163 -0.0387
12287W        W25701   9.092   3.487   5.703 -0.0619 -0.2711  0.0570
12288W        W25702  14.631   7.022  13.743 -0.2258  0.1546  0.1861
12289W        W25703  15.551  13.377   4.151 -0.1023  0.3062 -0.0985
12290W        W25704  10.911   5.925  16.666  0.0974 -0.1227 -0.2730
12291W        W25705   4.030   8.235   3.792 -0.2209 -0.3698 -0.1814
12292W        W25706  10.709   8.983  15.224  0.0938  0.1874 -0.0348
12293W        W25707  11.099  16.150   2.207  0.0434  0.1590  0.0310
12294W        W25708  15.117   2.151  15.090  0.1071  0.1047 -0.1518
12295W        W25709  17.086  10.957  13.525 -0.1182  0.0451 -0.0798
12296W        W25710   4.178   1.928   2.891 -0.2587 -0.2383 -0.0257
12297W        W25711  16.791   1.479  14.289  0.0178 -0.1756 -0.1447
12298W        W25712   1.192  10.287   0.316 -0.0812  0.1666  0.0387
12299W        W25713   7.593  13.954   2.572 -0.0243  0.3224 -0.0887
12300W        W25714  13.382   7.223  13.098  0.3058 -0.0308  0.1772
12301W        W25715   3.454  16.766   1.194  0.0368  0.0660 -0.2479
12302W        W25716  13.569   8.472  13.920 -0.0389  0.1354  0.0321
12303W        W25717  13.682   2.864  16.720 -0.1584  0.1424 -0.1178
12304W        W25718  16.867   6.336  10.408 -0.0552 -0.0116 -0.2329
12305W        W25719  17.875  11.774  13.536  0.2299  0.0198  0.2789
12306W        W25720  14.115  13.203  12.993  0.2022  0.0544 -0.1846
12307W        W25721  11.507  14.796  13.442 -0.0163  0.0265  0.3373
12308W        W25722  10.900  10.562   5.133  0.0305  0.0666 -0.1471
12309W        W25723  17.006   3.054  14.397 -0.2566  0.2223  0.1108
12310W        W25724  15.121  11.732   3.509 -0.4077 -0.2245 -0.2554
12311W        W25725  14.534  16.363  13.274  0.4819  0.0191 -0.1554
12312W        W25726   1.477  10.775  15.741  0.2379 -0.1914 -0.0454
12313W        W25727   3.168   1.523  14.034  0.1521 -0.1782  0.0934
12314W        W25728   9.260  12.329   3.585 -0.0725 -0.0657  0.1630
12315W        W25729   9.288  17.517  13.525 -0.1688  0.2922  0.5366
12316W        W25730   0.276  17.902   3.446 -0.1502 -0.0621 -0.2586
12317W        W25731   9.961   0.090   4.620  0.0499  0.1443  0.0730
12318W        W25732   8.846  12.355   2.813 -0.0779  0.0134  0.2160
12319W        W25733  17.609   6.636   3.188  0.1510  0.3522 -0.0546
12320W        W25734  11.914  11.854   0.138  0.1549 -0.1857  0.1509
12321W        W25735  14.005   6.293   6.398 -0.1916  0.3032 -0.1010
12322W        W25736  14.007  12.189   1.365 -0.1879 -0.0479  0.0552
12323W        W25737   2.201   1.294  10.833 -0.0356 -0.1495 -0.0878
12324W        W25738   5.665  12.022   2.133 -0.1433 -0.3545 -0.0958
12325W        W25739  16.895  15.886  14.010  0.1578 -0.0076  0.2657
12326W        W25740  13.954   2.863  10.583 -0.1561 -0.1899  0.3751
12327W        W25741  15.605  13.348  13.099 -0.0389 -0.1948 -0.2425
12328W        W25742   9.201  10.837   1.953 -0.2068  0.3688 -0.0978
12329W        W25743  13.056  12.721   2.323 -0.1398 -0.0667  0.1269
12330W        W25744  16.153   7.167   3.579 -0.0447  0.1427 -0.1524
12331W        W25745  17.560   6.458  12.658 -0.3949  0.2722  0.1746
12332W        W25746   6.930   5.007   0.142 -0.0402  0.1006  0.1428
12333W        W25747  11.931   6.502   4.907  0.0306 -0.1159  0.3013
12334W        W25748  16.846  16.895  13.551  0.0173  0.3098  0.2035
12335W        W25749  17.385  14.485  12.345 -0.4428 -0.1347 -0.2633
12336W        W25750  12.024  11.044  15.578 -0.1469  0.1843  0.2036
12337W        W25751   3.889   5.476  14.375 -0.1894 -0.0255 -0.1107
12338W        W25752   2.147  10.362   5.574 -0.2433  0.2224 -0.1659
12339W        W25753   6.173  17.890   4.615  0.1145  0.0598  0.0677
12340W        W25754  17.860  13.263   4.091 -0.1034 -0.6212 -0.1706
12341W        W25755   4.270   0.000  14.198 -0.0223  0.2752 -0.1048
12342W        W25756  11.025  13.647  11.774 -0.0385  0.0182  0.0292
12343W        W25757  14.927   0.570  11.819  0.1891 -0.0858 -0.0159
12344W        W25758  11.043   9.875  12.099 -0.2468 -0.0849  0.1067
12345W        W25759   5.014   0.129   2.064 -0.0774  0.2710  0.1493
12346W        W25760   5.664  13.633  11.950  0.2150  0.0488  0.1266
12347W        W25761   1.089  10.395  13.949 -0.0538  0.1858  0.0841
12348W        W25762  13.187  16.714   2.932 -0.0799 -0.1034  0.1369
12349W        W25763  11.387  12.497   5.617 -0.3263  0.0290 -0.2002
12350W        W25764  14.450  17.927   0.412 -0.0914 -0.0533  0.1748
12351W        W25765   7.059  16.546   2.620  0.0254  0.1310  0.1325
12352W        W25766   7.968   0.151   3.963  0.3814  0.1013 -0.2470
12353W        W25767   9.305  11.102  12.051  0.0280  0.1085 -0.1438
12354W        W25768   2.560  14.515  11.804 -0.2899 -0.0548  0.0334
12355W        W25769   1.124   7.477   5.716 -0.0684  0.2925  0.0609
12356W        W25770  14.597   0.586   1.062  0.0434 -0.0187  0.1026
12357W        W25771   9.510   6.341   2.572 -0.3830  0.1202  0.2438
12358W        W25772   3.559   1.089   4.458 -0.0511  0.2495 -0.1174
12359W        W25773   1.323   9.968  13.830  0.3961  0.0820  0.1190
12360W        W25774  10.388   8.128   3.680  0.1158  0.1581  0.0736
12361W        W25775  10.461   1.950   0.460  0.4112 -0.0554 -0.2500
12362W        W25776  12.191   7.873   1.838  0.0354  0.2324  0.0057
12363W        W25777  12.481  10.870  15.356 -0.2436  0.2105  0.0660
12364W        W25778   4.228   1.506  10.215 -0.0009 -0.3464  0.0869
12365W        W25779   0.398  10.491  14.495  0.0688 -0.1650  0.0300
12366W        W25780   1.005  13.232  15.815  0.2547  0.1138 -0.0477
12367W        W25781  17.989  11.696   1.958 -0.2099  0.1310 -0.1108
12368W        W25782   8.001  14.699   2.385  0.0989 -0.0885 -0.0742
12369W        W25783   3.125   0.260   1.528  0.1116 -0.0336  0.2492
12370W        W25784  13.202  14.779   1.175  0.0341 -0.0562 -0.3422
12371W        W25785   1.085   1.726  10.361 -0.1011  0.2361  0.2425
12372W        W25786   2.150  13.850   4.967  0.1482  0.0064 -0.3404
12373W        W25787   3.378  10.751  15.267  0.1929 -0.0160  0.1349
12374W        W25788  17.990  10.382   2.230 -0.0283 -0.0383 -0.0370
12375W        W25789   8.156  11.125  14.027  0.0219 -0.0193 -0.2449
12376W        W25790   8.613  15.999   5.314  0.0827  0.5680  0.0828
12377W        W25791   9.015   0.673   4.829  0.0723  0.0736 -0.5022
12378W        W25792   3.553  13.879   2.208  0.1038  0.1016 -0.0053
12379W        W25793  15.128   2.819  14.078  0.0164 -0.1634  0.0352
12380W        W25794   8.538  16.732   0.032 -0.2304  0.1494  0.0083
12381W        W25795  10.946  12.581   3.691 -0.2255  0.2747 -0.0111
12382W        W25796   0.958   0.607   0.539  0.0291  0.2297 -0.0756
12383W        W25797   0.520  13.021  16.364  0.1339 -0.0075 -0.1904
12384W        W25798   8.524   5.807   6.284  0.2587  0.0578 -0.0266
12385W        W25799  12.208   1.791  11.673  0.1029  0.2238 -0.0772
12386W        W25800   3.181  10.246  13.354 -0.0268 -0.0060 -0.1216
12387W        W25801   6.787   1.590   4.708  0.1459  0.1990  0.0065
12388W        W25802  12.551   8.589   4.378  0.2134 -0.3104  0.3663
12389W        W25803   9.906   9.693   2.246 -0.0516  0.1893  0.1383
12390W        W25804  15.805  16.305  12.253  0.1121  0.1135 -0.0103
12391W        W25805  14.578   4.495   3.334  0.0540 -0.1243  0.1027
12392W        W25806   4.611   5.099  10.523  0.0945 -0.2654 -0.2701
12393W        W25807  16.719   4.084   5.261 -0.4153  0.0047  0.2176
12394W        W25808  11.939  10.910  13.832 -0.1992 -0.0628 -0.1382
12395W        W25809   6.701   2.928   2.373 -0.1256  0.2541 -0.1120
12396W        W25810   1.447   4.473  16.531  0.1314  0.3184  0.2900
12397W        W25811   6.932   9.493  11.795 -0.1948 -0.4060 -0.0715
12398W        W25812   0.953   4.892   2.183  0.1311 -0.0290 -0.0480
12399W        W25813  12.335  16.368  12.103  0.2865  0.1195 -0.1724
12400W        W25814  10.718  17.103  11.182  0.1856 -0.0598 -0.1068
12401W        W25815   3.141  13.399   1.463  0.0534 -0.3421 -0.1336
12402W        W25816  10.374   6.250  11.118  0.2538  0.0546 -0.0460
12403W        W25817  14.744  15.550  16.574 -0.2803  0.0185  0.0577
12404W        W25818   2.984   5.233   1.215  0.1559  0.0258 -0.0092
12405W        W25819   3.738  14.018   5.175  0.0928 -0.1743  0.1075
12406W        W25820   1.520   6.389   5.401 -0.1744  0.0948 -0.0610
12407W        W25821  17.920   6.010  14.224  0.2564 -0.0453  0.1251
12408W        W25822   2.900  13.083   4.353  0.1747 -0.2002 -0.1281
12409W        W25823  13.194  14.230  15.173 -0.3222 -0.0621  0.0860
12410W        W25824   6.709  13.355   3.165  0.2818  0.0617  0.0376
12411W        W25825   3.373   8.555   0.864 -0.1180  0.3666  0.0860
12412W        W25826  13.786   8.124   5.218  0.0923 -0.2159 -0.1560
12413W        W25827  10.463   2.642   5.140  0.0032 -0.1259 -0.2069
12414W        W25828  15.722  16.262  11.554 -0.1463  0.0122  0.1867
12415W        W25829   9.349   5.326  13.008 -0.1812  0.2384  0.0587
12416W        W25830   5.136   8.026   3.706  0.0610 -0.1991  0.2404
12417W        W25831   3.655  13.540  14.076  0.0116  0.0905  0.1052
12418W        W25832  10.786   9.168   2.623 -0.2832 -0.0198  0.2955
12419W        W25833   9.620  15.678   2.748  0.3944 -0.1069 -0.2997
12420W        W25834   6.146   8.473   6.105  0.2187  0.2326 -0.1235
12421W        W25835  14.295  12.326  14.648  0.0713  0.1693  0.0343
12422W        W25836  16.278  13.339   2.931  0.2182  0.1115 -0.1397
12423W        W25837  11.186   0.168  15.769  0.0289 -0.1008 -0.0871
12424W        W25838   2.730   2.002  16.251 -0.0553  0.0956 -0.4105
12425W        W25839  13.200   8.870  14.993 -0.1824  0.0867  0.2898
12426W        W25840   4.563   1.757  13.621  0.1659  0.1856  0.1149
12427W        W25841  17.236   0.922   2.065 -0.0523 -0.0875  0.0797
12428W        W25842  15.744  13.065  16.626 -0.0930  0.0809 -0.0564
12429W        W25843   6.818   1.821  11.013 -0.2558 -0.0741 -0.0673
12430W        W25844   0.488   6.556  12.087 -0.0371  0.0288 -0.2005
12431W        W25845  16.416   3.261  15.687  0.1293 -0.4169 -0.0757
12432W        W25846  11.173  10.898  14.243  0.2271  0.0216  0.0110
12433W        W25847  14.210  15.664   0.477 -0.1275 -0.0139  0.2407
12434W        W25848   6.996   4.827  16.467  0.1456  0.3453  0.0259
12435W        W25849   2.988   3.789   5.645 -0.2382  0.2033 -0.0179
12436W        W25850   9.552   3.862  15.902  0.0836 -0.2519 -0.1619
12437W        W25851   4.210  14.662   1.967 -0.0132  0.2995 -0.0792
12438W        W25852   7.131   3.790  10.285 -0.3594 -0.0483 -0.1106
12439W        W25853   3.378  15.906   0.236  0.0537  0.2898 -0.0394
12440W        W25854  14.163   8.429   5.061 -0.1663  0.1180  0.1416
12441W        W25855  17.818   3.447  15.993  0.1265  0.0010  0.3528
12442W        W25856  15.758  11.383   4.574  0.5283  0.0507 -0.0920
12443W        W25857   8.495   3.461  15.030 -0.1212 -0.0158 -0.0512
12444W        W25858   9.810   0.568   0.408  0.1550  0.1145  0.0343
12445W        W25859  17.728   0.060   0.997  0.1013 -0.1092  0.0415
12446W        W25860   3.091   0.255  10.478 -0.0988  0.0184 -0.1494
12447W        W25861  10.560  15.017  11.665  0.1494  0.0361  0.1397
12448W        W25862   1.471  15.708   4.629  0.4961  0.1553 -0.1015
12449W        W25863   9.894   7.584   4.377  0.1146  0.0154  0.1240
12450W        W25864   6.902   5.857  15.710  0.4036  0.0341  0.0080
12451W        W25865   1.324   2.897  11.666 -0.2541 -0.0964 -0.1606
12452W        W25866   3.141  15.825  16.111  0.1033  0.0062  0.3189
12453W        W25867  17.153   5.530  13.887  0.2860  0.1876 -0.2593
12454W        W25868   7.522  17.000  11.029 -0.1289  0.0270  0.1418
12455W        W25869   7.853   8.982  10.372  0.1679 -0.0595  0.1698
12456W        W25870   4.397   6.304  16.316 -0.2086  0.0142 -0.1495
12457W        W25871  13.350   9.251  14.239 -0.0544  0.3793  0.1534
12458W        W25872  11.326   1.444   0.355  0.2536 -0.1240 -0.2061
12459W        W25873   7.875  15.577  13.771 -0.0978 -0.4496 -0.0707
12460W        W25874  17.803   1.484   3.052  0.1323 -0.0004  0.0124
12461W        W25875   4.479  17.969   3.584 -0.0786 -0.0931 -0.0473
12462W        W25876  16.340   7.758   5.827 -0.3372 -0.1663 -0.1852
12463W        W25877   3.450   2.245  10.945  0.1744  0.1309  0.1687
12464W        W25878  15.895  17.139  12.642  0.2087 -0.0105  0.2433
12465W        W25879   0.914   1.953   0.175  0.2023  0.0312  0.0833
12466W        W25880   3.099  17.193  14.983 -0.0697 -0.1398 -0.1070
12467W        W25881  11.101   5.146  11.135 -0.1506 -0.1088 -0.5102
12468W        W25882  11.333  16.675  12.905  0.2264 -0.3327 -0.2278
12469W        W25883  14.730  15.494   2.225  0.1532 -0.2229 -0.3911
12470W        W25884  14.395   4.858   0.122 -0.0739  0.1347  0.1057
12471W        W25885  15.823   6.113  15.591 -0.2070  0.1365 -0.0316
12472W        W25886   1.809  13.116  12.963 -0.3574  0.1959  0.2801
12473W        W25887   4.340   8.792   6.308  0.1564  0.0599 -0.2914
12474W        W25888  16.392   6.296   0.614  0.0641  0.1859 -0.0492
12475W        W25889  13.782  12.222   5.676 -0.1472  0.1108  0.0142
12476W        W25890  16.482   3.514  15.071 -0.0558  0.3582 -0.0195
12477W        W25891  15.023   6.135   3.845 -0.1177  0.2326 -0.0334
12478W        W25892   7.600  16.511  10.855 -0.2763  0.1635 -0.0787
12479W        W25893   9.006   0.982  15.461 -0.1544  0.2494  0.0345
12480W        W25894   2.978   4.179   1.345 -0.0543 -0.0973 -0.0693
12481W        W25895  13.804   9.478  12.042  0.4239 -0.0473 -0.0715
12482W        W25896  15.966  17.392   4.240 -0.0340 -0.1698  0.2696
12483W        W25897   2.004   2.483   2.532 -0.0406  0.0673 -0.2065
12484W        W25898  12.581  12.998  15.056 -0.3149 -0.3615  0.1143
12485W        W25899  12.524  16.092  14.580  0.3979 -0.0017  0.2339
12486W        W25900  15.998   7.189   5.319 -0.2935 -0.0743  0.0309
12487W        W25901  13.359  12.244  11.638 -0.0177 -0.2603  0.1053
12488W        W25902  17.534   0.405   3.745 -0.3847 -0.1490  0.0098
12489W        W25903   6.927   0.062   0.321 -0.0590  0.0325  0.2922
12490W        W25904  10.690  10.940   6.359 -0.0748 -0.1983  0.1413
12491W        W25905   7.798   5.789   2.960 -0.1845  0.0923 -0.2241
12492W        W25906   9.708  10.624   3.239  0.1234 -0.1697 -0.1501
12493W        W25907  14.553   3.374  14.507 -0.2055 -0.0530 -0.0099
12494W        W25908   2.092  13.086   3.282 -0.1113 -0.1413 -0.1994
12495W        W25909  13.649   0.480  10.637 -0.1491  0.1657  0.0702
12496W        W25910   0.780  14.638   2.696 -0.2450 -0.1857 -0.0703
12497W        W25911   8.614   8.446   4.929 -0.0565  0.1933  0.2555
12498W        W25912   3.194  14.068  15.772  0.1915 -0.1701 -0.3028
12499W        W25913   3.927   7.644  12.598  0.0900 -0.0271  0.2652
12500W        W25914   2.248  11.158   4.248 -0.2126 -0.1483 -0.4080
12501W        W25915   6.430   4.466   2.467 -0.2982  0.2093  0.1479
12502W        W25916   5.031  18.011   4.514 -0.1576  0.3122  0.3586
12503W        W25917  14.669  14.266  13.689  0.2516 -0.0059  0.2770
12504W        W25918   8.979   7.534  15.427 -0.4039  0.0852 -0.0064
12505W        W25919  16.345   6.257  12.164  0.1671  0.1230 -0.1530
12506W        W25920   1.741  12.127  13.275 -0.0385 -0.0538  0.1534
12507W        W25921  10.234   8.733   1.436  0.0027 -0.0756 -0.0298
12508W        W25922   6.462  13.434  15.707  0.0354  0.0540  0.1443
12509W        W25923   8.937   6.851  13.932  0.0429  0.0674 -0.1430
12510W        W25924  16.196   3.496   4.731  0.1584 -0.0349 -0.3130
12511W        W25925   7.664   3.656  16.268  0.2892 -0.3315  0.3825
12512W        W25926  11.772   8.736   3.185 -0.0689  0.2338  0.1683
12513W        W25927   1.170   2.665  15.415  0.1132 -0.1920  0.1864
12514W        W25928  16.962   3.005   3.393  0.4319 -0.1206  0.3283
12515W        W25929  15.379   8.362  14.824  0.0059 -0.0622  0.1249
12516W        W25930   2.576  17.972   9.786 -0.0058 -0.0439  0.0240
12517W        W25931   7.288  17.882  14.416 -0.0323  0.0239  0.2694
12518W        W25932   9.803  16.880   2.987  0.0442 -0.0789  0.0718
12519W        W25933  10.860  13.983  15.304  0.4112  0.0146  0.3524
12520W        W25934   9.633   1.414  13.517  0.1343 -0.0243  0.1757
12521W        W25935   1.919  10.779  13.471  0.1224 -0.5194  0.3389
12522W        W25936   1.528   6.737   1.160  0.0529  0.1903  0.0411
12523W        W25937   2.049   0.229   0.988 -0.1043  0.1663  0.2752
12524W        W25938  15.660  10.247   3.316 -0.1080  0.2111  0.0595
12525W        W25939   4.682  15.544  12.397  0.0061 -0.1144 -0.2924
12526W        W25940  11.484   8.703   4.054  0.0579 -0.1301 -0.1841
12527W        W25941  13.588   4.563  12.304  0.0675  0.2669  0.2164
12528W        W25942   6.446  13.742  13.513  0.2467 -0.3779 -0.2285
12529W        W25943  11.771   0.617  14.571  0.0086  0.0269 -0.0575
12530W        W25944   4.139  11.705  11.593  0.0863 -0.1114 -0.0503
12531W        W25945  10.871   8.479  14.186  0.1130  0.0635 -0.3556
12532W        W25946  15.717  15.260   5.003 -0.1605 -0.1369 -0.0791
12533W        W25947   6.890  12.014  15.842 -0.0874  0.1894  0.0702
12534W        W25948  14.243   5.302  10.571 -0.0745 -0.1690  0.0112
12535W        W25949   7.900  15.937   4.382 -0.0471 -0.0633  0.0205
12536W        W25950  14.034  12.461   3.932  0.1089 -0.0650  0.1113
12537W        W25951  12.494   7.595  14.020 -0.0179 -0.0155 -0.1711
12538W        W25952   5.750  17.843   4.945 -0.0087 -0.1584  0.1662
12539W        W25953   6.306  11.088  14.741  0.0446 -0.0713  0.1461
12540W        W25954   8.468  16.583  14.699 -0.0771 -0.0223  0.2356
12541W        W25955   3.797  17.050   1.616  0.0590 -0.0171  0.2689
12542W        W25956   1.642   7.340   1.299  0.0524 -0.0417 -0.0747
12543W        W25957   1.586   9.167  10.672 -0.0777 -0.0290  0.1554
12544W        W25958  14.629  15.765  12.647 -0.2319  0.1063 -0.0871
12545W        W25959   2.689   3.487  12.390 -0.2525  0.3017 -0.1311
12546W        W25960   5.737   1.672   2.827 -0.0252  0.1470  0.1231
12547W        W25961   8.581   1.300   1.947  0.2501 -0.3501 -0.1657
12548W        W25962   5.408  13.116  13.126  0.0490 -0.0712  0.1268
12549W        W25963  11.624   1.405  16.008 -0.0642 -0.1676  0.0028
12550W        W25964  10.371  13.288   5.374 -0.0024  0.4456 -0.0567
12551W        W25965  10.026   0.053   4.114 -0.2288  0.1268 -0.2842
12552W        W25966   8.046  13.029  11.039 -0.1307  0.1863 -0.0166
12553W        W25967  15.540   8.224   4.339 -0.2694  0.1292 -0.0958
12554W        W25968   3.460  14.878  14.828 -0.1985 -0.1615  0.0276
12555W        W25969   2.970  16.478   4.526 -0.0811 -0.0696  0.1758
12556W        W25970  14.875  17.622  13.988 -0.0931  0.1324 -0.0299
12557W        W25971   3.134  15.453   1.153 -0.1911 -0.0690 -0.0778
12558W        W25972   0.478  14.733   4.959 -0.1484 -0.2113 -0.1936
12559W        W25973   6.499  13.322   4.300 -0.0857 -0.0395  0.1273
12560W        W25974  12.031  10.533   5.931 -0.0013 -0.2580  0.0701
12561W        W25975   4.981   4.096  12.914 -0.0840  0.0869 -0.0746
12562W        W25976   5.531  11.470  12.637 -0.0420  0.0473  0.0235
12563W        W25977  13.196  11.261   5.926 -0.1622 -0.3190 -0.1249
12564W        W25978  15.690   3.477   2.648  0.0521  0.0682  0.0928
12565W        W25979  16.353  10.448   2.641  0.2462  0.1774 -0.0533
12566W        W25980  16.203   4.799  12.595 -0.5261  0.0356 -0.0362
12567W        W25981   4.106  14.016   1.348  0.0510 -0.0417  0.1624
12568W        W25982   4.126  11.811  10.775 -0.1137  0.2883 -0.0491
12569W        W25983  13.856   7.026  13.251 -0.0128  0.1998  0.2292
12570W        W25984   9.648  17.202  15.233 -0.1598  0.0785  0.0652
12571W        W25985  16.735  14.933   2.964  0.1833  0.1638 -0.0047
12572W        W25986  17.657   3.855  12.058 -0.1001 -0.1792 -0.0023
12573W        W25987  12.830  16.023   0.059 -0.0993 -0.0705 -0.0350
12574W        W25988   5.923   0.532  13.633  0.0121 -0.0150 -0.3490
12575W        W25989  13.319  15.250  13.006 -0.0420  0.0076  0.1031
12576W        W25990  17.293   9.118  14.535 -0.1745 -0.0043  0.2105
12577W        W25991  14.264   9.416  16.382 -0.0311 -0.2814  0.0946
12578W        W25992   2.175  10.308  15.815  0.1804 -0.1682  0.0028
12579W        W25993   7.687   3.123  12.861  0.0477 -0.0267  0.3198
12580W        W25994  16.622  15.463  16.209 -0.2047 -0.1768 -0.1516
12581W        W25995  10.279  17.008  14.619  0.0734  0.0050 -0.1523
12582W        W25996  11.327   4.749   2.076  0.0791  0.0542 -0.0867
12583W        W25997   7.372  13.286   1.480  0.1383  0.3135 -0.0273
12584W        W25998   3.463   2.614   3.684 -0.0328 -0.2664 -0.1609
12585W        W25999   5.343   6.964   4.309 -0.4141 -0.1051 -0.1863
12586W        W26000  13.981   2.014  11.767  0.0876  0.1516  0.0553
12587W        W26001  11.957  11.508  13.739 -0.0599 -0.1681  0.1795
12588W        W26002   3.553  15.882   3.402  0.0017  0.2081 -0.1462
12589W        W26003   5.447  13.979  15.812 -0.4513  0.0084 -0.1390
12590W        W26004  17.509   2.693   2.224  0.0329 -0.1016  0.0366
12591W        W26005   9.735  15.225  11.184 -0.1243  0.0638 -0.0513
12592W        W26006   3.006  14.247   2.936 -0.3475 -0.0196  0.3435
12593W        W26007   9.919  11.928   6.895  0.1279 -0.0970  0.0754
12594W        W26008   9.590  13.886  15.201  0.1573 -0.0282  0.1021
12595W        W26009  14.776  13.953   5.936 -0.0054 -0.0643  0.1807
12596W        W26010   1.533  11.884  15.144  0.3972  0.0559 -0.1925
12597W        W26011  15.420   5.407   2.897 -0.1303  0.3362  0.0233
12598W        W26012   7.647   4.409  11.619 -0.0940 -0.0771  0.1926
12599W        W26013  12.006   4.142   5.278  0.0126 -0.2905  0.0758
12600W        W26014   0.561  10.966  15.458 -0.0575 -0.2691 -0.1881
12601W        W26015   1.977  13.372   5.083 -0.3070 -0.1964 -0.1313
12602W        W26016   5.150   9.046   2.752 -0.4148  0.2935  0.3783
12603W        W26017  12.104  14.819   4.163  0.0502  0.1023 -0.2248
12604W        W26018   1.159   6.779  10.864  0.0471 -0.1109  0.2407
12605W        W26019  10.183  13.189   4.404 -0.1586  0.0145 -0.1294
12606W        W26020   1.133   9.475   5.453  0.2320  0.0843  0.1821
12607W        W26021  11.172  11.681  16.291  0.1418  0.0222  0.2297
12608W        W26022  17.200   8.339  15.316  0.0531 -0.1356  0.1830
12609W        W26023   3.324   4.453   1.808  0.2660  0.4918 -0.0193
12610W        W26024   0.089   0.805   2.980 -0.1569  0.0225 -0.2316
12611W        W26025   3.570   5.391   2.951 -0.2964  0.0425  0.2099
12612W        W26026   6.621  15.360   2.135  0.0726  0.1239 -0.0037
12613W        W26027  15.316   8.277  13.965 -0.3958  0.0155 -0.1542
12614W        W26028   0.869   1.227   2.838  0.2152  0.1966 -0.0844
12615W        W26029   0.261   1.890   5.279 -0.0495  0.0706 -0.2360
12616W        W26030  12.013   8.199  16.125 -0.0226 -0.0192 -0.0784
12617W        W26031   0.386  10.089   1.373 -0.1133 -0.2541  0.1656
12618W        W26032   1.602  10.174  14.161 -0.1233 -0.0876 -0.1352
12619W        W26033   7.060   6.905  10.984 -0.1073  0.0115 -0.0081
12620W        W26034  13.227  14.245   4.938  0.2517  0.0966 -0.3071
12621W        W26035   4.735   1.691   1.507 -0.1327  0.0129  0.2793
12622W        W26036   7.005  17.485   0.131  0.1308  0.0246 -0.1207
12623W        W26037  10.870  10.946  12.748  0.2697 -0.2426 -0.1490
12624W        W26038   3.160   6.012  13.135 -0.1362 -0.0637 -0.2061
12625W        W26039  10.004   6.116  13.051  0.1670  0.4182  0.1320
12626W        W26040  11.294  16.494   3.492 -0.1367 -0.0807 -0.0202
12627W        W26041  11.564  11.462  11.015  0.2066  0.1219  0.0077
12628W        W26042  11.290  16.974   3.729  0.0453 -0.4103 -0.2274
12629W        W26043   2.875  11.003   2.162 -0.0949  0.2098 -0.3099
12630W        W26044  11.708   7.889  16.385 -0.1024  0.2582 -0.1943
12631W        W26045  13.654  11.522   5.226 -0.0867  0.1046 -0.1131
12632W        W26046  14.075  12.281   3.228  0.2943 -0.2033 -0.1411
12633W        W26047   0.848  10.346   5.290 -0.0741  0.2230 -0.2359
12634W        W26048  17.432  17.223   1.513 -0.0347  0.1777 -0.3997
12635W        W26049  14.994   8.441  15.540 -0.2198  0.1637  0.4132
12636W        W26050  12.734   9.363  13.473  0.0361 -0.0178  0.2951
12637W        W26051  10.139  17.447  10.392  0.0055 -0.0545  0.1731
12638W        W26052   5.915  14.320   5.064 -0.0067 -0.1783 -0.2359
12639W        W26053   3.545   8.489  11.874  0.0953 -0.1756 -0.1619
12640W        W26054   2.435  17.087   4.121 -0.2335  0.3668 -0.1439
12641W        W26055  12.864  14.239  13.471 -0.1767 -0.2085 -0.0001
12642W        W26056   7.286  14.187   0.440  0.0813 -0.0284 -0.1453
12643W        W26057  12.268  14.563   2.679  0.2031  0.0847 -0.0114
12644W        W26058  11.498  11.729  13.737 -0.3576  0.0378  0.5027
12645W        W26059  11.038  12.758   6.417 -0.1217  0.0284 -0.2124
12646W        W26060   9.109   0.597   2.532 -0.1531  0.0999  0.0316
12647W        W26061  15.618   7.016  11.263  0.0049  0.0130 -0.3119
12648W        W26062   4.378  16.995   2.403 -0.1834  0.1491 -0.0880
12649W        W26063   1.918  13.912  15.112  0.0715  0.0126 -0.0446
12650W        W26064  11.125  15.301   5.417 -0.1478  0.0392  0.1103
12651W        W26065  10.795   2.649  16.488  0.0655 -0.2324 -0.1601
12652W        W26066   7.639   6.082  16.278  0.1528  0.0830 -0.0307
12653W        W26067   7.739   4.177  16.255 -0.0036 -0.0055  0.0691
12654W        W26068   7.842  10.275  13.542  0.2774  0.0563  0.0166
12655W        W26069  14.353   4.772   1.486 -0.1197 -0.1282 -0.2552
12656W        W26070   4.406  11.343   0.698 -0.2009 -0.0136  0.1231
12657W        W26071   3.115   7.346  12.041 -0.1725 -0.0862 -0.1471
12658W        W26072   6.610   7.536  15.620  0.0154  0.2693 -0.0854
12659W        W26073   6.202   6.142   3.908  0.0641  0.0560 -0.0829
12660W        W26074  10.919   0.232   1.264 -0.1056 -0.1240  0.0641
12661W        W26075   5.969   4.607   3.301  0.2544  0.0798 -0.0873
12662W        W26076  10.879  15.302  14.076 -0.0009 -0.0297  0.1158
12663W        W26077   0.329   1.421   1.206 -0.1130  0.1553 -0.1130
12664W        W26078   9.666  16.465   4.400  0.1902  0.0239  0.2719
12665W        W26079  12.806   3.444  11.497 -0.0785 -0.1174 -0.2498
12666W        W26080  12.181   9.774   2.724  0.4106  0.3091 -0.1191
12667W        W26081   1.149   6.207  11.062 -0.1553 -0.1155 -0.3491
12668W        W26082   5.316   6.039   5.503 -0.0892  0.2425 -0.0458
12669W        W26083   6.016  16.559   0.321 -0.1464 -0.3752 -0.0145
12670W        W26084   8.609   7.136  15.613  0.0440 -0.1455  0.0202
12671W        W26085  16.084  15.727   1.668  0.1109 -0.0072  0.0218
12672W        W26086   4.197  10.115   0.674 -0.2140  0.0806  0.1681
12673W        W26087   8.768   3.402  12.354  0.0284 -0.0694  0.0725
12674W        W26088   2.068   7.008  14.992  0.0488  0.1476  0.1564
12675W        W26089   3.300  15.602  11.732  0.0572  0.0711  0.1760
12676W        W26090   9.884  16.435   5.702 -0.0528 -0.0319 -0.1050
12677W        W26091  14.748   7.023   3.974 -0.0372  0.0281  0.2444
12678W        W26092   5.217  14.872   3.990 -0.3093  0.0029  0.0151
12679W        W26093  15.838   4.097  13.608  0.1005  0.1064 -0.2154
12680W        W26094   1.957   7.957  11.860 -0.1573 -0.0196 -0.2259
12681W        W26095  14.656  11.650   1.406 -0.1693  0.1421 -0.0140
12682W        W26096  15.951   3.646  13.836  0.0806 -0.1110 -0.3383
12683W        W26097   3.736   5.864   3.144  0.0314  0.0370 -0.3130
12684W        W26098  10.278  13.813  15.682  0.0079 -0.0908 -0.1474
12685W        W26099  11.879  13.877   6.828 -0.0133 -0.1588 -0.0423
12686W        W26100   9.336  11.712  12.843 -0.1392 -0.1504  0.0600
12687W        W26101   9.743   6.569   0.126  0.2866 -0.0400 -0.0376
12688W        W26102   9.291   0.770   3.387  0.0171  0.1087 -0.0912
12689W        W26103  13.154  10.549   1.346 -0.3558 -0.4088  0.0576
12690W        W26104  13.213  11.688  13.917  0.1514  0.4389  0.0783
12691W        W26105   3.148   2.705  14.172 -0.2671  0.1587  0.3721
12692W        W26106   2.678   8.539   5.917 -0.1778 -0.1356 -0.1189
12693W        W26107   8.437  11.289  14.475  0.1814  0.0471  0.2504
12694W        W26108   4.170   3.843  13.371  0.2079 -0.0515 -0.1295
12695W        W26109  17.043   2.571  16.460 -0.0320 -0.0077  0.1331
12696W        W26110   2.041   8.078   2.102  0.0598 -0.1652  0.0493
12697W        W26111   7.153   1.182  14.212 -0.2411 -0.0115 -0.3598
12698W        W26112  16.623  11.969   2.823 -0.1842  0.1338  0.0666
12699W        W26113  14.144  13.187  14.698 -0.1508  0.0822 -0.2866
12700W        W26114  14.042  15.873  13.794  0.1380 -0.1304  0.1790
12701W        W26115  13.970   4.601   2.242 -0.0566  0.1940 -0.1906
12702W        W26116   9.747  17.355  13.573  0.0938  0.0368 -0.0004
12703W        W26117   5.434   2.187   1.947  0.1940 -0.2855  0.0733
12704W        W26118  11.011  15.304   6.310  0.3498  0.4192  0.2524
12705W        W26119  17.378  17.414   0.701 -0.0587 -0.0040 -0.0068
12706W        W26120   3.581   2.249   4.692  0.0425  0.0354  0.2041
12707W        W26121  11.238   0.143   4.899  0.0912  0.0793  0.3141
12708W        W26122   3.413   6.455  12.275 -0.0077 -0.1543  0.2505
12709W        W26123   4.847   5.794   4.202  0.2981 -0.0281 -0.1492
12710W        W26124   0.457  12.312  15.154  0.0853 -0.0389 -0.2516
12711W        W26125   3.410  11.228  15.384 -0.2020  0.0445 -0.0567
12712W        W26126   6.474   3.095   4.317 -0.2587  0.3113  0.0784
12713W        W26127   5.482   7.301   0.817  0.1475 -0.1313 -0.1609
12714W        W26128  10.717   1.727  10.472  0.0723  0.0525  0.1322
12715W        W26129  13.382  12.933   1.009  0.1085 -0.0451  0.0797
12716W        W26130   9.597   9.460  12.500 -0.0917  0.0718 -0.1131
12717W        W26131   6.370  16.798   3.212 -0.0787  0.1528  0.0094
12718W        W26132   5.297  16.632  15.363 -0.0568 -0.0093  0.2085
12719W        W26133   8.412   0.301  12.696  0.0921 -0.0270  0.1784
12720W        W26134  14.505   3.969   3.341  0.1593  0.2716 -0.1194
12721W        W26135   5.288   9.141  12.925  0.2109 -0.0626 -0.2450
12722W        W26136   5.263  15.047   5.482 -0.2207  0.0565  0.0030
12723W        W26137   6.923  12.770   5.327  0.0495 -0.0438  0.0062
12724W        W26138  12.001  16.574   4.990  0.1759 -0.0368  0.0019
12725W        W26139   4.582  16.605  16.491  0.0867  0.2716 -0.0193
12726W        W26140   7.836  16.030   4.911 -0.4827 -0.2611 -0.0558
12727W        W26141   1.069  16.930  11.664  0.1042 -0.2118  0.2013
12728W        W26142  12.126  16.467  13.282 -0.1576  0.0985 -0.0887
12729W        W26143  13.215  16.807   0.038  0.2341  0.0970 -0.1515
12730W        W26144  14.413   4.222   1.494  0.2430 -0.0768 -0.0059
12731W        W26145   6.755  14.326   4.501 -0.2484  0.3819  0.3519
12732W        W26146  11.066  17.114   4.631 -0.0045  0.0843 -0.1817
12733W        W26147   0.297   3.764   1.830  0.2270 -0.1722 -0.1341
12734W        W26148  15.956   7.518   0.011 -0.2187  0.0554  0.0317
12735W        W26149  15.776   0.447   2.885 -0.1264 -0.2174 -0.1491
12736W        W26150   9.713  17.774   3.040 -0.1598 -0.1845  0.0534
12737W        W26151   9.281  14.224   6.016  0.1381  0.0446 -0.2293
12738W        W26152   2.266   8.387  15.204  0.0573  0.3095  0.0233
12739W        W26153  12.399   5.950   5.324 -0.1196 -0.0435 -0.2344
12740W        W26154   9.838   2.536   0.035  0.0428 -0.0398  0.1801
12741W        W26155   3.252   8.211  16.091 -0.0835 -0.0504  0.1627
12742W        W26156  11.977   9.291  16.103 -0.0454  0.1497 -0.2177
12743W        W26157  10.383  10.616  15.676 -0.0735  0.2737 -0.0651
12744W        W26158  14.276  16.382  12.409 -0.0318  0.1252  0.1665
12745W        W26159   1.783  15.828  11.140 -0.1039 -0.0570 -0.0559
12746W        W26160   2.539  15.017  11.648  0.1009 -0.3844  0.2225
12747W        W26161  14.954  10.788   2.401 -0.0459  0.2513 -0.2000
12748W        W26162   7.388   3.417   5.176  0.1644 -0.0512 -0.0921
12749W        W26163  12.241   6.297   6.812  0.0833 -0.0356 -0.0550
12750W        W26164   8.428   4.001   1.911  0.0719 -0.3876  0.1420
12751W        W26165   2.153  13.158  10.235  0.0230  0.0155  0.4614
12752W        W26166   2.913   9.179  14.522 -0.4359  0.1014  0.0838
12753W        W26167  14.344   3.008  13.724  0.1608 -0.3649  0.1978
12754W        W26168  12.842   8.722  13.021  0.1155  0.3576  0.0325
12755W        W26169   4.556  17.331  11.807 -0.0393 -0.1894 -0.0600
12756W        W26170  10.669   8.061  13.821  0.0290 -0.0074 -0.0848
12757W        W26171  11.753  10.809   5.632  0.1084 -0.0773  0.1640
12758W        W26172   4.719   5.527  10.840 -0.0988 -0.1125  0.1220
12759W        W26173  16.415  16.085   3.082 -0.0284  0.0216  0.3197
12760W        W26174  12.239   8.525   4.762  0.1296 -0.0137  0.2162
12761W        W26175  17.553   8.190  14.927  0.0250 -0.1623  0.0104
12762W        W26176   0.524  13.564  13.542  0.1003 -0.0404 -0.2925
12763W        W26177  15.980   1.016  13.092 -0.1264  0.2041 -0.3280
12764W        W26178   3.260   8.160   5.543 -0.0566  0.0413 -0.1786
12765W        W26179  12.678  15.592  14.737  0.2318  0.0489  0.3815
12766W        W26180   4.208   7.872   4.061  0.3494 -0.0194 -0.2654
12767W        W26181  16.844   4.302  16.654 -0.2510 -0.3070  0.1048
12768W        W26182   2.206  11.338   2.791 -0.1593 -0.0610  0.2076
12769W        W26183   8.929   0.418   1.286  0.1614 -0.0549  0.2412
12770W        W26184  16.237  12.070   5.769  0.1313  0.0933 -0.0040
12771W        W26185   0.650   5.724  13.133  0.3211  0.2766  0.1590
12772W        W26186   7.121   5.799  11.210  0.0352 -0.4625  0.1888
12773W        W26187   6.815   3.433   5.742 -0.2466  0.2393 -0.0076
12774W        W26188   0.883   4.065   0.766 -0.0627  0.0610 -0.0195
12775W        W26189   3.494   4.982  13.914  0.1580  0.0842  0.0616
12776W        W26190  14.441  17.624  15.952  0.3288  0.0904  0.1962
12777W        W26191  12.468  17.772   1.702  0.3229 -0.1247  0.1959
12778W        W26192  10.718  14.942  13.671  0.0240  0.2433 -0.1020
12779W        W26193  12.824   0.165   1.844  0.1619 -0.1886  0.0864
12780W        W26194  17.575  13.555  11.834 -0.0806  0.0628  0.2890
12781W        W26195   2.870   5.057   0.382 -0.2751  0.1374  0.1664
12782W        W26196   8.516   4.587   0.375  0.0015  0.1583 -0.1715
12783W        W26197   9.582  12.167   1.619 -0.1116 -0.0111 -0.0900
12784W        W26198  11.021   2.712   0.169 -0.1068  0.3491 -0.2162
12785W        W26199   0.607  17.711   0.740 -0.1844 -0.0023 -0.1333
12786W        W26200  15.789   7.405  15.950 -0.3432  0.1995 -0.3286
12787W        W26201  10.347  16.813   3.336 -0.2661 -0.1879  0.0637
12788W        W26202   1.358   7.358  13.030 -0.0419  0.0895 -0.1008
12789W        W26203   0.654   8.301  13.780 -0.1441  0.0697 -0.1774
12790W        W26204  17.946   8.455  14.085 -0.2726 -0.2953  0.2094
12791W        W26205  12.804  13.739  15.717  0.0330 -0.1115 -0.0707
12792W        W26206  13.476   7.659  11.813 -0.1109 -0.1587 -0.0191
12793W        W26207  15.246   5.070   1.026  0.0257 -0.1007  0.3111
12794W        W26208  16.290   1.297  14.407 -0.0636  0.0839  0.1603
12795W        W26209  11.440   4.096   5.687  0.2021  0.1547  0.4116
12796W        W26210   5.196   3.205   4.972 -0.2473  0.3458  0.0060
12797W        W26211  16.157  15.697  14.354  0.3850  0.0055  0.1849
12798W        W26212  13.166  15.113   2.661 -0.3656  0.2389  0.1146
12799W        W26213   6.892  17.002   2.470 -0.0239 -0.0834  0.0288
12800W        W26214   6.513  15.771   2.652 -0.0319 -0.0729  0.1364
12801W        W26215   5.969   2.205  16.759  0.1888 -0.1943  0.1014
12802W        W26216  15.276   0.447  14.967 -0.1766  0.1237 -0.2236
12803W        W26217   7.601  16.013   1.514 -0.0823  0.4229  0.1353
12804W        W26218  10.371  10.622  13.531 -0.0212  0.1829  0.1105
12805W        W26219   3.951   8.341   6.252  0.0150  0.0223 -0.1572
12806W        W26220  17.991  16.195  15.435 -0.2824 -0.3105 -0.0039
12807W        W26221   6.249   0.274   6.003  0.0368 -0.0699  0.4705
12808W        W26222  11.777   8.596   2.207  0.1814  0.1433  0.1672
12809W        W26223   4.176  16.905  15.024 -0.2803  0.0601  0.3979
12810W        W26224  13.799   6.388  11.040 -0.1959 -0.1408 -0.1681
12811W        W26225   3.697   8.397  12.520  0.0102  0.0408  0.1072
12812W        W26226  15.813  14.487   1.904 -0.0771  0.0883  0.0204
12813W        W26227   4.889   5.664   2.175  0.1001 -0.0002 -0.1414
12814W        W26228  14.611   5.076   1.773  0.0182  0.1833  0.2031
12815W        W26229   3.345  13.139  12.777 -0.3752  0.3155 -0.1571
12816W        W26230  11.131   2.975  12.122  0.0268 -0.1100 -0.0996
12817W        W26231  14.379   1.441  11.321  0.0036  0.1458 -0.3659
12818W        W26232  12.961   1.173   3.684  0.2485 -0.1926 -0.0493
12819W        W26233  10.690  14.725   1.649 -0.0467 -0.0479  0.0720
12820W        W26234   2.019   3.583   5.351 -0.0451 -0.1040  0.2668
12821W        W26235  14.131   7.122  11.114  0.0059 -0.2366  0.1936
12822W        W26236  15.095  16.998   6.588 -0.0630  0.0914  0.3047
12823W        W26237   9.346   8.365   6.519 -0.2493  0.0712 -0.4297
12824W        W26238   8.937  11.188   4.170 -0.0603  0.0271  0.3483
12825W        W26239   0.719   6.493  11.037  0.0443  0.0968  0.1819
12826W        W26240   0.980   0.974  16.632 -0.3184  0.2266 -0.2606
12827W        W26241  11.940   7.526   4.466  0.1239 -0.2017 -0.1011
12828W        W26242  13.892  12.913  16.099  0.1464  0.0459 -0.3366
12829W        W26243   2.106   7.588   5.836 -0.0435 -0.1345 -0.0016
12830W        W26244   0.627  13.677   2.592  0.2830  0.1284  0.1107
12831W        W26245   5.235  14.063  10.807  0.0527  0.4377 -0.2758
12832W        W26246  11.128   9.527  16.737  0.0175 -0.3417 -0.0296
12833W        W26247  11.217   8.297   4.414 -0.2754 -0.0200  0.0692
12834W        W26248  14.243   4.946  16.380 -0.3706 -0.2251 -0.0292
12835W        W26249  17.711   5.124  12.328  0.0815 -0.5038  0.0174
12836W        W26250  17.150  11.342  12.785  0.2454 -0.0087  0.1580
12837W        W26251   1.673  10.181   5.747 -0.3859 -0.0481  0.1428
12838W        W26252   3.921  11.106   5.881 -0.2082 -0.4643 -0.0427
12839W        W26253   9.969   8.962  14.741 -0.0829  0.2085  0.1737
12840W        W26254   8.526  13.219   4.016  0.1230  0.1151  0.2015
12841W        W26255   0.146  12.741  15.854  0.0532  0.0671 -0.1801
12842W        W26256   9.122   5.165   5.070  0.3836 -0.1229 -0.0137
12843W        W26257  17.351   8.973   4.572 -0.1287  0.0304 -0.0842
12844W        W26258   1.391   4.167   0.966  0.2654 -0.0039  0.1329
12845W        W26259   0.211  15.767   5.815 -0.2954  0.3761 -0.0475
12846W        W26260   8.867  11.194   6.417 -0.1501 -0.1010 -0.0411
12847W        W26261  16.938   0.889  15.122  0.1510  0.2213  0.4022
12848W        W26262   2.431  15.707  10.391 -0.1759  0.0587 -0.2770
12849W        W26263  17.654   1.519  16.370 -0.0408  0.1355 -0.1739
12850W        W26264   8.936   2.360   5.153  0.0826  0.2579  0.4776
12851W        W26265  12.708   4.048   5.407  0.0620 -0.0548  0.1686
12852W        W26266   9.955  17.509   0.191 -0.0442 -0.1585 -0.2947
12853W        W26267  17.846   7.102  11.167 -0.0442 -0.1904  0.1782
12854W        W26268   9.504   8.679  14.708 -0.0179  0.1985  0.3909
12855W        W26269  10.205  17.430  15.932  0.0561 -0.1325 -0.1144
12856W        W26270  17.218   8.853   2.890 -0.0540 -0.2496 -0.1529
12857W        W26271  11.737   6.507   3.513 -0.0398  0.3015  0.0159
12858W        W26272   2.734  10.360  13.644 -0.3207 -0.2774 -0.0358
12859W        W26273   5.421  10.312  15.648  0.1248 -0.1105  0.0202
12860W        W26274  17.189  10.068  13.072 -0.0732  0.0907 -0.0499
12861W        W26275  15.495  13.596  15.220 -0.2084  0.1103 -0.1287
12862W        W26276  14.447  14.577   4.864  0.1145 -0.1049 -0.1266
12863W        W26277  11.363   6.949  10.748 -0.1488 -0.2274  0.1333
12864W        W26278   3.050  12.549   1.655 -0.1446 -0.0390 -0.0724
12865W        W26279   1.697   6.601   4.037  0.2354 -0.1695 -0.2404
12866W        W26280   0.800   0.907   3.589 -0.1462  0.0227  0.0468
12867W        W26281  10.978  15.356  15.903 -0.0122  0.0318 -0.4661
12868W        W26282   7.619  11.861  16.411 -0.0905  0.0633  0.1127
12869W        W26283   0.658   0.219  16.535 -0.2769 -0.2085 -0.0125
12870W        W26284  11.586  13.184  14.966 -0.1224 -0.4647  0.2040
12871W        W26285   1.473  17.008  15.795 -0.0186  0.0297  0.0653
12872W        W26286   0.008  14.952   1.581  0.2741  0.0050 -0.0796
12873W        W26287  15.482  16.966  15.132  0.1911  0.1968  0.0931
12874W        W26288  10.718   9.885   0.828 -0.0657 -0.0348  0.2003
12875W        W26289  10.740   0.254  14.360  0.1931 -0.1042 -0.3617
12876W        W26290  13.120  15.185   0.855  0.0780  0.1628  0.2212
12877W        W26291  13.409  16.635  12.815  0.1492 -0.1027  0.1782
12878W        W26292  10.561   4.839  12.212  0.1351 -0.1225 -0.1122
12879W        W26293   8.552   0.205   0.344 -0.0375 -0.1925 -0.2104
12880W        W26294   3.950   3.289   5.418  0.1203 -0.1250  0.0123
12881W        W26295   6.544   7.096  10.278  0.0815 -0.1218  0.0570
12882W        W26296  10.216   0.499   0.064  0.2021 -0.0738  0.0697
12883W        W26297   7.827   2.622   5.466  0.0195 -0.1912  0.3008
12884W        W26298  13.832  13.581   1.653 -0.2339 -0.1651  0.0851
12885W        W26299  10.089   2.456  12.476 -0.1229 -0.2812  0.0383
12886W        W26300   8.058   3.799   1.596 -0.2083 -0.0481 -0.0947
12887W        W26301   5.567   2.619  15.567 -0.4352 -0.2109 -0.0736
12888W        W26302   5.357   5.021  12.681 -0.0053 -0.1928  0.1428
12889W        W26303  14.276   2.830   0.114 -0.1541  0.1650 -0.1680
12890W        W26304  10.040  12.100   1.886  0.1573  0.3701 -0.1398
12891W        W26305  16.246   9.273  12.002 -0.4617 -0.0521  0.2810
12892W        W26306   3.573   2.415   4.143  0.1587 -0.0495 -0.1332
12893W        W26307  17.898   9.648   4.737  0.3468 -0.0530  0.0536
12894W        W26308   7.722   5.823  12.171 -0.2528 -0.0683 -0.1523
12895W        W26309  13.262   6.953  16.224 -0.1835 -0.2154 -0.0954
12896W        W26310   3.075   1.223   3.039 -0.0342  0.0503  0.0116
12897W        W26311   4.022  13.157  16.041 -0.0681  0.0279 -0.1035
12898W        W26312   3.586  14.910  15.805  0.5162 -0.1023  0.4763
12899W        W26313   1.505  16.143  10.766  0.1155  0.0287  0.0688
12900W        W26314  16.981   3.784   1.812 -0.0085 -0.1428  0.2318
12901W        W26315   4.962   3.858  13.393 -0.0773 -0.0877  0.0875
12902W        W26316   4.539  16.095   0.905  0.1635  0.2181  0.4509
12903W        W26317  16.973   2.154  11.544 -0.0970  0.1071  0.0136
12904W        W26318  13.271   2.317  12.390 -0.1169 -0.0477  0.1589
12905W        W26319  13.244   5.329   4.096 -0.0314  0.1200 -0.1624
12906W        W26320   3.403   4.640  13.226  0.2392 -0.0706  0.3211
12907W        W26321   6.547   1.846   0.937  0.0939 -0.2270 -0.1933
12908W        W26322  12.790  15.873   6.146  0.2051 -0.1018 -0.0356
12909W        W26323   8.967  13.743  12.262 -0.0567 -0.0025 -0.2634
12910W        W26324  13.061  11.137  11.416  0.1814  0.0387 -0.0407
12911W        W26325  10.836   6.671   3.109  0.0530  0.0749  0.1660
12912W        W26326  12.582  15.511  15.248 -0.0220  0.1821  0.3404
12913W        W26327   9.414   2.326   0.840  0.0687  0.0702  0.0888
12914W        W26328  13.230  13.693   2.569 -0.1583 -0.0874 -0.0611
12915W        W26329   1.952   9.669   4.922 -0.2130 -0.1848 -0.3124
12916W        W26330   0.689   1.326  11.327 -0.2411  0.1036 -0.1685
12917W        W26331  17.722   0.749   0.214  0.1124 -0.1620  0.0319
12918W        W26332   8.330   2.328   4.641 -0.2740  0.1131  0.0529
12919W        W26333  15.244  12.306  13.764 -0.2240  0.0554  0.1786
12920W        W26334   4.385   5.203   4.187 -0.0781 -0.1086 -0.4594
12921W        W26335  10.342   3.203   0.560  0.1247  0.0118  0.0242
12922W        W26336  11.502  16.735   5.201  0.2314 -0.1883 -0.1027
12923W        W26337  11.632   6.420  12.358 -0.2755 -0.0968  0.3440
12924W        W26338   9.241  12.940  14.307  0.1244  0.0269  0.0795
12925W        W26339  11.221   5.154  11.638  0.0118 -0.1268  0.0241
12926W        W26340   7.290  14.038  10.618 -0.2893 -0.2350 -0.0405
12927W        W26341   1.548   4.977  12.137  0.0258  0.0206 -0.2066
12928W        W26342   4.656   2.374   4.969  0.2753 -0.1514 -0.4533
12929W        W26343   9.988  11.593  12.199  0.2204 -0.0560  0.0177
12930W        W26344   4.422   5.675  12.197  0.0819 -0.2105  0.2225
12931W        W26345  15.120   6.907  15.722  0.2532  0.0655 -0.1439
12932W        W26346   0.763   2.107   5.396 -0.0126 -0.3947  0.0706
12933W        W26347  16.937   8.267  11.065  0.1527 -0.3079  0.2687
12934W        W26348   4.429   2.570   1.175  0.0625 -0.1590  0.2897
12935W        W26349  12.406   8.656  10.759  0.0665  0.2256 -0.1779
12936W        W26350  13.720   7.036  12.736  0.2378 -0.0544 -0.1574
12937W        W26351  14.956  13.528  16.124  0.2539 -0.2447  0.0012
12938W        W26352  15.379   5.661   3.953  0.1554  0.0025 -0.4073
12939W        W26353   2.781  11.297  16.565 -0.1584 -0.0108 -0.1837
12940W        W26354   9.485   0.116   5.585 -0.2384  0.1753 -0.1090
12941W        W26355   7.124   6.339  14.867  0.1618 -0.1105  0.1335
12942W        W26356   3.296  10.192   2.323  0.2897  0.0999 -0.1166
12943W        W26357  14.929   2.745   3.874  0.0530  0.0318 -0.1446
12944W        W26358  14.578   7.224  11.919  0.0147 -0.1924  0.0160
12945W        W26359   2.856   9.018  15.608 -0.1503  0.2280  0.3410
12946W        W26360   3.679   4.263  14.525  0.2030  0.1930 -0.0365
12947W        W26361  17.504  11.426   2.568  0.1955  0.3123  0.2727
12948W        W26362   3.860  12.051   2.779 -0.2287  0.1360 -0.1015
12949W        W26363   8.332  13.470   2.931  0.1149  0.0225 -0.4032
12950W        W26364  10.046   7.044  16.596  0.2055  0.2226 -0.1581
12951W        W26365   2.689  15.542   5.345  0.1095 -0.0086  0.0663
12952W        W26366   7.788  14.854   3.752  0.0410  0.1119 -0.0466
12953W        W26367  14.137  15.896   3.249 -0.1835 -0.0152 -0.1050
12954W        W26368   7.585  12.972   2.671 -0.2756 -0.1827  0.1946
12955W        W26369  10.600  10.187  13.754  0.0576 -0.4152 -0.1249
12956W        W26370   0.096   8.682  14.518  0.0329 -0.0574  0.0358
12957W        W26371  16.430  10.792   1.728 -0.2638 -0.1284 -0.0249
12958W        W26372   5.823  15.929  14.707 -0.0262  0.1086 -0.0756
12959W        W26373   2.971  17.405   2.434  0.0498 -0.0530  0.0602
12960W        W26374  16.398   0.063  15.709  0.3112 -0.0772  0.1401
12961W        W26375  11.120   1.375  14.421 -0.0862 -0.0946 -0.1543
12962W        W26376  17.476   8.062  12.533 -0.2905 -0.0084 -0.2416
12963W        W26377  15.535  11.702  14.227 -0.0079  0.1884  0.0332
12964W        W26378   1.063   4.530  14.964  0.2188 -0.2478  0.3584
12965W        W26379   6.309   5.789   1.068 -0.0529  0.2095  0.0724
12966W        W26380   6.335   9.193  13.105  0.1264 -0.0231 -0.1654
12967W        W26381  16.539  15.134  11.956 -0.1226 -0.3571  0.3203
12968W        W26382  17.075   7.627  12.186  0.1342 -0.1878 -0.0988
12969W        W26383   2.864  17.056   0.559 -0.3854  0.0213 -0.1207
12970W        W26384  15.136   6.120  14.454  0.1762 -0.0180  0.0799
12971W        W26385   4.674   1.801   4.899  0.0365  0.2422 -0.0703
12972W        W26386  13.652   2.998   4.499 -0.0874  0.0534 -0.0805
12973W        W26387  16.106   9.264   3.295  0.0937 -0.0577  0.1316
12974W        W26388   4.519   1.389   3.559 -0.1882 -0.0025 -0.2506
12975W        W26389   2.999   0.162   1.993  0.0391 -0.1151  0.0426
12976W        W26390  17.627  17.489  15.973 -0.0775 -0.1674  0.2870
12977W        W26391  17.157   0.397   4.572  0.2225 -0.0496 -0.1774
12978W        W26392  17.337  14.751  10.495 -0.2445  0.0507  0.2073
12979W        W26393  10.507   5.949   0.223  0.2581 -0.1750  0.1707
12980W        W26394   6.648  16.977  12.375  0.0222  0.1346 -0.0182
12981W        W26395   0.213   0.764  14.238 -0.1629 -0.0177 -0.2324
12982W        W26396   1.768   1.402  15.637  0.1667 -0.1136 -0.1048
12983W        W26397   4.458  12.014  14.405  0.2505  0.2947  0.0466
12984W        W26398   7.082  12.519   6.698  0.1674  0.1720 -0.0827
12985W        W26399   1.176   3.684   1.777 -0.1359  0.2797 -0.2650
12986W        W26400   9.721   0.081  11.444  0.0615  0.2300 -0.0204
12987W        W26401  16.838   0.208   2.376  0.1007  0.1907  0.1700
12988W        W26402  14.024   9.810  14.196 -0.1460  0.4064  0.0122
12989W        W26403   0.730   1.900  14.265 -0.1131  0.3116  0.1455
12990W        W26404   0.376   7.346  13.685  0.4843 -0.2736  0.0474
12991W        W26405   4.809  15.764  13.014 -0.1279  0.2116 -0.0483
12992W        W26406  14.844   6.941   4.626 -0.2459  0.0198 -0.0692
12993W        W26407   2.140   1.560   5.904 -0.1190  0.1094 -0.0208
12994W        W26408   6.955   9.767  13.594 -0.1610  0.1250  0.1335
12995W        W26409  12.479   0.518   2.917 -0.0749  0.0521 -0.1688
12996W        W26410   6.263   6.595  15.384 -0.1801 -0.0919  0.2369
12997W        W26411   1.449   4.065  10.732 -0.2476 -0.2965 -0.1652
12998W        W26412  12.237  14.582   3.436  0.4385 -0.1336 -0.0894
12999W        W26413  17.998   2.757  13.850 -0.1436 -0.3549 -0.1011
13000W        W26414  10.707   3.643   4.570 -0.1185 -0.0926  0.1241
13001W        W26415   3.145  15.600   2.200  0.1387 -0.1058 -0.2117
13002W        W26416  15.653  14.505  11.539  0.3029  0.0097  0.1319
13003W        W26417   6.537   7.955   1.649 -0.3069 -0.0021 -0.0492
13004W        W26418   8.904  11.453   2.620 -0.3795  0.0199 -0.0825
13005W        W26419  15.398   2.738  10.377 -0.2248 -0.0390  0.0487
13006W        W26420   7.741   7.974  11.547  0.0120  0.1344  0.2327
13007W        W26421  11.793   8.881  12.832  0.1183 -0.0301 -0.1161
13008W        W26422  10.396  10.294  15.257 -0.1769  0.2606  0.0712
13009W        W26423   5.339  17.455  10.826  0.3769 -0.1363 -0.3271
13010W        W26424   7.820   0.533  14.095  0.1824 -0.1331 -0.1809
13011W        W26425  17.245  15.186   2.164  0.5054  0.0430  0.0996
13012W        W26426  17.931  15.193  11.104  0.0846 -0.0431 -0.0574
13013W        W26427  17.276   9.946   4.156  0.0346 -0.0590 -0.0567
13014W        W26428  15.084   0.921  12.785 -0.0985 -0.0030  0.0891
13015W        W26429  17.208  16.209  11.280  0.0430  0.1893  0.1950
13016W        W26430   0.358   1.941  11.861 -0.1265  0.4041  0.3215
13017W        W26431   6.108   2.669   4.333 -0.0638  0.0008 -0.2876
13018W        W26432   0.468   8.269  16.194 -0.1098  0.1355  0.0317
13019W        W26433   7.414   8.457  13.216  0.1646 -0.2664 -0.0091
13020W        W26434   4.611   1.285   1.257 -0.2063  0.2617  0.0225
13021W        W26435   0.736   7.722   1.962 -0.2588 -0.0041 -0.2723
13022W        W26436  14.145  10.925  13.542 -0.0178 -0.1593  0.0164
13023W        W26437   4.325   0.682   3.222 -0.5134  0.1556 -0.2111
13024W        W26438   3.921   1.604  11.184  0.3104  0.5058  0.0339
13025W        W26439   5.469   6.282   0.808 -0.1286 -0.3306 -0.1744
13026W        W26440   3.108   7.193  13.521 -0.0985  0.1518  0.0886
13027W        W26441  10.286   8.400   6.060  0.2997  0.1689 -0.3286
13028W        W26442   8.265   5.534   1.943  0.3458 -0.0976  0.2281
13029W        W26443  13.639   1.764   3.297  0.2401  0.1842 -0.0386
13030W        W26444   7.579   8.286   1.035 -0.0030  0.2798  0.1139
13031W        W26445  11.845   7.390  15.063 -0.0162 -0.0912  0.2006
13032W        W26446  12.834   0.868   0.380  0.0033  0.1809  0.1057
13033W        W26447   0.761  14.514  16.377 -0.0075  0.0756 -0.0478
13034W        W26448   5.961   1.548   4.043  0.0957  0.0195 -0.1887
13035W        W26449  10.332   7.276  12.639  0.2515  0.0319  0.0330
13036W        W26450   6.760   8.995  11.440 -0.1572 -0.2366  0.0482
13037W        W26451   1.341  16.691  16.733 -0.3421 -0.2034 -0.1455
13038W        W26452   2.597   8.873   4.820 -0.0048  0.1538  0.1572
13039W        W26453  15.731  12.464  10.778 -0.2996  0.4707 -0.1453
13040W        W26454  17.022  16.381  12.447 -0.1631 -0.2327  0.1122
13041W        W26455   3.480   1.930   2.181  0.1515  0.1011 -0.2392
13042W        W26456  17.316  17.629  13.471  0.0847 -0.2339 -0.2137
13043W        W26457   5.776  16.654   1.945 -0.1022 -0.3247  0.1432
13044W        W26458   9.069   9.640   5.896  0.0254 -0.0496 -0.3607
13045W        W26459  16.837   5.007   0.991 -0.0065 -0.1991  0.1535
13046W        W26460   7.944   9.953  15.173  0.0898  0.2333  0.1869
13047W        W26461  14.028  10.701   2.345  0.1698  0.0605  0.0499
13048W        W26462   9.690  13.518   2.825 -0.3126 -0.2965  0.0008
13049W        W26463  14.742  14.626  14.730  0.1262  0.1542 -0.0026
13050W        W26464  15.938  17.122  13.528 -0.0440  0.0670 -0.0449
13051W        W26465  10.965   8.375   3.448  0.0662  0.0266  0.0663
13052W        W26466   0.416  16.142   0.524 -0.2673 -0.2863 -0.1263
13053W        W26467   6.862   1.598   0.239 -0.4035 -0.2309 -0.2889
13054W        W26468   1.592  12.180   4.065  0.0618 -0.1325 -0.1486
13055W        W26469   9.614   8.024  14.112  0.1057  0.2529 -0.0997
13056W        W26470  12.917   5.503  14.971  0.2783  0.4989 -0.3450
13057W        W26471  16.877  13.702   2.241  0.1947  0.0935 -0.2054
13058W        W26472   0.353   1.963   1.296  0.1732  0.2529  0.0200
13059W        W26473   0.553   3.942  12.153 -0.2298  0.1017 -0.0803
13060W        W26474  14.138   5.521   0.999 -0.0132 -0.2663 -0.0980
13061W        W26475   1.987  12.810  12.620  0.1315 -0.0090 -0.1581
13062W        W26476   4.423   6.992   2.199 -0.2384  0.0405  0.0197
13063W        W26477  17.901  16.903   1.652 -0.0003 -0.2170  0.2152
13064W        W26478  15.533   5.677  11.164  0.4407 -0.3505  0.0659
13065W        W26479   4.055   1.336   1.098 -0.1487  0.1044  0.3805
13066W        W26480   6.812   0.225   0.829  0.0214 -0.1739 -0.1013
13067W        W26481  16.307   8.311  15.217  0.0708  0.1870 -0.2306
13068W        W26482   3.203   2.200  10.491 -0.3106 -0.2329  0.0625
13069W        W26483   9.544  14.797   3.732  0.1353 -0.1819  0.1046
13070W        W26484   7.100  16.416   1.872  0.2806  0.1928 -0.2053
13071W        W26485   9.979   7.527  13.356 -0.2515 -0.2715  0.0874
13072W        W26486   1.911   2.059  13.091 -0.0080  0.2812  0.2561
13073W        W26487  14.214   7.419   1.365 -0.2362 -0.0056 -0.1894
13074W        W26488  11.316   5.746   2.364  0.1450  0.1314  0.1514
13075W        W26489   2.196   9.637  12.698  0.1256  0.0708  0.1647
13076W        W26490  16.455  14.819   2.585 -0.0361 -0.0533 -0.2283
13077W        W26491  16.632   8.444  13.061 -0.0923  0.0561 -0.2034
13078W        W26492  14.657   4.001   0.480 -0.3795 -0.0858  0.2167
13079W        W26493   1.461   8.798  11.539  0.0561 -0.0995 -0.0454
13080W        W26494   8.956  10.521   0.146 -0.1761  0.1124  0.2909
13081W        W26495  13.033  14.611  15.629  0.1391 -0.0194  0.1526
13082W        W26496   3.202   2.421   4.440  0.3123  0.0145  0.1724
13083W        W26497   4.987   4.105   9.849 -0.2345  0.3098  0.1141
13084W        W26498   2.877   2.245  12.946  0.2814  0.0694  0.0318
13085W        W26499  12.551   6.038   3.258 -0.1065 -0.0857 -0.3373
13086W        W26500  13.406   2.525   4.622  0.2149 -0.1341  0.1273
13087W        W26501   0.595  16.555  12.784  0.0150 -0.0208 -0.0790
13088W        W26502  16.856  17.836  13.181 -0.1181 -0.1702 -0.0406
13089W        W26503   2.276  10.656   5.095  0.2319 -0.0190  0.1352
13090W        W26504  12.397  11.650  12.428 -0.1157  0.2462  0.1141
13091W        W26505   3.306   6.818   0.843  0.1116 -0.1410  0.0882
13092W        W26506  11.463   0.300   1.174  0.0818  0.0986 -0.3936
13093W        W26507   9.228  17.005   0.168  0.0325 -0.2816  0.0549
13094W        W26508   1.237  12.255  13.105  0.0519 -0.2792 -0.2013
13095W        W26509  17.440   1.346  13.061  0.0465 -0.4501 -0.0214
13096W        W26510  13.102   3.798  14.504  0.0799 -0.2371  0.0539
13097W        W26511   5.177  15.518  12.593 -0.1249 -0.0570 -0.2690
13098W        W26512  11.995  11.206   5.374 -0.0749  0.0299 -0.4459
13099W        W26513  15.524  15.194   4.460 -0.1843 -0.1132 -0.0006
13100W        W26514   9.644   7.658   1.937 -0.0568  0.0521  0.0690
13101W        W26515  13.866   2.981   1.457 -0.0376  0.1666  0.2565
13102W        W26516   2.481  16.230  12.814 -0.0001 -0.1115 -0.1351
13103W        W26517   6.663   4.632  11.746 -0.0299  0.1909 -0.2578
13104W        W26518   1.530  13.691   1.623 -0.0501  0.0165 -0.0343
13105W        W26519   1.790  13.909   3.677 -0.0668 -0.1843  0.0966
13106W        W26520  17.536  16.520   2.791  0.0418  0.0559 -0.1446
13107W        W26521  15.595   5.907   1.649 -0.2100 -0.0752  0.0763
13108W        W26522   9.182   8.844   0.403  0.0886 -0.0632  0.0331
13109W        W26523   8.269  15.284   3.266  0.1313  0.0287  0.1719
13110W        W26524   2.118   5.520   4.082  0.1924  0.3224 -0.1185
13111W        W26525  15.925   3.009   6.024  0.0900 -0.1907  0.2032
13112W        W26526  12.638   2.057   2.670 -0.1689  0.4257 -0.0105
13113W        W26527   5.375   1.630  11.774  0.1289 -0.0675  0.3070
13114W        W26528  14.747  14.332  12.239 -0.1493  0.3410  0.0581
13115W        W26529  15.257  16.156   2.258  0.0021  0.1082  0.0909
13116W        W26530  15.121  10.725  14.285  0.2299  0.2976 -0.0385
13117W        W26531  14.627   5.027   2.317  0.1756 -0.0912 -0.0809
13118W        W26532   0.024   8.990  15.337  0.0929 -0.1963 -0.2476
13119W        W26533   6.741   1.083  10.937  0.3063  0.3116  0.1343
13120W        W26534   5.832  14.054   4.189  0.0361  0.1627 -0.1533
13121W        W26535   9.512   9.436   1.524  0.4083 -0.0278 -0.1961
13122W        W26536   6.717   7.633   3.578 -0.0627  0.2439 -0.0337
13123W        W26537  13.301  12.314   1.872  0.2357  0.1816  0.1834
13124W        W26538   4.286   1.928  15.949  0.2380  0.0266 -0.0061
13125W        W26539  14.461  15.969  16.521  0.4477  0.1929  0.0012
13126W        W26540  17.537   3.837  11.536  0.0508  0.0094 -0.0831
13127W        W26541  15.138  10.772   1.582  0.1926  0.2678  0.3475
13128W        W26542  10.821   4.502  12.546  0.0191 -0.1636 -0.1317
13129W        W26543   1.721   9.751  11.444  0.1565  0.3256 -0.0664
13130W        W26544   6.615   3.399   1.177 -0.0279 -0.1656 -0.0968
13131W        W26545   7.643   1.007   5.550 -0.0510  0.0906 -0.0471
13132W        W26546  10.111   2.179   2.297  0.2734 -0.2107 -0.0429
13133W        W26547   2.835  17.705  13.719  0.1875  0.2850  0.1060
13134W        W26548   4.418  14.015  13.291 -0.1630  0.1531  0.2601
13135W        W26549   0.234   8.589   4.868  0.0092 -0.1694 -0.0971
13136W        W26550  17.657   6.927   1.062 -0.1531  0.1750  0.1186
13137W        W26551  14.195   4.684  10.680  0.2183 -0.0830 -0.0002
13138W        W26552  12.404  16.880  13.066 -0.1042 -0.0962  0.0455
13139W        W26553  13.166  14.424   3.704 -0.0608  0.1417  0.0019
13140W        W26554   0.819  16.448   1.292  0.1325  0.0164  0.0063
13141W        W26555  12.517   3.743  15.217  0.1354  0.0997 -0.4401
13142W        W26556   6.334   5.670  10.935  0.1460  0.1794 -0.2762
13143W        W26557  10.613  10.594  14.062 -0.2178  0.2028  0.2620
13144W        W26558  16.472   7.729   1.423  0.1627 -0.1062  0.1826
13145W        W26559  13.938  13.195   6.534  0.2798  0.1228  0.2885
13146W        W26560   4.200   3.438  16.394  0.2035 -0.2818 -0.0761
13147W        W26561  13.023  16.956  14.990 -0.0153 -0.0590 -0.3731
13148W        W26562   8.865  10.093   3.046  0.0428  0.1336  0.1442
13149W        W26563   2.195   5.063   4.742  0.0756  0.1009 -0.0010
13150W        W26564   8.147   0.055  11.557 -0.0327 -0.1264 -0.1775
13151W        W26565   0.268   7.537   2.296  0.3919  0.0381  0.1268
13152W        W26566  17.559  10.990   2.831  0.1210  0.0650  0.0508
13153W        W26567  16.991   3.849   3.383  0.0255  0.2098  0.4412
13154W        W26568   2.613  15.160  15.070  0.0817  0.0558  0.1298
13155W        W26569   8.090   1.850  12.332 -0.0833 -0.0694  0.0915
13156W        W26570  12.087  10.462  14.238  0.0384 -0.4458 -0.0876
13157W        W26571  15.762  14.484  16.673  0.4656  0.0545 -0.0130
13158W        W26572  14.367   2.488   2.099 -0.0965 -0.3181 -0.1070
13159W        W26573  16.497   0.952  16.784  0.1318 -0.0361  0.0595
13160W        W26574   5.089  12.764   0.546  0.0855 -0.0208 -0.0996
13161W        W26575   9.614   0.088   6.294  0.0842 -0.0136  0.0923
13162W        W26576   6.058   3.125   5.949 -0.1381 -0.1745 -0.1131
13163W        W26577  15.089  17.199  16.612  0.0763  0.0070  0.0514
13164W        W26578   9.297  12.095   2.044 -0.0645  0.0896  0.0421
13165W        W26579   4.174   6.446   3.683  0.1509 -0.0477  0.2563
13166W        W26580  12.392   4.816   5.741  0.1503  0.1582  0.3346
13167W        W26581  14.370   6.394  11.443  0.3417  0.0359  0.0876
13168W        W26582   4.817  15.583   2.975 -0.1365  0.2413 -0.0390
13169W        W26583  11.713   4.094  11.562  0.0706 -0.0578  0.2151
13170W        W26584   5.309   1.170  10.276 -0.1247 -0.2520 -0.1447
13171W        W26585   0.927  14.964   1.686 -0.0059 -0.2260  0.1880
13172W        W26586   5.088  16.730   2.789  0.0159 -0.0715 -0.2136
13173W        W26587  16.996   7.682  14.079 -0.0444  0.3164  0.0322
13174W        W26588   2.162  11.611  11.425 -0.2400 -0.1193  0.1923
13175W        W26589  12.290  10.419  12.781 -0.0518  0.0592  0.1636
13176W        W26590   8.581   6.973   1.911  0.0662  0.0062  0.0204
13177W        W26591  17.564   4.018  11.081 -0.1575  0.0259 -0.0034
13178W        W26592   0.779   3.602   5.009 -0.3413 -0.0662 -0.1026
13179W        W26593  12.461   8.431  15.963  0.1637  0.1281  0.0167
13180W        W26594  12.286  14.736  11.520 -0.1268  0.2122  0.2728
13181W        W26595  15.369   7.497  16.765 -0.0689 -0.2452  0.0799
13182W        W26596  10.183   7.266  14.209  0.0682  0.1207 -0.2161
13183W        W26597  14.006   7.197  12.395 -0.0459  0.0141 -0.1308
13184W        W26598  12.164   0.944   5.913 -0.1140 -0.1479  0.0605
13185W        W26599  13.470  12.120   0.636 -0.0479 -0.2434  0.2232
13186W        W26600  13.917   9.731   5.850  0.0069 -0.1099 -0.0718
13187W        W26601  17.335  14.070   0.609  0.0983 -0.0527  0.0023
13188W        W26602   2.278   1.364   1.805  0.2676 -0.0912 -0.3335
13189W        W26603  13.594   8.625   1.628  0.0953  0.1226 -0.3233
13190W        W26604   0.878  11.580  14.640  0.2244  0.0811  0.0203
13191W        W26605   1.527  10.528  12.779 -0.0978 -0.1582 -0.1253
13192W        W26606   1.103  11.247   1.988  0.0671 -0.0266  0.1576
13193W        W26607  15.849  11.743  13.661  0.0772 -0.2473  0.1847
13194W        W26608   0.651  14.062   3.667  0.4458  0.2955  0.3059
13195W        W26609  14.210   9.536   4.852  0.0982  0.1165 -0.0271
13196W        W26610   0.876  17.609   4.380  0.1040  0.1129  0.0580
13197W        W26611   5.120   5.221  15.014 -0.4304 -0.1739 -0.1267
13198W        W26612   8.517  17.746   5.406 -0.0261 -0.0244  0.1640
13199W        W26613  14.381   9.504  13.287 -0.0381 -0.0031 -0.2517
13200W        W26614  13.367   8.842  13.134 -0.0670  0.1987  0.0422
13201W        W26615  12.899   9.364   6.662 -0.0107  0.0835 -0.1034
13202W        W26616   0.960   3.486   5.967 -0.0385 -0.2376 -0.1382
13203W        W26617   2.687   5.062   1.674  0.3418  0.1204  0.0905
13204W        W26618  15.246   9.832  12.046 -0.2731  0.3036 -0.3610
13205W        W26619   3.563  15.501  14.247 -0.3439  0.1182 -0.0034
13206W        W26620   3.651   6.498   0.162 -0.0630 -0.0168  0.0106
13207W        W26621  12.287  11.528   4.185  0.1677  0.0404  0.0212
13208W        W26622  17.667   3.855   4.066 -0.0127 -0.0550 -0.0554
13209W        W26623   2.818   1.194   2.584 -0.0322  0.1428 -0.0455
13210W        W26624   3.849   3.442  16.037  0.2204  0.1126 -0.1240
13211W        W26625  15.993   4.146  14.150  0.1779  0.3626  0.1806
13212W        W26626   1.289   1.640   0.392  0.0966 -0.0450 -0.1511
13213W        W26627  11.329   0.826  15.207 -0.1415 -0.1326  0.1512
13214W        W26628  14.540  16.651   2.867 -0.1278 -0.0115 -0.0578
13215W        W26629  13.734   4.022   3.495  0.0396 -0.0082 -0.0091
13216W        W26630   6.662  14.000   5.594  0.0683 -0.0886 -0.1175
13217W        W26631   0.853   5.422   0.761  0.2131 -0.1826 -0.3039
13218W        W26632  13.557   9.101   1.799 -0.1338 -0.3505 -0.2710
13219W        W26633   4.080  17.479  11.877 -0.0511 -0.1199 -0.2474
13220W        W26634   5.982   8.250   5.613  0.0538  0.0373  0.0481
13221W        W26635  17.092  13.726  13.040 -0.3299 -0.3210  0.3237
13222W        W26636  17.218   4.227  15.695 -0.1395  0.2707  0.2310
13223W        W26637   2.746  15.574  16.425 -0.1262  0.0855 -0.1584
13224W        W26638  12.347  17.125  11.224 -0.1313  0.0526 -0.2406
13225W        W26639   6.653   6.345   2.135 -0.0822  0.0770 -0.0529
13226W        W26640   4.029  10.640   5.849  0.0205  0.0870 -0.0408
13227W        W26641   2.986  17.659  12.806  0.0238 -0.1620  0.0570
13228W        W26642  13.330  15.956   6.219  0.0166 -0.1591 -0.0230
13229W        W26643  17.784  17.300  16.594 -0.0545  0.3329  0.1367
13230W        W26644  14.365   0.493  14.857  0.0318  0.0653  0.0014
13231W        W26645  14.743   4.000  10.632  0.3719 -0.1587  0.2319
13232W        W26646   6.515  15.188   0.305  0.0765 -0.0862 -0.0581
13233W        W26647   5.351   5.006   2.541  0.1501  0.3657 -0.3397
13234W        W26648  15.949   2.882   3.668 -0.1242 -0.3314  0.1023
13235W        W26649  11.725   1.051   2.504 -0.3094  0.2336 -0.1964
13236W        W26650  14.664   9.590  12.760 -0.1045  0.2295 -0.0383
13237W        W26651  15.099  15.119   0.957  0.0634  0.1216 -0.1569
13238W        W26652   4.760  16.823  14.423 -0.0827  0.1045  0.2160
13239W        W26653   8.923  11.986   0.891 -0.1051 -0.0405  0.0194
13240W        W26654   8.128  13.934   1.210 -0.3154 -0.0284 -0.0078
13241W        W26655  14.622   1.494  12.733  0.0642  0.1518  0.2673
13242W        W26656   1.605  17.430  16.719  0.0485  0.0677  0.0035
13243W        W26657  10.117  12.300   5.602  0.0306  0.0215 -0.1763
13244W        W26658   2.432  16.731  14.894  0.0768  0.2030  0.1527
13245W        W26659   2.777   0.973  16.163 -0.1449 -0.0462 -0.0612
13246W        W26660   4.534   2.317   1.599  0.0075  0.5004  0.1259
13247W        W26661  17.511  12.969  15.919  0.0636 -0.1162 -0.6001
13248W        W26662   0.674   8.614   1.815 -0.2232 -0.0264 -0.0463
13249W        W26663   5.830  13.015   2.043 -0.0283 -0.2040 -0.1273
13250W        W26664   6.391   0.054  14.001  0.0115 -0.1814  0.0006
13251W        W26665  10.065  16.533  14.832 -0.2570 -0.0637  0.0632
13252W        W26666   4.611  11.705  13.083 -0.0174 -0.0607  0.0271
13253W        W26667   2.422  14.930   2.256 -0.1439  0.0478 -0.1487
13254W        W26668  16.702   6.419  13.087  0.3339  0.0288  0.1667
13255W        W26669   7.581  11.335  14.713 -0.0549  0.2692 -0.3537
13256W        W26670  17.660   6.987  11.739 -0.2557 -0.1457  0.0767
13257W        W26671   5.884  12.809   1.463  0.3028  0.0171 -0.2031
13258W        W26672  10.884   0.021  13.947  0.2056  0.2571  0.0221
13259W        W26673   6.759  11.420   3.591 -0.1179 -0.0834 -0.3096
13260W        W26674   5.021   1.694   5.267  0.1557 -0.0388 -0.0250
13261W        W26675  12.078  14.941   2.404  0.1319 -0.1319  0.2650
13262W        W26676  11.312  13.620  15.178 -0.1036 -0.0503 -0.3333
13263W        W26677  14.073   5.642  12.721  0.0889  0.0457 -0.0114
13264W        W26678  14.816  10.122  14.290  0.1823  0.1170  0.3416
13265W        W26679   4.779  15.229   5.284  0.0508 -0.1400 -0.2505
13266W        W26680  11.815   8.388  14.989  0.1284 -0.1251  0.0151
13267W        W26681  13.706  14.035   4.995  0.1913 -0.6198  0.2498
13268W        W26682  16.275  10.901   2.911  0.0292 -0.2523  0.2185
13269W        W26683  10.612  13.093  16.767 -0.1096 -0.0601 -0.3035
13270W        W26684   5.779   1.347  16.429 -0.1963  0.0837  0.1537
13271W        W26685   9.123   7.881  12.305  0.0808  0.0520  0.0078
13272W        W26686   8.081  12.050   3.377 -0.0593  0.3337  0.3803
13273W        W26687   6.957   2.036   1.182  0.2103 -0.1819 -0.0055
13274W        W26688  13.368   3.568   0.501 -0.0480 -0.2111  0.0492
13275W        W26689   7.825  12.050   2.912 -0.1729 -0.3653 -0.2398
13276W        W26690  13.695   8.137  10.530  0.1868 -0.0114 -0.1402
13277W        W26691  15.598  14.368  15.641 -0.0575  0.1136 -0.2971
13278W        W26692   9.872  16.991   3.459  0.1301  0.1243 -0.0370
13279W        W26693  17.015  11.371   4.080 -0.0943  0.1438  0.0196
13280W        W26694  12.031   3.790   4.564  0.0893  0.0792 -0.0825
13281W        W26695   4.093  10.721  11.701  0.0637  0.5175  0.2219
13282W        W26696   5.256  16.295  11.311 -0.0255  0.2163  0.0532
13283W        W26697   9.674   3.623   4.546  0.0146 -0.0091  0.1835
13284W        W26698   5.330   4.190  16.080 -0.0837 -0.2503  0.1447
13285W        W26699  17.953   7.942   2.044 -0.2489  0.2291  0.0505
13286W        W26700  17.044   9.834  12.347 -0.0851 -0.2003 -0.0266
13287W        W26701   5.425   5.915   5.009 -0.2556 -0.0098 -0.0295
13288W        W26702  17.818  15.902   1.769  0.0624 -0.1101 -0.0199
13289W        W26703  16.704   2.956  16.569  0.1039 -0.1086  0.1639
13290W        W26704   7.984  15.614   6.251  0.1141  0.4028  0.1998
13291W        W26705  17.952   8.194  16.302  0.0570 -0.0951  0.2725
13292W        W26706   2.934  16.971   0.026  0.0598  0.0829  0.0991
13293W        W26707  10.576   4.100  13.923 -0.0735 -0.0047  0.0105
13294W        W26708  17.518   1.829   1.010 -0.1504 -0.1063 -0.0292
13295W        W26709  15.783   2.835  13.495  0.2313  0.1734 -0.1101
13296W        W26710   6.211   9.796   0.136 -0.1239 -0.2947  0.0630
13297W        W26711   8.960   5.408   4.102 -0.0077  0.2091 -0.0211
13298W        W26712  16.196  10.223  12.936 -0.1701 -0.0857 -0.0473
13299W        W26713   1.671  10.702   5.819  0.0381 -0.0493  0.0561
13300W        W26714  11.241  12.661   6.905  0.0347  0.0069  0.0855
13301W        W26715   4.407  12.872   6.344  0.1445 -0.2529 -0.4180
13302W        W26716  11.207  12.196   3.502  0.2013  0.1985  0.0056
13303W        W26717   7.814  10.750   1.536 -0.1675 -0.3930  0.1402
13304W        W26718   5.067   6.485   0.544 -0.3342 -0.0487  0.0931
13305W        W26719   2.039  16.052  11.527 -0.1058 -0.1342 -0.2239
13306W        W26720  11.135   7.076   2.459  0.0147  0.0903  0.3038
13307W        W26721  17.259   3.753  15.813 -0.2900 -0.1065  0.1700
13308W        W26722  12.134   0.467   5.634 -0.1966 -0.2942 -0.1860
13309W        W26723   1.705   2.581  11.343  0.0964 -0.5436 -0.0286
13310W        W26724   0.412   4.106   4.061 -0.1651  0.0588  0.0954
13311W        W26725  11.503   0.346   6.804  0.1123  0.1154 -0.0211
13312W        W26726  15.222   8.059   3.945 -0.0788  0.0124 -0.0003
13313W        W26727   7.609  15.100  15.101  0.2196 -0.1120 -0.1505
13314W        W26728   8.399   6.892  12.411 -0.0179 -0.1058 -0.1429
13315W        W26729   2.930  12.260  12.746  0.1863  0.1101 -0.0789
13316W        W26730   6.246  11.465   1.978  0.0769  0.5465  0.0088
13317W        W26731  11.047  10.396   1.930  0.0982  0.1226  0.2905
13318W        W26732   4.919   5.369   0.075 -0.1703  0.1840 -0.0866
13319W        W26733  14.891   0.097  11.012  0.3251 -0.1321  0.3390
13320W        W26734  10.225  11.376   1.236 -0.0123  0.0225  0.0926
13321W        W26735   4.769   5.060   6.067 -0.0177  0.3546  0.0657
13322W        W26736   4.040   8.423   3.088 -0.0429  0.0799 -0.4146
13323W        W26737   9.394   1.337  12.165  0.1594  0.1546 -0.2052
13324W        W26738   9.231   0.917   3.879 -0.0507 -0.1038 -0.3016
13325W        W26739  12.455  13.895   3.517 -0.1174 -0.2176  0.0755
13326W        W26740   1.422  12.615  13.465  0.0745 -0.0643  0.0683
13327W        W26741   7.311   3.184   5.734  0.0630  0.1804  0.2512
13328W        W26742   2.095  15.862  13.824  0.1318 -0.1316 -0.0938
13329W        W26743  10.815  16.193  14.192  0.1536 -0.0611 -0.0556
13330W        W26744  15.748   1.340  10.611  0.1304  0.0616  0.1373
13331W        W26745   1.843  14.592   2.956  0.0340 -0.1464  0.2675
13332W        W26746   0.874   9.331   4.480  0.1268 -0.0750  0.2828
13333W        W26747   1.677   0.360  12.694  0.0536  0.0334 -0.1561
13334W        W26748   6.607   1.955   3.539  0.1383  0.0227 -0.0590
13335W        W26749  17.540  14.489   6.352  0.0529 -0.1387 -0.0776
13336W        W26750   6.522  16.314  10.820 -0.0646 -0.2646 -0.3759
13337W        W26751  14.330   4.213  11.546  0.1965 -0.2525 -0.0395
13338W        W26752   5.554  17.295   4.307 -0.0474 -0.0787  0.0706
13339W        W26753   9.070  13.049  12.033 -0.1181  0.2669 -0.1987
13340W        W26754  12.733   0.650  15.262 -0.0817  0.1104  0.0733
13341W        W26755   4.125  17.698   3.896 -0.0482  0.3401 -0.0683
13342W        W26756  10.479  11.346  16.170  0.0249  0.0044 -0.0108
13343W        W26757  16.758   3.169   3.870 -0.2507  0.0682  0.2062
13344W        W26758  17.211  14.074  10.976 -0.0803 -0.0189 -0.0493
13345W        W26759  14.656  10.931  14.504 -0.1020 -0.1150  0.1015
13346W        W26760   4.168   6.546  13.795  0.3460 -0.0006  0.1835
13347W        W26761   9.895   8.336   5.275  0.0779 -0.1556 -0.0213
13348W        W26762  16.801   1.245  10.830  0.0253  0.1287 -0.0849
13349W        W26763  16.871   0.485  16.780  0.3841 -0.2890  0.0611
13350W        W26764  16.866   6.702   5.347  0.2003  0.2149 -0.1251
13351W        W26765   8.577   9.735   1.345 -0.4852 -0.0094 -0.2276
13352W        W26766  14.608  13.968   3.132  0.0273 -0.1993  0.0050
13353W        W26767  15.604   4.836   0.515 -0.1433  0.1349 -0.1370
13354W        W26768  10.928   5.144  15.773  0.1347 -0.1738 -0.1473
13355W        W26769  14.488  10.008  11.532 -0.0214  0.2242  0.0811
13356W        W26770  15.235   8.671  12.669 -0.0265 -0.4235 -0.0763
13357W        W26771  11.444   2.140  10.585 -0.3880 -0.0488  0.2188
13358W        W26772   2.519   3.903  11.730 -0.1335 -0.0764 -0.0194
13359W        W26773   6.660  16.330  14.435  0.0833  0.2044 -0.1341
13360W        W26774  17.062   7.003   0.087 -0.0802  0.1985 -0.1708
13361W        W26775   5.343   9.506   0.430 -0.1391 -0.0832 -0.0548
13362W        W26776   6.540  17.220   2.849  0.1129  0.3437 -0.1330
13363W        W26777  10.890   3.614  11.530 -0.0436 -0.0310 -0.0611
13364W        W26778   6.100   2.546   0.366 -0.1872 -0.0892  0.0751
13365W        W26779   2.134  15.123   1.801  0.3729  0.1619  0.1378
13366W        W26780  17.123   7.946   3.244  0.0884 -0.1680 -0.2834
13367W        W26781  16.440   0.442   3.606 -0.2245  0.3347 -0.1986
13368W        W26782   8.739  13.756   1.731 -0.2388  0.4617 -0.1003
13369W        W26783  13.230  13.811  14.672  0.2236 -0.0646 -0.2565
13370W        W26784  16.966  15.626  14.879 -0.2908  0.3204 -0.1425
13371W        W26785  11.452  10.296  11.059  0.0502 -0.3157  0.1296
13372W        W26786  15.369  14.115  15.243 -0.0817 -0.1621  0.1253
13373W        W26787  15.187  15.860   5.652  0.1040  0.1025 -0.1874
13374W        W26788   9.874   4.597  12.796 -0.2704 -0.1618 -0.2463
13375W        W26789   1.657  11.093   4.328 -0.0317  0.2063  0.1713
13376W        W26790   3.610  11.641   2.573  0.1422 -0.0105 -0.0329
13377W        W26791   1.316  10.085   3.832 -0.0171  0.1225 -0.1229
13378W        W26792   4.236  13.976   3.379 -0.0207  0.1279 -0.4543
13379W        W26793   8.430   9.540   2.106  0.0107 -0.0012 -0.0303
13380W        W26794   9.966   0.223  15.797 -0.1883  0.1962 -0.1366
13381W        W26795  14.572  14.935  15.597  0.3015 -0.0874 -0.0003
13382W        W26796   2.645   0.893  11.070  0.2480  0.1720 -0.1023
13383W        W26797  10.205  15.087  16.233 -0.0802 -0.0668 -0.1927
13384W        W26798   1.027  15.653  15.435 -0.0345 -0.0107 -0.1663
13385W        W26799   9.774   1.694   5.567  0.4693  0.0075 -0.0065
13386W        W26800  17.745   8.354   5.044 -0.3481  0.1774  0.0423
13387W        W26801  11.394  13.057  12.113 -0.1551  0.2586  0.0483
13388W        W26802   0.795  11.151   5.720  0.2289 -0.1797 -0.0055
13389W        W26803  15.300  16.467  12.253 -0.0205 -0.0621 -0.0657
13390W        W26804   3.146   2.434   4.968  0.2862  0.0764 -0.1096
13391W        W26805  13.381   7.822   1.442 -0.1328 -0.2705  0.0238
13392W        W26806   8.227  11.570  11.263  0.1022 -0.1582 -0.1704
13393W        W26807   4.996  11.256  10.674  0.4292  0.3035  0.1294
13394W        W26808   6.872   4.233   2.416  0.0414  0.1441 -0.1475
13395W        W26809   5.337   2.975   5.478 -0.3003  0.0177 -0.0223
13396W        W26810   7.705  13.338   0.873  0.0248  0.0589 -0.2730
13397W        W26811  12.356   1.559   1.093 -0.0323  0.0686  0.0568
13398W        W26812  13.656  13.373  12.721 -0.0405 -0.1850 -0.0192
13399W        W26813  12.907   2.612  12.091 -0.1448  0.1021 -0.2716
13400W        W26814   5.093   1.864  12.355 -0.2379  0.3995 -0.1688
13401W        W26815   6.635   5.109  12.254  0.1744 -0.2019 -0.0191
13402W        W26816   7.999   7.064  14.212  0.2018  0.0653  0.0294
13403W        W26817  11.838   3.581  11.371 -0.1137 -0.1684 -0.4544
13404W        W26818  11.411  15.639   4.434  0.0337 -0.1821  0.0276
13405W        W26819   4.766   1.780  14.624  0.1764 -0.1730 -0.2223
13406W        W26820  12.533   3.850   0.637 -0.1896  0.2067 -0.2072
13407W        W26821  14.710   5.767  16.601 -0.2525  0.1723 -0.1198
13408W        W26822   2.964  13.784   2.850 -0.0807  0.2321  0.2616
13409W        W26823  11.571  13.764   0.028  0.0612 -0.0364  0.1353
13410W        W26824  11.183  14.501   2.408 -0.2691  0.1528  0.4443
13411W        W26825  14.144   5.569  16.405 -0.1021  0.1759  0.0712
13412W        W26826   9.505   3.163  16.119  0.0639 -0.3439 -0.0294
13413W        W26827  12.208   8.084   4.998  0.2411  0.1982  0.2339
13414W        W26828   5.672   3.016   1.063 -0.1902  0.1392 -0.1057
13415W        W26829   7.455  13.877  13.723 -0.1999 -0.0271 -0.1209
13416W        W26830  13.691  15.342  13.304 -0.1223 -0.1224  0.2003
13417W        W26831   4.185   6.131   3.202 -0.1322  0.1178 -0.1215
13418W        W26832   3.447   0.535  12.930 -0.2034 -0.2842  0.0535
13419W        W26833  12.303   0.775   2.083  0.0353 -0.1240  0.2329
13420W        W26834   1.374   4.815  16.189 -0.0337 -0.2326  0.0221
13421W        W26835   3.891  12.042   5.737  0.2422  0.0534 -0.1775
13422W        W26836   2.129  12.441  13.184  0.2041  0.0026  0.1164
13423W        W26837   2.717   0.335  11.235 -0.1206 -0.3424  0.1658
13424W        W26838   4.723  11.476   5.517 -0.0415 -0.0221  0.1307
13425W        W26839   1.741   6.209   6.278 -0.2866 -0.0686 -0.1927
13426W        W26840  12.659   3.286  13.862 -0.1439  0.1282  0.0190
13427W        W26841   5.403  10.489  16.234 -0.0093  0.0573  0.0007
13428W        W26842  12.242  10.478  15.561  0.2256  0.3224 -0.0645
13429W        W26843  16.068  16.462   4.616  0.0116  0.1890  0.2042
13430W        W26844   0.442  15.575   3.479 -0.1372  0.0346 -0.2194
13431W        W26845  10.293   4.326   5.242  0.2267 -0.0060  0.2898
13432W        W26846   3.169  15.124   4.850 -0.0095 -0.0167 -0.5490
13433W        W26847   7.287  11.016  15.862  0.3330 -0.1795  0.1006
13434W        W26848  11.866  13.324   1.268 -0.5846 -0.1868  0.0434
13435W        W26849  15.120  11.684   0.093  0.1160  0.1565 -0.0122
13436W        W26850   1.035   1.076  12.039  0.0638 -0.0745 -0.3026
13437W        W26851  17.652   2.319  14.722  0.2734 -0.3595  0.2394
13438W        W26852   2.254   6.708   2.827 -0.2790 -0.2177  0.2332
13439W        W26853  10.526   9.871   5.897  0.2412 -0.0394 -0.2082
13440W        W26854  16.507  16.627   6.399 -0.0364  0.2054 -0.2589
13441W        W26855   1.612   1.056  13.249  0.3235  0.0554  0.0250
13442W        W26856  11.861   6.001   5.026 -0.0825 -0.0156 -0.2318
13443W        W26857  14.224   7.984  13.405  0.3340  0.3025 -0.0838
13444W        W26858   1.079  15.212   3.679 -0.2317 -0.0600  0.1595
13445W        W26859   6.253  14.691  12.196 -0.0665  0.0359 -0.0395
13446W        W26860   1.875  11.093   5.107  0.2872  0.0663 -0.1152
13447W        W26861   2.232   1.289   9.913  0.3364 -0.1025  0.1064
13448W        W26862   2.020   7.829  16.718  0.0962  0.1593  0.2569
13449W        W26863  10.836   0.380  12.877 -0.2432 -0.1197  0.2059
13450W        W26864   9.263  14.286   4.595 -0.2384  0.1857  0.1109
13451W        W26865  17.529  17.351  14.066  0.0183  0.0686 -0.1107
13452W        W26866  16.150   9.992  13.471 -0.0470 -0.2438  0.1234
13453W        W26867  16.577  10.198  13.265 -0.0966  0.0457 -0.2345
13454W        W26868   1.934   7.261  10.708 -0.0825 -0.0106  0.1886
13455W        W26869   1.237   1.870  16.555  0.0728  0.0328 -0.1502
13456W        W26870   3.800   0.212   0.626  0.2204  0.1491 -0.1915
13457W        W26871  15.168   7.736  13.668 -0.1359 -0.1055 -0.1361
13458W        W26872   8.101   6.518  11.655  0.3446 -0.1307 -0.2157
13459W        W26873   9.887   3.985   3.402 -0.0803 -0.1553 -0.1793
13460W        W26874  11.794   9.250   3.011  0.1261  0.1903 -0.1257
13461W        W26875  15.203   3.083   0.185 -0.3383 -0.0762  0.0909
13462W        W26876  11.505  17.146   2.502 -0.2447 -0.0507  0.2227
13463W        W26877  12.242  14.715  15.207  0.0224  0.1033  0.0980
13464W        W26878  16.150   9.465  16.702 -0.1867 -0.0822  0.0284
13465W        W26879   7.057   6.122  13.592  0.1067  0.1766  0.1483
13466W        W26880   2.608  12.408   3.264 -0.0097  0.0659  0.1786
13467W        W26881   8.662  14.260   5.327 -0.1144 -0.0647  0.2591
13468W        W26882   0.042   2.256   0.945 -0.2300 -0.0437 -0.1784
13469W        W26883   7.295   0.800   1.392  0.1116 -0.0665  0.0458
13470W        W26884  16.632   6.743  11.590 -0.0216  0.1004  0.2420
13471W        W26885   8.160   0.390  14.554  0.2490 -0.0692 -0.0252
13472W        W26886  12.142   7.124   1.146 -0.1484  0.0115 -0.0650
13473W        W26887   9.604   2.417  11.623  0.1257  0.1051 -0.1582
13474W        W26888  12.201  14.904  15.669  0.0961  0.1861 -0.0816
13475W        W26889   3.456   9.199  13.109  0.1351  0.0852  0.2636
13476W        W26890   8.064   2.265  14.380 -0.1217 -0.0181  0.0235
13477W        W26891  12.043  16.309  14.999  0.1078  0.2165  0.0905
13478W        W26892  15.386   7.233  10.267 -0.0155  0.2933 -0.1282
13479W        W26893  12.551  11.867   2.431 -0.1870 -0.1497  0.0267
13480W        W26894   6.544   4.048  14.110 -0.1472 -0.1181  0.0038
13481W        W26895   5.322   7.415   4.063 -0.0514 -0.0754  0.0555
13482W        W26896   0.820   5.217   1.336 -0.3871 -0.0880 -0.0973
13483W        W26897  12.121   0.794  10.534  0.0506 -0.2948  0.1735
13484W        W26898  17.080  11.799   0.296  0.2215 -0.1815 -0.1981
13485W        W26899  12.929   8.249  14.520  0.0313  0.1868  0.1548
13486W        W26900   2.799  10.529  13.152 -0.2205 -0.0071  0.1721
13487W        W26901   3.261  17.462  13.188  0.1965 -0.0351 -0.1885
13488W        W26902  15.054  10.590  13.783  0.1653  0.0326  0.2487
13489W        W26903  13.681  15.393   2.783 -0.1554 -0.0676  0.0477
13490W        W26904   6.428   4.748   3.682  0.1337 -0.1138  0.1584
13491W        W26905   4.273  14.223   0.115  0.2304 -0.0616 -0.2518
13492W        W26906  10.098  12.033  13.032  0.0957 -0.0361 -0.0983
13493W        W26907  10.489   8.657   1.030  0.0337  0.0435 -0.0702
13494W        W26908  13.382   5.780   3.422 -0.0794 -0.0350 -0.1001
13495W        W26909   9.979  11.442  14.059 -0.1465  0.0591 -0.1631
13496W        W26910   5.253   9.287   4.661 -0.1642  0.1945  0.0129
13497W        W26911   1.360   4.017   4.009  0.0242 -0.0699 -0.2292
13498W        W26912   9.403  17.566  14.037  0.2253  0.2451  0.2582
13499W        W26913  16.642  17.956   3.699 -0.0332 -0.1936 -0.1446
13500W        W26914  13.843   1.776  12.329 -0.0696  0.1613  0.3531
13501W        W26915   8.210  10.299  16.506 -0.2143  0.1930 -0.0465
13502W        W26916   8.742  13.903  13.162  0.1538  0.1386  0.1048
13503W        W26917  16.059  14.268  14.709  0.0343 -0.1430  0.2068
13504W        W26918  11.872   7.325  15.950 -0.4593  0.0082  0.0214
13505W        W26919   8.556  10.861  12.806 -0.0975 -0.0881 -0.2175
13506W        W26920   7.345   6.304  12.563 -0.1145 -0.0222  0.1156
13507W        W26921  17.432  15.279  14.928  0.0310 -0.1110 -0.1462
13508W        W26922  13.367  17.325  15.133  0.1124  0.1252 -0.1990
13509W        W26923  14.887   3.592   4.165 -0.0899 -0.1733  0.0226
13510W        W26924  13.984   6.303   5.026  0.0819 -0.0117 -0.1417
13511W        W26925   5.718  16.341  14.476  0.4510 -0.2515  0.0233
13512W        W26926   7.499   5.512  10.996 -0.0382  0.0682 -0.0196
13513W        W26927   7.908  14.100   2.219 -0.0251  0.1396  0.0052
13514W        W26928   6.716   7.016   6.596 -0.1652 -0.0374 -0.3637
13515W        W26929   0.836   4.902  14.197 -0.3564  0.2554 -0.2702
13516W        W26930   6.636  11.294   3.132  0.2581 -0.1138 -0.1394
13517W        W26931  11.006   9.627   5.025  0.1388 -0.0368 -0.3153
13518W        W26932   9.370  12.990  11.311  0.0838 -0.0699 -0.2063
13519W        W26933  11.701  10.802   6.191  0.3338  0.0143 -0.1298
13520W        W26934  16.692   3.733  11.445 -0.0849 -0.0290 -0.2293
13521W        W26935   3.815  12.714   5.135 -0.1247 -0.2324  0.0908
13522W        W26936   0.647  16.132  13.659 -0.3416  0.0983 -0.3820
13523W        W26937   7.759   0.843   1.035 -0.0155  0.2700  0.1954
13524W        W26938  11.700   6.932  12.426  0.1502  0.1455  0.0300
13525W        W26939   6.777  12.978   5.807 -0.1122 -0.0717 -0.1581
13526W        W26940   2.789   2.224   1.383  0.1307 -0.1532  0.0424
13527W        W26941   6.853   4.315   4.469 -0.1342 -0.1210 -0.4489
13528W        W26942   9.020   8.510  11.407 -0.1108  0.1123 -0.0741
13529W        W26943   5.504  10.575   0.886 -0.2295  0.0425 -0.2832
13530W        W26944  14.294   0.634  16.238 -0.2817  0.0114 -0.1550
13531W        W26945   8.103  14.134   4.256 -0.1370  0.0138 -0.0239
13532W        W26946  11.082   0.858  10.993  0.0506  0.0266  0.3106
13533W        W26947   3.248   4.324   5.793 -0.0366 -0.1478  0.0962
13534W        W26948   5.968   9.672  15.953  0.2639  0.1798 -0.0241
13535W        W26949  16.126   1.282   0.971  0.1165  0.1850 -0.0177
13536W        W26950  14.265   4.540  11.173  0.1276  0.0431  0.0643
13537W        W26951  10.867  14.562  14.090 -0.1607  0.0343 -0.1131
13538W        W26952   2.976   6.135  16.365  0.1661  0.1341 -0.1471
13539W        W26953  12.135  13.549  12.137 -0.1135 -0.2466  0.1943
13540W        W26954   6.409   3.734   3.072  0.3351 -0.0028  0.1966
13541W        W26955   0.584   9.894   2.204  0.3304 -0.1137  0.1574
13542W        W26956  10.740   6.783   1.795 -0.1391  0.1235  0.1294
13543W        W26957   0.230   6.492  11.598  0.0512 -0.0563 -0.1711
13544W        W26958   3.994   6.404  16.608 -0.2405  0.0019  0.3216
13545W        W26959  11.935   4.463  11.282 -0.0804  0.0862 -0.1921
13546W        W26960   0.549   2.332  14.420  0.0986 -0.1385  0.0080
13547W        W26961  14.448   6.389  13.122  0.2988  0.0515  0.0046
13548W        W26962   6.951  10.869   4.916  0.1454  0.0708  0.1176
13549W        W26963   7.418   1.749  16.527  0.1171 -0.1954  0.1833
13550W        W26964   4.240  17.098  12.193  0.1437 -0.3992 -0.2527
13551W        W26965   4.966  10.191   5.041  0.0359 -0.0999 -0.0862
13552W        W26966  11.310   7.941   2.948 -0.1281 -0.1063  0.0276
13553W        W26967  14.549  17.148   2.956 -0.3581 -0.0040 -0.0883
13554W        W26968  15.747   9.316   0.188 -0.0437  0.1528 -0.0222
13555W        W26969   1.080  12.370  15.912  0.3303 -0.2904  0.0663
13556W        W26970   3.687   6.268  11.906  0.0625 -0.0309  0.0646
13557W        W26971   8.568   2.882  15.782 -0.0523  0.0833  0.0447
13558W        W26972  16.619   4.791  11.577 -0.0133 -0.0962 -0.3104
13559W        W26973   9.447  17.734  15.433 -0.1681 -0.2185  0.3824
13560W        W26974   6.742  12.821   4.084  0.0425  0.0541  0.0584
13561W        W26975   2.901  14.643   4.866 -0.1200  0.0940 -0.2170
13562W        W26976   0.983   0.073  15.142  0.2246 -0.2881  0.2076
13563W        W26977  14.655   7.826   3.166 -0.0442  0.2176  0.0398
13564W        W26978   7.068  12.673  16.298  0.0226  0.0314 -0.1061
13565W        W26979   7.710   2.740   2.642 -0.1305  0.2981  0.2068
13566W        W26980   9.653   9.956  13.665 -0.0915  0.0691 -0.0952
13567W        W26981  14.292   9.029   6.170  0.1128 -0.5490  0.0979
13568W        W26982   6.266   9.585   5.688 -0.1963 -0.0336  0.0156
13569W        W26983   0.567  13.712   0.499  0.2672 -0.1224  0.0640
13570W        W26984  10.821  11.277   3.410  0.0254 -0.1901  0.0039
13571W        W26985   6.344  16.649  15.566  0.0297 -0.0661 -0.0088
13572W        W26986   4.765  11.132  12.813 -0.1322  0.1150 -0.3064
13573W        W26987  15.219   7.629   3.519  0.0499  0.1801  0.1896
13574W        W26988   4.101  10.924  12.672 -0.3139  0.0790  0.1312
13575W        W26989  15.923   2.787   5.116  0.0337 -0.1347 -0.0714
13576W        W26990  12.628   6.634   6.814 -0.1963 -0.0092 -0.0685
13577W        W26991   7.104  13.102  13.842  0.1474 -0.0056  0.1269
13578W        W26992   8.518  13.949  12.215 -0.2866 -0.0486  0.0488
13579W        W26993   8.059  17.943  12.800  0.2394  0.0596 -0.0846
13580W        W26994  10.010   2.274  14.250  0.0851 -0.0353  0.1737
13581W        W26995   1.465   0.037   0.903  0.1043 -0.0359 -0.0209
13582W        W26996   7.517   8.272   0.530  0.0871 -0.0868 -0.1803
13583W        W26997  13.519   0.964  12.281 -0.0293  0.1027  0.2980
13584W        W26998   3.420   8.774  16.275  0.1172 -0.1713  0.0005
13585W        W26999   2.191   1.993  10.566  0.0465  0.1684 -0.0317
13586W        W27000   7.654   1.208   1.778 -0.1686  0.0685 -0.0563
13587W        W27001   9.707   6.151   2.121  0.0303  0.2485 -0.3308
13588W        W27002   2.969   3.217  14.756 -0.1510 -0.0049  0.0875
13589W        W27003  13.873  13.083   0.907  0.2584  0.1146  0.0289
13590W        W27004   2.920   9.898   1.550 -0.1331 -0.2639 -0.1413
13591W        W27005   0.523  13.456  16.762  0.0139  0.3402  0.4534
13592W        W27006  10.262  15.204  10.920 -0.2116  0.2551  0.1174
13593W        W27007   1.218   8.165  15.174  0.1878 -0.2059 -0.2928
13594W        W27008   3.073  11.423   0.966 -0.1027 -0.0633 -0.0579
13595W        W27009  17.090   4.378   4.133  0.1471  0.2558  0.0608
13596W        W27010   3.771  14.126  15.740 -0.3456 -0.0920  0.0115
13597W        W27011   1.878   7.693  15.681 -0.0040 -0.1156  0.0152
13598W        W27012   0.760   2.586  11.229  0.3091  0.0672 -0.2571
13599W        W27013   9.674  16.684  16.326 -0.2187  0.0012  0.0657
13600W        W27014  15.324   2.636   1.718  0.1986 -0.1868  0.1512
13601W        W27015   2.307   2.466  10.721  0.0317 -0.0334 -0.0065
13602W        W27016   7.282  15.655  10.667  0.2789 -0.0260 -0.0006
13603W        W27017  14.991   2.693   5.646 -0.1281  0.2413 -0.0566
13604W        W27018   5.893   6.821  16.603 -0.0806 -0.1585 -0.0102
13605W        W27019  16.058   0.039  10.821  0.3070 -0.2721 -0.2721
13606W        W27020  10.942   1.394  16.749  0.2296  0.1333 -0.2244
13607W        W27021  13.702   6.122  13.676  0.0599 -0.0349 -0.1703
13608W        W27022   0.358  10.278   3.582 -0.2642  0.1419 -0.0789
13609W        W27023   4.850  10.468  11.285  0.2019  0.0098 -0.1555
13610W        W27024   1.396   9.897  10.620  0.2607 -0.1225  0.0456
13611W        W27025  10.034   1.663   0.164  0.0694  0.0716 -0.0548
13612W        W27026  10.315   9.228   4.586 -0.0993 -0.1989 -0.0201
13613W        W27027   2.895  13.485  14.043  0.0291 -0.2381  0.1364
13614W        W27028  17.234   0.952  10.662  0.0437  0.0605  0.0088
13615W        W27029  13.844  15.376   4.839 -0.1606  0.0834  0.1118
13616W        W27030  12.061  16.532  16.704  0.3772  0.1673 -0.2463
13617W        W27031  17.986   0.033   1.787 -0.2337  0.2692  0.0552
13618W        W27032   4.827  13.024  15.965 -0.0501 -0.1711 -0.0431
13619W        W27033   7.944   9.328  13.423  0.0510 -0.1097  0.0559
13620W        W27034  14.105  11.938   4.155 -0.0947  0.2704 -0.0117
13621W        W27035   1.838   8.957   6.406 -0.1437  0.0784  0.1073
13622W        W27036  13.882   9.050  15.930 -0.0878 -0.2148  0.2418
13623W        W27037  17.394   0.353  15.744 -0.3440 -0.2315  0.1107
13624W        W27038   0.974  12.276  14.039  0.2678 -0.1652 -0.0778
13625W        W27039   4.059   4.679   2.891 -0.0265  0.2320  0.0281
13626W        W27040   6.874  12.633   2.086 -0.0821  0.1709 -0.1902
13627W        W27041   5.241  17.182  14.240 -0.0298  0.2967  0.0254
13628W        W27042   1.225   5.724  15.535 -0.0015 -0.0884  0.1486
13629W        W27043   1.610  15.161   3.803 -0.3318 -0.1560 -0.1652
13630W        W27044  16.086   2.505  11.722 -0.1582 -0.1075 -0.2120
13631W        W27045   3.879   3.757  16.636  0.1355 -0.3034  0.1934
13632W        W27046  15.094  12.418   2.275 -0.1384  0.3379  0.1014
13633W        W27047   9.403   2.289  14.164 -0.3273  0.1034  0.0099
13634W        W27048   1.553  17.714   4.705  0.0564 -0.0644 -0.2986
13635W        W27049  12.918   1.394  14.383 -0.0335 -0.1968  0.0839
13636W        W27050  11.883  10.113  15.589 -0.0734 -0.1833 -0.0790
13637W        W27051  16.511   5.241  12.007  0.2407 -0.0447  0.0958
13638W        W27052   3.331  11.427   2.972 -0.1286 -0.0453 -0.1447
13639W        W27053   6.713   8.897   0.888 -0.0710 -0.3210  0.2165
13640W        W27054  11.678  10.774  12.287  0.2261  0.0061 -0.0977
13641W        W27055  15.501   7.109   2.186 -0.3711 -0.0319  0.1093
13642W        W27056   7.799   0.444  10.681  0.0886 -0.1983 -0.0946
13643W        W27057  16.220   8.965  13.514 -0.0107 -0.0808  0.0624
13644W        W27058  11.579   9.792   0.596  0.0637 -0.1500  0.1289
13645W        W27059   9.046   8.347  16.462 -0.0314 -0.3333  0.1154
13646W        W27060  15.828  16.937  15.606  0.0780  0.0431 -0.0260
13647W        W27061  17.108   8.293  12.778 -0.0317 -0.1968  0.0368
13648W        W27062  15.047  13.863   2.847  0.1320 -0.0726  0.0318
13649W        W27063   6.795   6.026   2.489 -0.0617 -0.2296  0.1364
13650W        W27064   4.445   5.511  12.997  0.4889 -0.1467 -0.0135
13651W        W27065   1.320   7.242  14.614  0.0058 -0.0124 -0.2841
13652W        W27066   2.090  10.859  12.883  0.0132 -0.2996 -0.0671
13653W        W27067  12.235   9.807   6.348  0.2930 -0.2369  0.0555
13654W        W27068  17.040  17.231   2.181 -0.2952 -0.1468 -0.0962
13655W        W27069   7.284  15.197   1.274  0.2446  0.1332 -0.0951
13656W        W27070  14.859   3.204   2.002  0.0612 -0.3370 -0.2208
13657W        W27071   0.103  11.068   4.790 -0.5280  0.0359  0.1246
13658W        W27072  14.631  14.209  14.993  0.0007  0.0946  0.0927
13659W        W27073  11.232  15.038   1.013  0.0704  0.3123  0.2389
13660W        W27074   7.512  14.941   2.375 -0.0489  0.1795  0.2282
13661W        W27075   4.519   1.504   3.051 -0.1121 -0.3279  0.1120
13662W        W27076   9.751  16.413   6.638  0.0059  0.0644 -0.1673
13663W        W27077  13.680   7.078  11.643 -0.1566 -0.4187  0.0287
13664W        W27078   2.575   0.768  15.342 -0.0782 -0.0102  0.1636
13665W        W27079   9.650  11.100  15.988  0.1607 -0.2258  0.1548
13666W        W27080   4.503  15.135  15.499 -0.2538 -0.0573  0.1476
13667W        W27081   5.261   6.666   3.954 -0.2543 -0.0654  0.2879
13668W        W27082   5.125  10.695   6.171  0.1309 -0.1880 -0.1202
13669W        W27083  11.150   5.990   1.389 -0.3094 -0.0692  0.0050
13670W        W27084   1.746   3.101  13.260 -0.1001 -0.3377  0.1261
13671W        W27085  15.415  13.740   5.111 -0.5584  0.0604 -0.2423
13672W        W27086   8.865   8.050  10.472  0.1272 -0.1370  0.0907
13673W        W27087  16.385  11.369  15.079  0.0368 -0.1924  0.0430
13674W        W27088  12.331  11.201   3.224  0.0276 -0.0531  0.0502
13675W        W27089   0.957   3.538  13.114 -0.0882 -0.4315 -0.1007
13676W        W27090   8.098   4.867  11.387  0.1424 -0.0222 -0.4192
13677W        W27091   2.570  12.283  10.578  0.1688  0.0154  0.3784
13678W        W27092  14.794  17.341  14.835 -0.1610  0.0707 -0.1286
13679W        W27093   2.682   9.960  11.851  0.3046  0.1160  0.2643
13680W        W27094   7.990  17.125   1.039 -0.0715  0.4360 -0.1372
13681W        W27095   2.267   7.339   0.796 -0.0979 -0.2668 -0.1859
13682W        W27096   4.184   1.217  11.013 -0.0336  0.1061 -0.0334
13683W        W27097   6.562   6.467  12.661  0.2100 -0.2574 -0.5351
13684W        W27098   2.178  15.581  10.795  0.0073  0.3300  0.1476
13685W        W27099  16.076   5.909  14.853  0.1242  0.1311  0.0660
13686W        W27100  14.238   8.837   3.128  0.0394 -0.3015  0.1527
13687W        W27101   0.842   3.132  11.403  0.0791  0.0420 -0.1493
13688W        W27102  10.300  16.868   2.782  0.1011  0.0742  0.0735
13689W        W27103   1.314   5.227   2.232 -0.2104  0.0863 -0.0553
13690W        W27104   1.601  11.915  12.789 -0.1654 -0.1643 -0.3721
13691W        W27105  13.355  11.781   0.313  0.1653  0.0196  0.0673
13692W        W27106  17.093  17.976   0.025  0.0007  0.0228  0.1257
13693W        W27107  10.140   6.566   5.757  0.0868  0.0895  0.0891
13694W        W27108   7.411  17.458   4.137  0.0855 -0.0501  0.2774
13695W        W27109  10.803  14.975   0.708 -0.0129  0.5353  0.2555
13696W        W27110  16.906   8.874  16.207 -0.0878  0.3254 -0.0132
13697W        W27111   7.705   0.384   2.207  0.1213  0.1918 -0.1363
13698W        W27112  11.281   0.349   5.834 -0.0787 -0.0459 -0.3608
13699W        W27113   8.460  13.896  15.967 -0.0498 -0.3063  0.0545
13700W        W27114  13.242   3.583   4.736  0.0388  0.1888 -0.1654
13701W        W27115   0.579   8.712   2.862  0.0060 -0.0947  0.2083
13702W        W27116  17.983   4.474   4.213  0.2363 -0.0113  0.1898
13703W        W27117   6.008   7.196  12.829  0.1090  0.1627 -0.1900
13704W        W27118   1.396  16.456   0.505  0.1950 -0.0199 -0.0208
13705W        W27119  17.888   2.835  13.378 -0.0822 -0.0614  0.1579
13706W        W27120   4.924   3.314   2.516  0.1413  0.0865 -0.2768
13707W        W27121   0.288  12.223  12.865 -0.0692  0.0203 -0.1711
13708W        W27122  16.557   7.308   3.771 -0.1500  0.3647  0.3325
13709W        W27123  10.202  14.165  16.424  0.0738  0.2893  0.1073
13710W        W27124  13.000   1.905  14.182 -0.2690  0.0114 -0.1256
13711W        W27125   1.818   7.981   1.679 -0.0774 -0.1502  0.4559
13712W        W27126   8.027  12.339   3.754  0.2961  0.2167  0.1064
13713W        W27127   7.385   3.987   1.144  0.0506  0.0237 -0.0046
13714W        W27128   7.834  11.890  14.836 -0.1362  0.1079 -0.1855
13715W        W27129  13.632   4.566   5.298 -0.1879  0.2471  0.3261
13716W        W27130   5.952   9.748  11.271 -0.0184 -0.1724 -0.3468
13717W        W27131  11.627   6.763  14.563  0.4937  0.0251  0.2363
13718W        W27132  13.295  16.034   2.395  0.1110 -0.0468 -0.2029
13719W        W27133  13.839  13.691  13.167  0.0234 -0.3072  0.1824
13720W        W27134  12.726  11.549   1.862 -0.0622  0.2727 -0.2479
13721W        W27135   9.056  12.290   7.155  0.0744 -0.0287  0.2436
13722W        W27136  10.021   2.808   4.907 -0.2127  0.0660 -0.1672
13723W        W27137  16.652  14.086  11.784 -0.0315  0.2545  0.0204
13724W        W27138   9.057  11.113  13.052 -0.2640 -0.0972 -0.0855
13725W        W27139   6.660   2.661  10.973  0.0649  0.0398  0.0276
13726W        W27140   7.240  16.695  15.267  0.0514 -0.1891  0.2122
13727W        W27141   5.979   1.702   1.432 -0.3302  0.2354  0.1355
13728W        W27142   9.860   3.319   4.889 -0.0231 -0.1230  0.0969
13729W        W27143   7.824  15.947  14.534  0.0239  0.1321  0.0289
13730W        W27144  11.503   0.564  11.168  0.0711 -0.0046  0.1696
13731W        W27145  16.403   1.014   2.337 -0.4293  0.2568 -0.2076
13732W        W27146   1.304   1.517   3.487 -0.2609 -0.2106  0.0993
13733W        W27147   4.898  12.138  13.110  0.0543 -0.0504 -0.2719
13734W        W27148   5.743   0.148  12.668 -0.0465  0.0183  0.2717
13735W        W27149  16.558   6.247   4.509  0.0869 -0.1530  0.1012
13736W        W27150   8.313   2.917   5.675 -0.1391 -0.1662 -0.2297
13737W        W27151   1.592  15.149   3.300 -0.1518  0.1211 -0.0677
13738W        W27152   0.079  14.366  10.926 -0.0551  0.0428  0.0013
13739W        W27153  13.988  14.150   1.565 -0.0941  0.1009  0.3263
13740W        W27154  10.872  15.211  16.625 -0.2941  0.0777 -0.0726
13741W        W27155   8.186  11.648   0.298 -0.0791  0.2505  0.0093
13742W        W27156   3.792  14.427  16.576  0.0457 -0.1782  0.1491
13743W        W27157   5.816  16.429  11.452 -0.1053 -0.1523 -0.2172
13744W        W27158  16.035  16.328  15.464 -0.3267 -0.0502 -0.0605
13745W        W27159  16.997  11.787   4.853 -0.2366  0.1596  0.0576
13746W        W27160   1.064  12.494   3.790  0.0739 -0.0555 -0.2930
13747W        W27161   6.044   9.098  16.303  0.0655 -0.1832 -0.2017
13748W        W27162  12.931  17.347   1.283  0.3161  0.0651  0.0708
13749W        W27163  12.812   1.879   4.370  0.1169 -0.2401 -0.1708
13750W        W27164  14.798   5.987   5.747 -0.0505  0.2654  0.3232
13751W        W27165  11.828   3.683   0.370 -0.2335  0.0280 -0.1035
13752W        W27166   8.642   5.997   5.411  0.1610 -0.1888 -0.0317
13753W        W27167   3.892   4.240   3.105  0.0335 -0.1765 -0.2003
13754W        W27168  17.044   0.146  16.343  0.2849  0.1971 -0.1197
13755W        W27169   9.297  10.701  14.234  0.5047  0.0422  0.1020
13756W        W27170  12.529   9.689   5.701 -0.0696 -0.1004 -0.1014
13757W        W27171   5.034   5.124  10.829 -0.2616  0.0746  0.1499
13758W        W27172  12.411   0.438   3.467 -0.1242  0.2044  0.0143
13759W        W27173   7.373  15.186  11.838  0.0035 -0.1176 -0.1593
13760W        W27174   9.726  10.942   0.529  0.1856  0.1778 -0.0933
13761W        W27175   5.871  15.984   2.782  0.1010  0.1432 -0.0477
13762W        W27176   5.452   4.710  13.135  0.1202 -0.1849  0.1080
13763W        W27177  14.366   6.919   0.862 -0.2988  0.2275 -0.3282
13764W        W27178   1.917  12.888   5.960  0.0197 -0.1409  0.0103
13765W        W27179   4.481   7.249  11.842  0.0376  0.1935  0.0182
13766W        W27180   2.060   8.195   3.301  0.6468 -0.3219 -0.0534
13767W        W27181  14.224   8.225   4.104 -0.0660  0.2495  0.1677
13768W        W27182   3.086   4.741  12.840 -0.1977 -0.0547  0.0332
13769W        W27183   4.776   9.689   3.346 -0.0374  0.0452  0.1164
13770W        W27184  17.483  17.399   3.760  0.0750  0.0387  0.0979
13771W        W27185   5.413  10.122   0.583 -0.0751 -0.1404  0.2161
13772W        W27186  13.628   3.984  14.550 -0.0016  0.0396  0.0713
13773W        W27187  11.706   2.234  13.670  0.0165  0.0641 -0.2396
13774W        W27188   2.415   6.645  12.200  0.0037  0.0376  0.4595
13775W        W27189  11.528   9.118  13.250  0.0068  0.0767  0.0883
13776W        W27190  16.940   7.490   4.054  0.0033 -0.0384  0.0650
13777W        W27191  17.221  12.371  16.675 -0.1070 -0.0803  0.0481
13778W        W27192  15.074   3.148  12.597  0.2928  0.0584  0.1618
13779W        W27193  14.741   2.551   4.250  0.1294 -0.2675 -0.1741
13780W        W27194   3.025   6.542   5.322 -0.1783 -0.1997 -0.0863
13781W        W27195   6.583  12.407  14.621 -0.1283 -0.0920  0.2067
13782W        W27196  12.412  14.109   0.406 -0.0617 -0.0636 -0.1689
13783W        W27197   8.700  15.341   2.126  0.0757 -0.2723  0.1705
13784W        W27198   3.559  11.970   0.531 -0.0839  0.1009 -0.3001
13785W        W27199   0.285   3.377   0.058  0.0989  0.1571 -0.2257
13786W        W27200  16.614  17.041  12.121  0.3365  0.1110  0.1813
13787W        W27201   4.761   9.549  14.712 -0.0304  0.4644 -0.3144
13788W        W27202   4.944  16.113  11.631  0.1483  0.1249  0.1005
13789W        W27203   7.426  15.571  13.634  0.2114  0.2328  0.1133
13790W        W27204   8.516   8.358  14.251  0.0448  0.0594  0.0215
13791W        W27205   0.120  12.714  12.964 -0.3548 -0.1148  0.1259
13792W        W27206  16.856   6.912   4.546 -0.0295  0.2195  0.1805
13793W        W27207  14.146   6.403  13.560 -0.0753  0.0597  0.3354
13794W        W27208   3.009   0.885  13.083 -0.0442 -0.1281 -0.3012
13795W        W27209   2.763   2.198   2.644  0.1021  0.0824 -0.1436
13796W        W27210  12.018   2.741  10.113 -0.1318 -0.0628 -0.3716
13797W        W27211  14.244   8.854  11.462 -0.0848  0.2726  0.0048
13798W        W27212  17.985   7.824   3.138  0.1209  0.2196 -0.1184
13799W        W27213   9.316  13.184  13.856  0.0193 -0.0106 -0.0245
13800W        W27214  13.341  16.317  16.153  0.0383 -0.0518 -0.2121
13801W        W27215  16.178   9.079  11.255  0.2709  0.2394 -0.0289
13802W        W27216   5.771  11.125   1.697 -0.1306 -0.2455  0.0020
13803W        W27217   6.412   5.875  15.336 -0.0803 -0.0305 -0.3644
13804W        W27218   3.155  16.565  10.410  0.0330  0.0546 -0.0075
13805W        W27219  17.522   9.972  12.578 -0.2532 -0.1235 -0.0595
13806W        W27220   1.865  17.673  13.629 -0.0628  0.1777  0.0051
13807W        W27221   2.152   9.629   2.826  0.0745  0.0081  0.1117
13808W        W27222   5.733  11.514   0.565 -0.0402  0.1050  0.1845
13809W        W27223  16.381  14.943  11.524  0.5709  0.1826 -0.0659
13810W        W27224   8.444   4.073  15.631 -0.2239 -0.3474 -0.1073
13811W        W27225  14.002   7.411  16.587  0.0564 -0.3794  0.0696
13812W        W27226  16.625   9.896   3.372  0.0615 -0.2386  0.2566
13813W        W27227  11.598   2.623  15.065 -0.1479 -0.2457 -0.3166
13814W        W27228   5.969  10.904  15.110  0.1900 -0.0473  0.2327
13815W        W27229  15.733   8.807  12.228 -0.3312  0.3184 -0.3403
13816W        W27230   8.865   1.690  12.843 -0.2306 -0.3195  0.0824
13817W        W27231  12.023  17.223  16.136  0.4126  0.2314  0.0151
13818W        W27232   5.248  11.795  11.573 -0.1860  0.1704  0.3754
13819W        W27233   5.395   5.995  16.598  0.2689 -0.0057 -0.1969
13820W        W27234  13.723  17.534  12.864  0.2480  0.0064  0.0270
13821W        W27235  11.703  12.675   3.048 -0.0691  0.2730 -0.0523
13822W        W27236  12.782  14.106  12.371  0.3472  0.1137  0.0238
13823W        W27237   0.309   8.120  13.469  0.1381 -0.2327 -0.3526
13824W        W27238   8.340  16.150   1.138 -0.0211 -0.1252 -0.0102
13825W        W27239  10.537  10.543   2.937  0.0924 -0.1795  0.1306
13826W        W27240  10.574  16.788   4.511  0.3204 -0.2873  0.0472
13827W        W27241   1.964   2.285  14.604 -0.0265  0.0039  0.1189
13828W        W27242   9.594   9.070  12.141  0.0169 -0.0887 -0.2433
13829W        W27243   7.738  15.688  15.383 -0.2371 -0.0475 -0.2511
13830W        W27244  16.492   0.621  13.892  0.1364  0.0701 -0.4021
13831W        W27245   6.541  13.183   2.641 -0.1383  0.0111 -0.4135
13832W        W27246   7.747  10.127  15.585 -0.0128  0.0415 -0.1827
13833W        W27247  17.016   5.402  14.582  0.1652 -0.1335 -0.3287
13834W        W27248   7.979  16.386   4.577  0.2383 -0.1947  0.0926
13835W        W27249  10.233   5.231  16.416 -0.1676 -0.1005 -0.1220
13836W        W27250  13.687   1.469  15.723  0.0087  0.0732 -0.0258
13837W        W27251  16.644   5.319   3.836  0.0864 -0.1830 -0.0549
13838W        W27252  11.308  11.113   1.788 -0.2592 -0.0117 -0.1823
13839W        W27253   0.970   4.428   0.082  0.0988 -0.2898  0.0466
13840W        W27254   3.934  12.880   1.447 -0.1780 -0.1279  0.0962
13841W        W27255   4.156   8.393   4.233 -0.3091  0.1805 -0.1622
13842W        W27256   9.013  16.688   6.125 -0.0125 -0.1618 -0.0217
13843W        W27257   1.666  12.045  12.319 -0.0546 -0.1332 -0.1306
13844W        W27258   3.189  13.864  15.011  0.2493 -0.0194 -0.1145
13845W        W27259   3.994   2.110   3.324 -0.0570  0.0838  0.1330
13846W        W27260  16.152  15.039  10.738  0.2598 -0.2823 -0.0053
13847W        W27261  12.722   3.825   1.602  0.2029 -0.1543  0.2119
13848W        W27262   6.805   3.260   0.322  0.0721 -0.3494 -0.3444
13849W        W27263  14.389  11.310   3.449 -0.1656 -0.0424 -0.0879
13850W        W27264  16.299   2.735  10.491  0.0886  0.1094 -0.1573
13851W        W27265  14.197  13.857  16.064 -0.0725  0.3571 -0.0909
13852W        W27266  14.999  13.143  12.700 -0.2099  0.0162  0.2567
13853W        W27267   5.531   8.449  11.098 -0.1218 -0.1249 -0.2366
13854W        W27268  12.651   0.736  12.298  0.2119 -0.1462 -0.0279
13855W        W27269   2.086  17.129  13.048 -0.1597 -0.0733 -0.2009
13856W        W27270   1.201  16.728   2.220  0.0347 -0.1261  0.3894
13857W        W27271   1.449   4.028  13.311  0.0032  0.2184 -0.0551
13858W        W27272   6.772   7.025   4.822  0.1247 -0.2070  0.0578
13859W        W27273  14.956  12.941  12.119  0.2608  0.0389 -0.1717
13860W        W27274   2.165  15.248  11.987 -0.1064  0.0535 -0.0313
13861W        W27275  10.162  16.745   6.435 -0.2388  0.1186  0.1747
13862W        W27276   1.287  16.104   3.624  0.0275 -0.1258  0.1555
13863W        W27277  14.303  17.877   5.712  0.0538 -0.1646  0.2218
13864W        W27278  12.830   0.168  16.402  0.0088  0.2014  0.1859
13865W        W27279   4.175   0.666   0.473  0.0925 -0.1473  0.6205
13866W        W27280   3.143   9.427  15.509  0.3886  0.2593 -0.0919
13867W        W27281   5.647  16.150  13.067 -0.1633 -0.1630 -0.0959
13868W        W27282  13.524  15.647   1.811  0.0781 -0.2350 -0.0961
13869W        W27283  17.091   3.441   0.542  0.1143 -0.3850 -0.0208
13870W        W27284   2.803  16.952   4.488  0.0069 -0.1818  0.2666
13871W        W27285  16.309   1.287   2.972  0.1919  0.3298 -0.0385
13872W        W27286   2.851  15.606   0.173 -0.0076  0.1088  0.1087
13873W        W27287   0.992   4.592   0.975  0.1063  0.4207  0.1346
13874W        W27288   7.815   3.307  15.326 -0.1409 -0.0393 -0.0027
13875W        W27289   4.401   6.571   4.385 -0.3630 -0.0406 -0.0358
13876W        W27290  14.875  12.098   1.379  0.0821  0.3227  0.1429
13877W        W27291  14.620   7.690   4.815  0.0353  0.1581  0.2982
13878W        W27292   1.491   5.501  12.189 -0.3142 -0.0139  0.0088
13879W        W27293   6.347  15.924  16.393 -0.2307  0.1764  0.3439
13880W        W27294  14.497   4.003  15.129 -0.1594 -0.0518 -0.0399
13881W        W27295  13.594   6.396  14.779  0.0724  0.2504 -0.0305
13882W        W27296   4.536   3.945  14.374  0.1683  0.1728  0.0651
13883W        W27297   9.224   6.717   5.581 -0.0123 -0.2862 -0.0952
13884W        W27298   6.087   1.459  15.672  0.2664  0.0136  0.0279
13885W        W27299   9.853   8.311   5.765  0.1490 -0.0290  0.2498
13886W        W27300  11.799  17.577  12.041  0.0595 -0.0363 -0.0798
13887W        W27301   9.167   9.075  13.402  0.3244 -0.0724  0.1715
13888W        W27302   8.000   1.475  14.820  0.0114 -0.0849 -0.0468
13889W        W27303   7.585   4.461  15.787  0.1306 -0.3418  0.3468
13890W        W27304   3.839  11.622  15.731  0.1285 -0.0373  0.1154
13891W        W27305  14.976   4.685   5.880 -0.1663 -0.3034  0.0408
13892W        W27306   7.580  15.641  12.394 -0.0519  0.1940  0.1674
13893W        W27307  10.518   4.590   4.137 -0.0358 -0.1181 -0.1555
13894W        W27308  17.827   7.145   3.828  0.4126  0.0376 -0.1414
13895W        W27309   9.877  13.088  11.510 -0.0070 -0.2149  0.0512
13896W        W27310   2.125   6.431   2.433  0.1254  0.0512  0.2383
13897W        W27311   9.695   9.671   0.190  0.1396  0.1575 -0.1647
13898W        W27312  13.477   0.628   1.217  0.0934  0.2738 -0.1673
13899W        W27313  13.608  15.602   5.850  0.1491 -0.2321  0.0127
13900W        W27314   1.966  16.890   3.327 -0.3269  0.0179  0.1678
13901W        W27315   1.834   0.111   1.551 -0.0139 -0.0007  0.0016
13902W        W27316   0.067   1.352  16.471 -0.0187 -0.3129 -0.0188
13903W        W27317   6.717  13.933   3.098 -0.2601  0.3386  0.1626
13904W        W27318   5.977  17.578  10.931  0.0442 -0.1088 -0.0088
13905W        W27319   3.506  17.066  11.025 -0.1672 -0.1494  0.1265
13906W        W27320  13.122   5.232  13.514 -0.0176  0.1209  0.1082
13907W        W27321  12.477   1.029  16.241 -0.3775  0.2025 -0.2603
13908W        W27322  17.122   7.025   3.329  0.0881  0.0617  0.1463
13909W        W27323  17.509  13.070  13.762  0.0753  0.1826 -0.2464
13910W        W27324   8.444  15.485  15.841 -0.0346 -0.0478 -0.0781
13911W        W27325   3.428  12.845   3.016 -0.2784 -0.0834 -0.0562
13912W        W27326   1.307   2.526   1.842  0.0416 -0.1485  0.2005
13913W        W27327  16.470  14.885  13.165  0.2966 -0.1624  0.0069
13914W        W27328  14.739   7.015  15.323 -0.3628  0.0663 -0.0852
13915W        W27329   6.186  12.454  15.517 -0.0100 -0.0063  0.0549
13916W        W27330  16.168   2.712  16.626 -0.1601 -0.0275  0.0170
13917W        W27331  14.358  10.379   1.865  0.2378  0.1267  0.1702
13918W        W27332   9.405   6.894  14.785  0.0373  0.1075  0.1547
13919W        W27333  17.971  14.559  14.372 -0.1323 -0.1074  0.1993
13920W        W27334  10.914  13.002   4.044  0.0559 -0.2262 -0.1343
13921W        W27335   6.727   8.685   1.326 -0.2800  0.0729 -0.0205
13922W        W27336   1.131   8.922   4.271 -0.1429 -0.0728  0.0803
13923W        W27337   8.971   5.775   0.110  0.0137 -0.0735 -0.1591
13924W        W27338   3.858  15.666   0.463 -0.0805 -0.1830  0.3492
13925W        W27339   4.619  10.175   0.190  0.0074  0.0164  0.0613
13926W        W27340   4.399  17.830   1.089  0.0456  0.3544  0.3877
13927W        W27341  11.156  16.057  15.108  0.2415 -0.1147 -0.0337
13928W        W27342  16.894  17.737  11.137  0.0801 -0.2427  0.1206
13929W        W27343  17.634   5.423  11.865  0.1738  0.0218 -0.0071
13930W        W27344   4.568  17.008  16.060  0.2638  0.0376 -0.1078
13931W        W27345  12.991  12.749   3.794 -0.3381  0.0176 -0.2839
13932W        W27346   2.500   8.921   1.425  0.0054  0.1484 -0.0013
13933W        W27347   9.135   2.059  10.479  0.0396  0.5701  0.3365
13934W        W27348  12.378   0.895  15.509  0.0561 -0.1568 -0.1521
13935W        W27349   6.330   9.115   1.727 -0.0642 -0.2096 -0.1119
13936W        W27350   7.019   7.710   2.282  0.3680  0.3680 -0.0008
13937W        W27351  10.322   1.727   3.553 -0.1021  0.0880 -0.1049
13938W        W27352   7.736  14.769   0.830 -0.1703 -0.3903 -0.1428
13939W        W27353  13.072   6.398  13.022  0.2238  0.0556  0.2240
13940W        W27354   9.113  10.190   5.974 -0.0315 -0.0544  0.0802
13941W        W27355   1.740   7.627   0.803 -0.0666 -0.1025  0.1931
13942W        W27356   8.150   0.053   1.396  0.0435  0.1381 -0.0057
13943W        W27357   2.096   7.042  10.234 -0.2345  0.1093 -0.2036
13944W        W27358  14.936   4.930  16.739  0.1653 -0.1872 -0.0868
13945W        W27359   8.681   3.758  10.041  0.3851 -0.0546 -0.1786
13946W        W27360  13.495  16.665   5.642 -0.0812  0.1412  0.1224
13947W        W27361   1.833  13.253  11.683  0.2140 -0.0307 -0.0033
13948W        W27362   1.067   3.459   0.120  0.0121 -0.3131 -0.2154
13949W        W27363   7.634   1.308   1.246 -0.0290 -0.3760  0.1671
13950W        W27364   1.391   8.722   3.279  0.1376 -0.2414 -0.4083
13951W        W27365  11.773   1.014  12.295 -0.0838  0.2537 -0.0694
13952W        W27366  13.998  17.876  15.891  0.0297 -0.0047 -0.0840
13953W        W27367  15.368   7.370  12.347  0.0274 -0.2417 -0.0152
13954W        W27368   3.859  14.136  11.064  0.0751  0.1447  0.0962
13955W        W27369  10.570   1.337  12.940 -0.1226  0.0768 -0.3215
13956W        W27370   2.883  17.889  13.236 -0.0573 -0.0063 -0.0619
13957W        W27371  10.735   1.977   1.906 -0.1129 -0.0705 -0.1953
13958W        W27372  15.606  11.045  15.986 -0.2082  0.2279  0.0649
13959W        W27373   2.523   0.815   5.269 -0.1204  0.0205 -0.2837
13960W        W27374   4.187   7.205  12.384  0.1590 -0.1972 -0.1732
13961W        W27375   9.733  10.807   6.473 -0.2090 -0.1517  0.0868
13962W        W27376  15.639   8.532  11.745 -0.0142 -0.0716  0.0486
13963W        W27377  11.461   3.340  12.223  0.0594  0.2264 -0.2328
13964W        W27378   6.752   6.692  14.782 -0.0457  0.0332  0.0958
13965W        W27379   1.230   7.853   3.539  0.0716 -0.0092  0.0338
13966W        W27380   5.732  13.553  12.852 -0.4539  0.2059 -0.2565
13967W        W27381  12.352   7.300   0.180 -0.2808 -0.2265  0.1291
13968W        W27382   9.952  14.455   5.239  0.0911 -0.1925 -0.2992
13969W        W27383   1.151   0.104  16.533 -0.0978 -0.0379  0.1346
13970W        W27384   9.856  15.680  12.275  0.4826 -0.1814 -0.0890
13971W        W27385  15.109   1.493  12.830  0.1456 -0.1364 -0.4435
13972W        W27386  16.168  15.957  13.267  0.2936 -0.0781 -0.0113
13973W        W27387   5.562  14.935   2.158 -0.0967 -0.0226 -0.1000
13974W        W27388   2.058   6.103   0.760 -0.2236 -0.1615 -0.0778
13975W        W27389   5.542   8.510  13.378 -0.1518 -0.0902  0.0029
13976W        W27390   3.050   2.048  15.299  0.1690  0.0459 -0.0116
13977W        W27391  10.116   9.689   1.444  0.0693  0.2455 -0.0777
13978W        W27392  17.505   6.149   3.786 -0.0046  0.0563  0.1144
13979W        W27393  11.448   7.450  16.245  0.1086 -0.1299  0.0130
13980W        W27394  12.705   4.367  11.948  0.2758 -0.2855 -0.2303
13981W        W27395   0.711  17.782   4.906 -0.0597  0.2764  0.1136
13982W        W27396  15.346   2.510   4.033  0.0967 -0.0937  0.1312
13983W        W27397   8.418  16.689   6.032 -0.1187 -0.2733 -0.2888
13984W        W27398   1.171  15.493   1.695 -0.1271  0.1525 -0.1317
13985W        W27399   6.473   6.951  13.490  0.0665  0.1009  0.0378
13986W        W27400   6.319  14.119   4.288 -0.1828 -0.0448  0.2440
13987W        W27401   9.253   3.909   3.489 -0.2652 -0.1819  0.1673
13988W        W27402   2.897  11.566   3.445 -0.0315 -0.1516 -0.0326
13989W        W27403  17.192   0.558  13.415  0.1330  0.0134 -0.0143
13990W        W27404   5.232  16.780  11.518 -0.0538 -0.0155  0.0429
13991W        W27405  11.150  12.357  15.717  0.0873 -0.1863 -0.0491
13992W        W27406   6.052  12.468   1.781  0.1846 -0.2569  0.0058
13993W        W27407  13.674   8.679  13.454  0.2460  0.1780  0.0763
13994W        W27408   5.203  16.828   4.558 -0.3392  0.0604 -0.2450
13995W        W27409   2.555  15.498   5.832 -0.0146 -0.0887  0.1259
13996W        W27410  16.091  12.715   1.413  0.1661 -0.1232 -0.0118
13997W        W27411   8.014  16.460   2.579  0.0915  0.1004 -0.3941
13998W        W27412  13.404   6.200   3.078  0.0017 -0.0186  0.1148
13999W        W27413  17.437  15.800   0.610  0.1989 -0.1185 -0.1300
14000W        W27414  11.397  11.361   3.139 -0.2669  0.0813 -0.2161
14001W        W27415   0.524  14.972   1.331  0.0273  0.1317 -0.1447
14002W        W27416   3.859  10.003  15.107  0.3240  0.0524 -0.0039
14003W        W27417   0.029  11.319   0.801 -0.0317 -0.1015 -0.0032
14004W        W27418   2.069   4.118   4.238 -0.1561  0.1540 -0.2285
14005W        W27419  15.838  10.784  13.614 -0.1275  0.1315  0.3185
14006W        W27420   4.788  15.844   1.285 -0.2409 -0.0524  0.0756
14007W        W27421  12.352  12.228   2.094  0.0301  0.1743  0.1728
14008W        W27422   5.106   9.069  16.295  0.1898 -0.0904  0.0532
14009W        W27423   5.757   6.060  10.190  0.3151  0.2843 -0.0617
14010W        W27424  11.615   3.502  15.417  0.0731  0.0926 -0.1948
14011W        W27425  14.446   8.831  13.811  0.1305  0.0077 -0.0110
14012W        W27426   5.279  12.159  12.796  0.1410  0.0568 -0.1004
14013W        W27427  16.650  15.424  11.511  0.0037  0.1768  0.1666
14014W        W27428   8.403   6.387   4.141  0.0988 -0.0119 -0.3893
14015W        W27429   7.268  13.551  14.530  0.3349  0.0701 -0.1456
14016W        W27430   7.126  15.328  15.172  0.2473  0.1262  0.1032
14017W        W27431   3.708   6.009  13.027 -0.1139  0.1038 -0.2104
14018W        W27432   2.723  17.563   2.013  0.0500  0.0840 -0.0604
14019W        W27433   5.672  16.678  16.692 -0.2190 -0.2592  0.1718
14020W        W27434   6.619  15.594   4.896 -0.0750  0.1174  0.2056
14021W        W27435   7.053   8.569   3.498  0.1911  0.0419  0.4559
14022W        W27436  16.253  12.788  16.668  0.0069 -0.1121 -0.2140
14023W        W27437   3.346   1.039   0.476  0.2414  0.2278  0.0461
14024W        W27438  15.761  16.126  13.541 -0.1462  0.0089 -0.0437
14025W        W27439   0.311  13.387   6.178 -0.0565  0.1917 -0.0984
14026W        W27440   5.572   4.269  11.699 -0.2420  0.3968 -0.0692
14027W        W27441   1.956   2.789   2.986 -0.0470  0.0659  0.4107
14028W        W27442   6.847   4.294  13.271 -0.0712  0.0173 -0.0102
14029W        W27443  14.408  14.519   0.792 -0.0403 -0.0578 -0.0725
14030W        W27444  10.679  15.769   1.766 -0.0272 -0.3164 -0.3093
14031W        W27445   3.775  10.175  14.599 -0.0055  0.1466 -0.0247
14032W        W27446  17.052  14.443  11.872 -0.1086  0.1180  0.1566
14033W        W27447  10.067   1.523  13.782  0.2264 -0.0850 -0.1266
14034W        W27448   8.657   0.850  11.052 -0.0413 -0.1196  0.0114
14035W        W27449  12.797   9.901   3.441 -0.3285  0.0453 -0.1375
14036W        W27450   3.595  16.494  13.546 -0.0368 -0.3834  0.0249
14037W        W27451  17.200  12.097  14.795 -0.0751  0.0161 -0.0412
14038W        W27452  10.107   8.924  12.015 -0.0033  0.0186 -0.1879
14039W        W27453   8.910   2.820   0.821 -0.2308  0.1949 -0.0703
14040W        W27454   9.785   5.654  14.267  0.1249 -0.0680 -0.2215
14041W        W27455  13.663  12.416   1.089  0.2272  0.0592  0.0254
14042W        W27456   8.715   6.766   4.290  0.3377 -0.1853 -0.1582
14043W        W27457   6.231   0.989  10.850 -0.2573  0.1559 -0.3762
14044W        W27458   2.085  11.764  12.425 -0.2356  0.0507 -0.2354
14045W        W27459   6.539  13.965   1.997  0.1894  0.0053  0.1546
14046W        W27460   5.570  14.529  14.964 -0.0943  0.0268 -0.3199
14047W        W27461   8.903   2.831   3.967  0.1017 -0.1170 -0.1338
14048W        W27462   0.624  13.717   3.187  0.3759  0.0758  0.0132
14049W        W27463   5.012   2.299  14.462 -0.0079 -0.0530 -0.2841
14050W        W27464   9.778   5.116   1.672  0.0732  0.1012  0.2233
14051W        W27465  15.196  15.619   2.454 -0.0635  0.1135  0.1502
14052W        W27466   9.624   1.436   2.733 -0.0641 -0.1173  0.2187
14053W        W27467  17.341  13.079  14.984  0.1087 -0.2433 -0.0321
14054W        W27468   6.356  13.672   3.943 -0.1801 -0.1935 -0.2545
14055W        W27469   3.237  17.810   4.381  0.0394 -0.1430 -0.5248
14056W        W27470  17.023  17.013  12.572 -0.1210 -0.0318  0.0317
14057W        W27471  10.365  14.694   5.365 -0.0861 -0.0652  0.0152
14058W        W27472  13.705   6.214   1.354 -0.3461  0.0513  0.1903
14059W        W27473   6.592   5.730   4.123  0.3256 -0.2886  0.1158
14060W        W27474  15.971  17.491   5.443 -0.1000 -0.1797  0.2984
14061W        W27475  13.267   4.270  14.755 -0.1856  0.0536 -0.1723
14062W        W27476  16.984  12.747   5.057 -0.0708 -0.1042  0.0774
14063W        W27477   6.613  16.249   4.488 -0.1282 -0.0318 -0.1393
14064W        W27478   2.271   9.042   5.615  0.1392 -0.2879  0.1360
14065W        W27479   6.480  15.775   3.679  0.0824 -0.0056  0.1140
14066W        W27480  15.778  13.078   1.733 -0.0159  0.1007  0.1373
14067W        W27481   6.446  16.757   5.101 -0.2110  0.0646 -0.5481
14068W        W27482  14.833   4.019  11.705 -0.2325  0.0943 -0.3037
14069W        W27483  18.006  12.329   5.344  0.0477  0.3069  0.1324
14070W        W27484  15.806   8.641  15.794 -0.0793  0.0427  0.2270
14071W        W27485  10.366   2.450  11.104  0.0249  0.0551 -0.2165
14072W        W27486   6.292   2.468   1.381  0.2608  0.1776 -0.0828
14073W        W27487   4.656  12.225   3.080 -0.2712  0.0555 -0.0995
14074W        W27488   5.712   8.242   3.114 -0.2768 -0.0439  0.0475
14075W        W27489   6.576   1.416  13.112 -0.0035  0.0937  0.1006
14076W        W27490   5.631   0.870  13.425 -0.0891 -0.2287  0.0845
14077W        W27491  17.269  10.194   0.600 -0.1137  0.1306 -0.1551
14078W        W27492   4.526  12.937  13.606  0.0979 -0.0759 -0.0432
14079W        W27493  17.854   3.014  15.630 -0.0832  0.1918 -0.1490
14080W        W27494   0.045  15.807  16.382  0.0632  0.0825 -0.0646
14081W        W27495  10.075   3.716  11.770 -0.3482 -0.0551  0.1845
14082W        W27496  13.171   8.654   6.383  0.2288  0.2315 -0.0012
14083W        W27497   6.082   5.149   4.873  0.1899 -0.2731 -0.0613
14084W        W27498   9.782   5.605  12.881 -0.3353  0.2118  0.0721
14085W        W27499  13.619  15.257  16.647  0.2052  0.0348 -0.0029
14086W        W27500  17.117   6.028  13.951  0.0365  0.2169 -0.1418
14087W        W27501   5.089  11.108   3.428  0.2537  0.0391  0.1415
14088W        W27502   6.124  14.187  13.496 -0.1550  0.3019 -0.1887
14089W        W27503   9.529  17.779   0.210 -0.0341  0.0942 -0.0615
14090W        W27504   4.853   4.444  12.350 -0.1697 -0.0270  0.0801
14091W        W27505   7.816   1.811  10.844 -0.0863  0.0052 -0.3743
14092W        W27506   1.806   4.168   3.080  0.1220  0.1609  0.0575
14093W        W27507  14.735   7.454   2.174 -0.3297 -0.0189 -0.0717
14094W        W27508   0.318   2.262  11.326 -0.1310  0.0545 -0.0322
14095W        W27509  10.286   3.400   6.194  0.1256 -0.2240 -0.1874
14096W        W27510   2.716  13.690   5.881 -0.1994  0.0247 -0.1033
14097W        W27511  17.467  16.644   1.387  0.3117 -0.0010 -0.2542
14098W        W27512  15.184   7.446  14.636  0.1564 -0.0738 -0.2853
14099W        W27513   3.720  17.319  12.225 -0.2477 -0.0763 -0.1552
14100W        W27514   4.576  17.857   2.193 -0.2390 -0.1630 -0.2812
14101W        W27515   6.964   3.694   5.368  0.2926  0.0324 -0.2204
14102W        W27516   4.719   3.033   2.106 -0.1218 -0.1954 -0.0690
14103W        W27517   0.605  11.964  12.000  0.1405 -0.4384  0.0613
14104W        W27518   2.625   1.559   5.935  0.1334  0.0343  0.1721
14105W        W27519  12.410   7.691  11.087  0.0588 -0.0585  0.1547
14106W        W27520   0.288  15.781  13.284  0.2437 -0.0277 -0.0814
14107W        W27521   4.078   5.987   3.718  0.0343 -0.0505 -0.2003
14108W        W27522   0.562  13.037  13.758  0.0902  0.1542 -0.2265
14109W        W27523   5.313   5.069  16.752 -0.4942 -0.1155 -0.1221
14110W        W27524   0.889   7.035  14.432 -0.0188 -0.2976 -0.2013
14111W        W27525  16.132  15.224   4.199  0.0640  0.2898 -0.4144
14112W        W27526   8.910   5.787   0.627  0.0774  0.0293 -0.1549
14113W        W27527  13.336   6.621  12.301 -0.1611  0.1840  0.1072
14114W        W27528  17.530   1.883  15.968 -0.3701  0.1180  0.1818
14115W        W27529  10.441   5.711  15.480  0.4399  0.3981 -0.0813
14116W        W27530   1.133   5.236  10.995  0.1256 -0.3982  0.2573
14117W        W27531  12.186  14.251  11.602 -0.2642  0.0033 -0.1380
14118W        W27532   7.882   1.106   4.349  0.0162 -0.0320 -0.0972
14119W        W27533  14.065  12.985  16.630  0.0482 -0.1988  0.1506
14120W        W27534   8.154   6.078  11.987 -0.1367  0.0153 -0.0664
14121W        W27535  17.657   7.205  13.725  0.0763 -0.1327 -0.2740
14122W        W27536   2.899  12.118  16.750 -0.0484 -0.3608  0.2305
14123W        W27537   8.524  17.676   1.132 -0.0325  0.1071  0.0765
14124W        W27538   3.677   4.977  15.309 -0.1099  0.1991 -0.2072
14125W        W27539  13.377   4.948   3.275  0.0026  0.2039  0.1747
14126W        W27540  14.960   9.878  13.870  0.5529  0.0472  0.1056
14127W        W27541   4.568   5.957  13.829 -0.1506 -0.1722 -0.1927
14128W        W27542  13.841  15.464  14.630  0.2746 -0.0678  0.2839
14129W        W27543   9.277   2.098  11.896  0.0651 -0.1331 -0.2402
14130W        W27544   4.882  12.492  11.746  0.0328  0.0957  0.1192
14131W        W27545   1.740   4.100  16.532  0.0273  0.0941  0.4637
14132W        W27546  10.506   1.615  13.388 -0.0877 -0.0848  0.2692
14133W        W27547  14.255   1.075   0.865 -0.2987 -0.2504 -0.1215
14134W        W27548  13.026  16.085  14.560  0.1247 -0.0149 -0.0196
14135W        W27549   6.449   7.048   2.801  0.0733  0.0661 -0.2206
14136W        W27550   8.746  12.538  11.945 -0.0736  0.0745 -0.0395
14137W        W27551  16.598   9.603  12.314  0.1412 -0.1155 -0.0920
14138W        W27552   6.378   7.364   3.306 -0.1437 -0.2879  0.0852
14139W        W27553  17.777  16.233  16.326 -0.0123 -0.0661  0.3341
14140W        W27554   3.682   4.602   5.643  0.0747 -0.3570  0.0742
14141W        W27555   3.435   4.185   3.894  0.0984 -0.2190 -0.1388
14142W        W27556   7.828   3.882  16.664 -0.0658 -0.2209  0.1508
14143W        W27557   6.838   5.789   5.082 -0.0492  0.2430 -0.0903
14144W        W27558  16.986   1.256   2.324  0.1785 -0.1895 -0.1746
14145W        W27559   5.849   1.488  10.884 -0.0507 -0.0260 -0.0506
14146W        W27560   1.593   2.478  12.859  0.0624  0.2845 -0.2099
14147W        W27561   9.201   5.106  12.080  0.0053 -0.3476  0.0592
14148W        W27562   8.963   8.637   2.199  0.0302  0.1539  0.1683
14149W        W27563   4.598   3.516  13.499  0.0814 -0.3008 -0.1187
14150W        W27564  14.487  14.334  13.136 -0.1487  0.0112  0.1449
14151W        W27565   8.628   8.167  11.372  0.1204 -0.1958 -0.0828
14152W        W27566   0.907  12.746  15.542  0.1395  0.2414 -0.1473
14153W        W27567  12.403  15.463   5.420 -0.0678  0.0497 -0.2114
14154W        W27568   0.544   1.494  14.067  0.3319 -0.1680  0.2602
14155W        W27569  13.821   7.704   1.592  0.1423  0.2253  0.1254
14156W        W27570  16.877  10.463   1.782  0.1888  0.0038 -0.1172
14157W        W27571  12.045  12.991  16.544  0.0549 -0.0651  0.2477
14158W        W27572   7.470   3.067   1.790 -0.1131  0.1744 -0.0885
14159W        W27573  13.642   6.649  14.349 -0.1086 -0.0271 -0.0154
14160W        W27574   5.601  12.524   2.753  0.1642 -0.0212 -0.2339
14161W        W27575   9.820  15.160   2.828 -0.2012 -0.3252  0.2578
14162W        W27576  13.957  12.498   2.255 -0.1392  0.3218  0.0532
14163W        W27577  15.455   9.613   4.826  0.2123 -0.0439 -0.2675
14164W        W27578   7.329   1.028  12.166 -0.3123  0.0924  0.0747
14165W        W27579   7.906  13.589   2.248  0.0783  0.2190 -0.2745
14166W        W27580   0.054  17.627  11.877  0.0788  0.0491  0.1377
14167W        W27581   3.659  14.818  10.374 -0.0928 -0.1374  0.0540
14168W        W27582   4.942   2.792   4.530 -0.1279 -0.0131 -0.1765
14169W        W27583   1.966   6.526   1.319 -0.0936  0.2230 -0.1667
14170W        W27584  16.889   7.644   5.225 -0.0352  0.1655  0.2228
14171W        W27585   9.300   1.042  16.263 -0.0996  0.1877  0.1476
14172W        W27586   1.754   2.361  12.397 -0.1977  0.1560  0.0680
14173W        W27587  12.178  17.938  15.735 -0.1146 -0.1999  0.0234
14174W        W27588  10.439  13.186  14.336  0.1090 -0.0941  0.1939
14175W        W27589   8.193   3.461  13.665 -0.1672  0.1168 -0.2130
14176W        W27590   5.729   9.363   3.890  0.0768  0.0322  0.0230
14177W        W27591   1.827  17.394   0.390 -0.0796  0.1537 -0.2187
14178W        W27592   7.105  10.958  11.573 -0.2163  0.1360  0.0073
14179W        W27593   1.126  11.871  12.656  0.2353 -0.2218  0.1157
14180W        W27594   6.682  16.081  16.048  0.4323 -0.1140  0.0595
14181W        W27595   1.739  12.553  14.677 -0.0892  0.0620  0.2430
14182W        W27596  14.179   8.013   1.322 -0.0297  0.0820  0.0339
14183W        W27597   1.943  12.548  15.996 -0.2391  0.0294 -0.0244
14184W        W27598   6.859   7.529   4.049 -0.1817 -0.0592  0.1210
14185W        W27599   9.395   2.874   0.811  0.0416 -0.2703 -0.0276
14186W        W27600   9.427   5.753   0.499 -0.0919 -0.2960  0.0753
14187W        W27601  16.601  16.830  15.871 -0.3038 -0.0402 -0.0469
14188W        W27602  15.947   6.584  13.418  0.0353  0.2775  0.3462
14189W        W27603  15.786  15.286  14.663 -0.2575 -0.0489  0.1841
14190W        W27604  11.172   9.055  15.542  0.1546  0.3031  0.1512
14191W        W27605   9.707   1.105  10.147 -0.1397  0.1757 -0.0890
14192W        W27606   4.955   3.635   2.864  0.0411  0.1009  0.0330
14193W        W27607   3.016   7.764   2.839 -0.1096 -0.4314 -0.0051
14194W        W27608   5.123   8.500  13.079  0.1539 -0.0953  0.1534
14195W        W27609   2.499   0.746  10.312  0.0461  0.0783 -0.0248
14196W        W27610   6.242   2.685  15.495  0.0159 -0.0808 -0.0282
14197W        W27611   5.919   5.293   5.310  0.3385  0.2358 -0.1451
14198W        W27612   0.205   3.672   3.917 -0.0079  0.2095 -0.0190
14199W        W27613   7.865  16.241  13.993  0.1215  0.1704  0.0816
14200W        W27614  12.777  15.489  11.290  0.1602 -0.3256  0.0278
14201W        W27615   9.137   1.209   4.866 -0.0863 -0.2014 -0.1527
14202W        W27616   2.240   7.716   1.789  0.1748 -0.0728 -0.1651
14203W        W27617  17.855  16.937  13.344  0.0136 -0.1396  0.0528
14204W        W27618  13.300   3.179   0.787 -0.1527 -0.0313  0.0911
14205W        W27619   7.496   5.245  12.974  0.1564  0.0062 -0.1079
14206W        W27620   2.539   9.388  16.394  0.0440  0.3258  0.3695
14207W        W27621   3.046   5.406   4.553 -0.1488  0.1475 -0.0310
14208W        W27622   3.917   6.115   2.746  0.0368  0.0022 -0.0664
14209W        W27623   4.749   5.383  11.997  0.0731 -0.1397 -0.2046
14210W        W27624  11.778   0.979  14.979  0.0816 -0.2591 -0.0542
14211W        W27625  13.531   0.201   6.643  0.1094  0.2675  0.2782
14212W        W27626  10.335   8.416  16.691 -0.0794 -0.2331 -0.3008
14213W        W27627   9.029  17.325   5.476  0.1044  0.3996 -0.1795
14214W        W27628  14.890  15.759   6.191  0.0486 -0.0194  0.0560
14215W        W27629   0.633  10.136   0.946  0.4207  0.0325 -0.1648
14216W        W27630   1.145   2.611  12.789  0.0626  0.2340 -0.1363
14217W        W27631  16.390   7.294  12.787  0.1791  0.3344  0.0236
14218W        W27632  10.490   2.486  15.071  0.3779 -0.1862  0.0386
14219W        W27633   2.724  12.925   3.235  0.0899  0.3928  0.1764
14220W        W27634   3.450  17.406  10.599 -0.3025  0.0763 -0.3632
14221W        W27635  12.550   6.433   6.378 -0.0853  0.0633  0.0347
14222W        W27636   0.014  13.075   2.199  0.0248 -0.0054 -0.1370
14223W        W27637   8.902  12.155   0.415 -0.2045  0.3088 -0.4652
14224W        W27638   5.022  13.831   1.162  0.4369 -0.1255  0.1997
14225W        W27639  10.004  10.440   4.662 -0.1610  0.0237  0.0625
14226W        W27640  14.654   8.005  11.047  0.2502 -0.1068  0.0445
14227W        W27641  17.922   9.290  13.989 -0.1137  0.0371  0.0361
14228W        W27642   7.231   7.156   5.007 -0.1500 -0.2863 -0.3066
14229W        W27643   7.602  12.372  16.548 -0.1552 -0.0308 -0.0437
14230W        W27644   0.791   9.698  14.787  0.0279  0.0724  0.0919
14231W        W27645   3.694   1.065   1.226 -0.0791  0.0935 -0.3288
14232W        W27646  10.898  14.587   4.927  0.2615 -0.0035 -0.0678
14233W        W27647   3.434   2.908   1.243 -0.0496  0.2178  0.1025
14234W        W27648   3.646   5.748   6.058 -0.0122 -0.1165 -0.1810
14235W        W27649   3.911  16.332   3.738 -0.3454 -0.0896  0.4391
14236W        W27650   2.433   5.351   3.006  0.2041  0.1482  0.0896
14237W        W27651   1.196  11.786  13.191  0.0521  0.2539 -0.3857
14238W        W27652   9.264   6.648  12.228 -0.0384 -0.2054  0.1303
14239W        W27653  15.908  15.175   3.352 -0.2482  0.3504  0.1734
14240W        W27654  17.437   9.223   0.382 -0.0373 -0.1911  0.2140
14241W        W27655   3.224   0.716   3.963  0.2839  0.0633  0.3211
14242W        W27656   0.910   6.394   5.460 -0.4487  0.0882 -0.1736
14243W        W27657   9.500   8.323  13.777  0.0849 -0.0398  0.0358
14244W        W27658  16.949  12.082  15.297  0.3302  0.2779  0.0688
14245W        W27659  12.851  16.296   2.497 -0.0427  0.2865 -0.1349
14246W        W27660   6.236  15.879  12.245 -0.0854  0.2259  0.3982
14247W        W27661   3.678   9.467   5.804  0.1875 -0.1117  0.0623
14248W        W27662  17.286   8.836   0.675  0.1776  0.2084  0.1734
14249W        W27663  11.199  16.252  15.586  0.2791  0.0880 -0.0738
14250W        W27664   9.006   6.400   1.251 -0.0149 -0.0533 -0.0116
14251W        W27665  10.863  13.530   1.736 -0.0273  0.3763  0.0679
14252W        W27666  14.191   4.640  11.775  0.0457  0.0474 -0.1282
14253W        W27667  17.196  14.411  13.787 -0.1076  0.0960  0.1665
14254W        W27668  13.221   8.401  14.858  0.0784 -0.4568  0.0628
14255W        W27669   5.046  12.446  12.463  0.1990  0.1436  0.2936
14256W        W27670   7.316  14.781   0.636  0.1205 -0.0133 -0.0675
14257W        W27671  14.085   3.526  12.664 -0.1785 -0.1330 -0.0363
14258W        W27672  11.345  15.486  16.537  0.0035 -0.1445  0.0221
14259W        W27673  17.980  12.126   1.674 -0.2839 -0.0103  0.0649
14260W        W27674   9.569  17.179   0.906 -0.1678 -0.0870  0.1163
14261W        W27675  13.986  12.547   5.290 -0.0212  0.1653 -0.1390
14262W        W27676   2.743   6.925  13.725 -0.0794 -0.1363  0.0694
14263W        W27677   3.147   3.331  12.496 -0.0595 -0.2338  0.0612
14264W        W27678   6.032   5.204  13.923  0.0771 -0.0286 -0.0243
14265W        W27679   2.540   0.509   2.102 -0.1016 -0.0675 -0.0797
14266W        W27680   2.485   2.054  13.689  0.0675  0.1270 -0.1931
14267W        W27681   5.184  12.288   3.504 -0.3900  0.1039 -0.0185
14268W        W27682  11.992  14.226   2.296  0.0226 -0.0370 -0.1086
14269W        W27683   3.443   7.136  12.929  0.2472 -0.0495 -0.0600
14270W        W27684   9.430   2.808  14.168 -0.0972  0.0588  0.0852
14271W        W27685   8.511   2.032  11.905  0.0484 -0.0974  0.0009
14272W        W27686  12.130  16.516  12.735 -0.0768  0.0270 -0.0780
14273W        W27687  13.056   5.564   1.669 -0.0277  0.0017 -0.0269
14274W        W27688  11.433   4.385   3.178  0.4405  0.0530 -0.2065
14275W        W27689   4.225   8.414  15.060 -0.0735  0.2256  0.0592
14276W        W27690  17.175   7.022  15.288  0.1789 -0.1876  0.2188
14277W        W27691  17.621  16.324   4.461  0.0998  0.0589 -0.1046
14278W        W27692   2.739   5.359  16.756 -0.3209 -0.2419 -0.0424
14279W        W27693   3.659  14.966  13.416 -0.3734 -0.0196  0.2008
14280W        W27694  11.127  16.524   6.085 -0.2799  0.4231 -0.3083
14281W        W27695   0.851   5.656  11.634 -0.1866  0.3186 -0.3710
14282W        W27696   4.978  15.140  16.312 -0.2168  0.0372  0.0448
14283W        W27697   6.946  10.093   4.078  0.0945  0.2200  0.1825
14284W        W27698   4.306  11.319  12.945  0.3447 -0.2579 -0.0562
14285W        W27699  15.557   3.054   4.613  0.3627 -0.0290 -0.0144
14286W        W27700   9.041   2.196   1.209 -0.0989  0.2703 -0.0140
14287W        W27701   6.461   2.425   5.092  0.0366 -0.0803 -0.0094
14288W        W27702  15.587  14.555   3.874 -0.1356 -0.2871 -0.0681
14289W        W27703  13.448   8.445   5.453  0.1886  0.2164  0.2062
14290W        W27704   8.333  17.985  13.644  0.2046  0.2259  0.2008
14291W        W27705  12.710  15.689  16.545 -0.0920  0.0497 -0.0157
14292W        W27706   9.071   2.380   1.660  0.0752 -0.0437 -0.1282
14293W        W27707  16.149  17.126  10.989  0.2541 -0.0266 -0.1677
14294W        W27708   9.081  13.724   3.703 -0.3326  0.2659  0.1223
14295W        W27709   9.911  10.477   0.561 -0.0037 -0.1963  0.1787
14296W        W27710  15.378   3.868   2.071 -0.1890  0.0552 -0.0532
14297W        W27711  13.430   7.867  16.035  0.0705 -0.0312 -0.0230
14298W        W27712  15.508  10.635  12.563 -0.0656 -0.2056 -0.1621
14299W        W27713   5.618   7.933  12.181 -0.0441 -0.0856 -0.1401
14300W        W27714  17.621  16.049   1.006 -0.0380  0.0760  0.1618
14301W        W27715  13.351   0.056  11.379 -0.1137 -0.1642  0.2156
14302W        W27716   1.135  16.621  13.352 -0.1454  0.2258  0.0602
14303W        W27717  14.410  14.073   6.362  0.1446 -0.1788 -0.1521
14304W        W27718   9.668   4.521   4.571 -0.3919 -0.0080  0.0948
14305W        W27719   4.845  14.934  15.875  0.1328  0.1256 -0.0824
14306W        W27720   4.173   1.102   3.748  0.0338 -0.3027 -0.1380
14307W        W27721   1.702   2.945   1.963 -0.0289  0.3799 -0.0665
14308W        W27722   1.876   5.513  13.023 -0.0384 -0.2776  0.0476
14309W        W27723   7.084   5.520  14.021 -0.0609  0.0924 -0.1265
14310W        W27724   5.867  10.642  14.206 -0.1754 -0.2085 -0.1400
14311W        W27725   2.027   6.275   5.300 -0.1031 -0.1619  0.0209
14312W        W27726  17.826   0.888  11.156  0.1393  0.0475  0.1148
14313W        W27727   2.742  10.496   2.745  0.1061 -0.1317  0.0557
14314W        W27728   6.608  17.003  13.681  0.0158  0.1422  0.0356
14315W        W27729   0.501  10.387   2.271  0.2303 -0.0815  0.0129
14316W        W27730   9.513  15.230  14.011 -0.0208 -0.0258  0.1129
14317W        W27731  13.070   8.591   7.243  0.0406  0.1848 -0.0581
14318W        W27732  16.397  12.032   3.553 -0.1714  0.0991 -0.4094
14319W        W27733  17.331   0.375  15.209 -0.2201 -0.1786  0.0229
14320W        W27734   8.291  11.000  13.527  0.2133 -0.1944  0.0484
14321W        W27735   2.165   2.397   1.294  0.0693  0.3010  0.2643
14322W        W27736  12.088  11.943   4.948  0.3346 -0.2996 -0.2715
14323W        W27737  13.356   5.827   4.515 -0.0117  0.0229 -0.0397
14324W        W27738  10.814  13.449   0.354 -0.2186  0.0139 -0.2036
14325W        W27739  16.378   8.248   3.640 -0.1937  0.0496  0.4292
14326W        W27740  17.884  15.721  12.404 -0.1387 -0.1049 -0.1022
14327W        W27741   4.237  10.247  13.769 -0.1943 -0.2044 -0.0039
14328W        W27742   1.268  11.397  13.881  0.2198  0.2257 -0.0394
14329W        W27743  11.898   2.787  11.081  0.1836 -0.1739  0.0863
14330W        W27744   6.174  13.834  15.884 -0.2163  0.1428  0.1663
14331W        W27745   2.067   6.531  13.613  0.0999  0.1288 -0.0848
14332W        W27746  16.077   9.385   0.646  0.2469  0.0883  0.0540
14333W        W27747   6.438  16.348  11.410 -0.2055 -0.1130  0.0057
14334W        W27748   6.376  16.276   5.003  0.2724  0.0171  0.1775
14335W        W27749  10.803   0.036   3.046  0.0362  0.0127  0.1977
14336W        W27750   3.250  14.267  11.495 -0.0369 -0.3766  0.1116
14337W        W27751  17.680   3.034   4.181 -0.2376  0.1084  0.1418
14338W        W27752   0.166  10.460   1.001 -0.0963 -0.1625 -0.0096
14339W        W27753   7.686   9.989  11.576 -0.1723  0.4503 -0.2241
14340W        W27754  13.369  16.619   4.988 -0.1645  0.0377  0.2807
14341W        W27755  13.517   9.095   5.206 -0.2713  0.0145  0.1017
14342W        W27756  16.413  14.990   4.573 -0.0139 -0.0037  0.1713
14343W        W27757  16.563  13.057   4.964  0.0887  0.1765 -0.1429
14344W        W27758  13.992   9.199  12.546 -0.0352 -0.2445  0.2100
14345W        W27759   7.318  12.750  13.570  0.1302  0.0602  0.2166
14346W        W27760  17.106   0.351  12.346  0.1575  0.0461  0.0786
14347W        W27761   7.682  16.803  11.533 -0.2273 -0.0632  0.2000
14348W        W27762  10.049   8.047  13.559  0.2505  0.0303  0.1306
14349W        W27763   0.045  11.681  15.556 -0.1369 -0.0224 -0.1244
14350W        W27764   6.532   7.356   0.156  0.0532  0.0711  0.4083
14351W        W27765   8.872  10.524   2.775 -0.1255 -0.0660 -0.0636
14352W        W27766  16.646   4.816   1.952 -0.3701  0.1180 -0.3171
14353W        W27767  13.135  13.095  15.054 -0.1265 -0.1071  0.1539
14354W        W27768  15.199  10.260   1.592  0.0855  0.1049 -0.0117
14355W        W27769  14.036   5.296  13.799  0.3615  0.0235  0.3169
14356W        W27770  10.217   0.692  12.449  0.0918  0.1143  0.0121
14357W        W27771   2.337  15.166   0.815 -0.4199 -0.3120  0.0323
14358W        W27772  10.048  15.648   4.458  0.3885 -0.1283 -0.0213
14359W        W27773   5.593   1.568  10.226 -0.0039 -0.2465 -0.2603
14360W        W27774   0.733   5.959  11.189  0.1867  0.0855  0.0691
14361W        W27775   5.539  15.197  12.712  0.0156 -0.0863  0.4969
14362W        W27776   1.691   3.310  13.749 -0.1427  0.1271 -0.0818
14363W        W27777  15.409  17.075  12.739 -0.2421 -0.2369  0.2529
14364W        W27778   4.553  14.953   1.762  0.4033 -0.2294 -0.1291
14365W        W27779  14.020  14.441   5.088  0.2178 -0.0012 -0.1567
14366W        W27780  12.209   6.710   0.901  0.2540  0.0173 -0.3587
14367W        W27781  15.910  14.955   4.674 -0.1691  0.1522  0.0315
14368W        W27782   0.659  11.595  11.215 -0.2542 -0.0537 -0.0558
14369W        W27783  13.220   4.712   5.742 -0.2758 -0.2191 -0.0173
14370W        W27784   6.142   0.013  12.960  0.0931  0.0819  0.1861
14371W        W27785   4.443  16.012  11.457 -0.1823 -0.0499 -0.0389
14372W        W27786   1.644  12.650   4.436  0.0831  0.0186 -0.0054
14373W        W27787  12.723   1.256   0.738  0.1650  0.0777 -0.0594
14374W        W27788   4.093  12.943  16.550 -0.3437 -0.0126  0.1371
14375W        W27789   6.846  11.575   5.594 -0.1256  0.3478 -0.0216
14376W        W27790  10.595  10.442   5.454  0.2053 -0.1200  0.0860
14377W        W27791  14.973  13.407   1.610 -0.1823 -0.1240  0.2413
14378W        W27792  16.830  10.138  10.293  0.0974 -0.0148 -0.1038
14379W        W27793   5.447  10.313  13.579  0.0064  0.1945 -0.1174
14380W        W27794   6.116   8.849  12.742  0.4299  0.0977 -0.0927
14381W        W27795   6.659   1.686   5.707 -0.0913 -0.3239 -0.2179
14382W        W27796   9.314  16.527   0.327  0.1039 -0.0982  0.0401
14383W        W27797  12.863  11.425   4.170 -0.1907  0.1186  0.0275
14384W        W27798  16.917  14.759  12.245  0.0137 -0.1651  0.0207
14385W        W27799  10.843   7.445   2.663  0.0976 -0.1651  0.0963
14386W        W27800  13.119   5.039  13.044  0.2653 -0.0353 -0.2392
14387W        W27801   7.086   0.096   5.473 -0.2418  0.3457 -0.1106
14388W        W27802  15.606  16.994  16.697 -0.4269  0.1167  0.2530
14389W        W27803  10.752  13.435   5.709 -0.1222 -0.1872 -0.0378
14390W        W27804  14.327  15.749  15.838 -0.1901  0.1352 -0.1500
14391W        W27805   8.833  12.274  12.371  0.3249 -0.0568 -0.0357
14392W        W27806  17.092  15.089   3.282 -0.2679 -0.0682 -0.0375
14393W        W27807   4.035   7.136   3.003  0.2877 -0.0872 -0.0727
14394W        W27808   2.914  11.108  15.412  0.1239 -0.1587 -0.0456
14395W        W27809  10.552  11.543   3.033  0.3107 -0.2490  0.1099
14396W        W27810  13.069  11.477   6.390  0.1167  0.1582  0.0597
14397W        W27811   0.235   0.593  15.297  0.0600  0.0366  0.3364
14398W        W27812   1.561  16.382  12.720 -0.1040  0.2557 -0.1248
14399W        W27813   7.211  15.441  16.452  0.1027 -0.1103 -0.0702
14400W        W27814   1.567  11.450   1.222 -0.1472 -0.1659  0.0569
14401W        W27815   3.045   0.673  13.610  0.2059 -0.2575 -0.1845
14402W        W27816   6.446   7.261  16.408 -0.1403  0.2657 -0.0146
14403W        W27817   3.673   1.959  11.475  0.0290 -0.0209  0.0845
14404W        W27818   9.498  12.136  14.970  0.1540  0.0912 -0.0716
14405W        W27819  12.645   5.055   1.411 -0.0696 -0.0101  0.1507
14406W        W27820   7.093  15.440  12.804 -0.0586  0.1134  0.1220
14407W        W27821   7.781   6.623   0.887  0.0991 -0.3532  0.0581
14408W        W27822  12.196   3.972   3.415 -0.0165  0.0737 -0.0369
14409W        W27823  17.426   8.483   1.050  0.0124  0.2503 -0.0540
14410W        W27824  17.033  15.000   0.256  0.0311 -0.2977  0.2351
14411W        W27825  16.172   5.880   0.912 -0.3337  0.3971 -0.2403
14412W        W27826   7.600  16.420   2.803  0.0843  0.2047 -0.1380
14413W        W27827  14.795   6.190  15.819 -0.0114 -0.0176 -0.3266
14414W        W27828   1.660   3.531  14.284 -0.2525  0.1136  0.0351
14415W        W27829   5.993   2.907   1.442 -0.1156 -0.0013  0.0056
14416W        W27830  15.897   0.834  13.610 -0.1753 -0.1051 -0.0147
14417W        W27831  15.783  12.613   2.310  0.0682 -0.0081  0.0715
14418W        W27832   2.908  12.094  16.034 -0.2356  0.1524 -0.1765
14419W        W27833   2.739   1.861  14.937 -0.2196  0.2393 -0.1316
14420W        W27834   1.884  14.087   0.152  0.1058 -0.1486 -0.3243
14421W        W27835  11.467   1.220   5.566  0.0081 -0.1209  0.2582
14422W        W27836   6.782  10.650  13.839  0.1234  0.0640  0.1587
14423W        W27837   7.306   9.217  12.119  0.0234 -0.2675 -0.1038
14424W        W27838  17.878   1.189  12.862  0.0012  0.0732 -0.2247
14425W        W27839  11.791  15.389   4.150  0.1227  0.0352  0.0623
14426W        W27840   2.281   5.812  11.692 -0.1012  0.2213 -0.4105
14427W        W27841   8.154  10.166  12.180  0.1316  0.0611 -0.1952
14428W        W27842  15.281  13.800  13.411  0.0353 -0.2727 -0.0540
14429W        W27843  14.931  10.188   2.871  0.2527 -0.0400  0.0529
14430W        W27844   6.271  16.437  12.405  0.1656  0.1214 -0.3333
14431W        W27845  13.773   0.987   1.047 -0.3917 -0.1026  0.2578
14432W        W27846   5.846   9.674   1.534 -0.1653  0.0590  0.0292
14433W        W27847   5.298   3.569  12.488 -0.2611 -0.1227 -0.1240
14434W        W27848   4.201   3.832  16.063  0.0641  0.2248 -0.1279
14435W        W27849   9.474  10.993  15.544 -0.5544  0.2011 -0.0671
14436W        W27850  16.554   4.545   5.109 -0.0326 -0.1580 -0.0675
14437W        W27851  14.599   8.688  11.928  0.0268 -0.1922  0.1461
14438W        W27852   9.691  17.450  12.630  0.0299  0.0333 -0.0335
14439W        W27853  10.753   9.369  11.425  0.0575 -0.0913  0.2257
14440W        W27854   8.999  15.331   3.930 -0.0529 -0.3259  0.1257
14441W        W27855   0.708  14.326   1.891  0.0309 -0.1037  0.0556
14442W        W27856  10.917   2.083   3.359 -0.0213  0.0073  0.1867
14443W        W27857   9.899   6.527  11.132  0.3164 -0.2484  0.1234
14444W        W27858  14.884   4.781  14.824 -0.0561  0.0698  0.0536
14445W        W27859  12.549   6.194  16.734  0.1490 -0.1050  0.2769
14446W        W27860  11.920   0.070   3.913  0.2684  0.1586  0.1074
14447W        W27861  15.835   6.581   0.229  0.0998 -0.3720  0.2283
14448W        W27862   1.824   3.241   3.863 -0.2780 -0.1164  0.4443
14449W        W27863  16.381  14.805  12.297  0.2821  0.1681 -0.0196
14450W        W27864   8.868   7.327   4.162  0.2824 -0.1667 -0.1717
14451W        W27865  17.570   7.725  12.155 -0.1748  0.0944 -0.1214
14452W        W27866  11.813  12.929   3.820 -0.0734  0.0062  0.1510
14453W        W27867  15.582   4.504   2.506  0.2279  0.0518  0.1495
14454W        W27868  15.917  17.836   2.619  0.0650 -0.1330  0.1716
14455W        W27869   5.689   7.911  16.492  0.0966 -0.1464  0.3511
14456W        W27870  13.651  12.214  13.274 -0.3066  0.0132  0.3397
14457W        W27871  17.369   5.768  14.320 -0.0110 -0.2435  0.2691
14458W        W27872  10.308   8.006  13.134 -0.0173 -0.0401  0.3151
14459W        W27873  11.429   5.893  16.615 -0.0462 -0.2022 -0.3091
14460W        W27874  11.276  16.371  12.429 -0.0386 -0.0198  0.1926
14461W        W27875  16.270  17.529  14.931  0.0870 -0.1621  0.2392
14462W        W27876  11.204   6.061  15.795 -0.0025 -0.3603  0.0790
14463W        W27877   6.399  17.147   2.276  0.1028  0.2671 -0.0309
14464W        W27878  14.492   1.094   5.278 -0.0358  0.1363 -0.0178
14465W        W27879   2.329   7.701  12.110  0.3213  0.1259  0.0818
14466W        W27880   1.332  16.311  14.179 -0.0672 -0.2801  0.2805
14467W        W27881  11.808   7.748   4.897 -0.0022 -0.0370  0.1974
14468W        W27882   8.569  11.791  13.105 -0.0470  0.0454  0.1367
14469W        W27883   8.834  15.722   2.903  0.2183 -0.1953  0.2106
14470W        W27884  13.027   4.886   2.208  0.1993  0.2615  0.2344
14471W        W27885  14.390   9.314  14.583 -0.3430  0.3562 -0.1799
14472W        W27886   3.424   2.188   3.228 -0.2347 -0.1798  0.0078
14473W        W27887  14.476   2.536   9.616 -0.2728  0.1059 -0.0562
14474W        W27888  17.825   1.735  12.835 -0.0977  0.1388 -0.0114
14475W        W27889  14.073   2.715  14.108  0.2336 -0.0678  0.1749
14476W        W27890  13.555   9.095   0.042 -0.0283 -0.5562  0.2287
14477W        W27891   3.967  14.922  12.878 -0.0533 -0.1688 -0.0869
14478W        W27892   8.821  14.198   1.492  0.0103 -0.1689  0.0105
14479W        W27893  13.502   4.325   4.378  0.2392 -0.0199  0.1921
14480W        W27894   5.712  14.778   4.164 -0.1801 -0.4798  0.0721
14481W        W27895  15.196   0.320   3.571 -0.2537  0.1059 -0.1330
14482W        W27896   3.039  16.991  13.040 -0.0651  0.0951  0.1769
14483W        W27897   9.390   2.025   0.390  0.0463  0.2754  0.0352
14484W        W27898   6.506  12.962  14.490  0.2647 -0.1688  0.0609
14485W        W27899  14.779   0.951   1.367 -0.2619  0.2390 -0.0644
14486W        W27900  14.567   1.683   1.694 -0.1682 -0.2071  0.2007
14487W        W27901  16.030  13.757   3.028  0.1130 -0.0052  0.3413
14488W        W27902   7.629   8.649   5.073  0.1774  0.0192 -0.1019
14489W        W27903   3.057  14.504  13.827 -0.2141  0.2344 -0.1146
14490W        W27904   2.358   6.609  11.712  0.2135 -0.3561  0.0934
14491W        W27905  17.195   2.589  11.572  0.0815  0.0718  0.0013
14492W        W27906  11.899  15.584  10.846  0.1800 -0.0362  0.0424
14493W        W27907   2.112  15.266  14.919  0.0509  0.0843  0.3053
14494W        W27908   4.245  10.847  15.581 -0.0470  0.0697 -0.4086
14495W        W27909   8.353  14.489  14.952  0.1305  0.1050  0.1413
14496W        W27910   0.708   8.173   2.849 -0.0234  0.2341  0.0715
14497W        W27911   2.399   3.778  16.077  0.1569  0.0648 -0.2987
14498W        W27912  10.425  17.881  14.127  0.1777  0.0064  0.0179
14499W        W27913  10.857  11.599   7.170  0.3300  0.0559  0.1880
14500W        W27914  13.953  11.728   5.635  0.2181  0.2722  0.1300
14501W        W27915   5.569  16.206   0.006  0.0981 -0.0001 -0.3503
14502W        W27916   1.673  13.721  15.536 -0.0984  0.0094  0.2711
14503W        W27917   6.896  12.491  12.100 -0.2734  0.0435 -0.0270
14504W        W27918   6.390   9.784   6.315 -0.1348 -0.0250  0.5054
14505W        W27919  11.318   2.213  14.966  0.1181  0.1189  0.0101
14506W        W27920  12.679  11.125   6.214 -0.1101  0.0177  0.0331
14507W        W27921   3.195   4.589  13.778  0.2308  0.1456 -0.1369
14508W        W27922   9.039   3.266  14.875 -0.0782  0.1908  0.0916
14509W        W27923   6.886   9.299  12.371  0.0861  0.0008 -0.2210
14510W        W27924   4.811   6.519  11.981 -0.1833 -0.2017 -0.1810
14511W        W27925   1.793   7.468  14.393  0.1149  0.0186  0.0604
14512W        W27926   9.414   4.344   1.776 -0.0014 -0.2465 -0.1770
14513W        W27927  17.873   9.820  14.984 -0.0818 -0.2920  0.0723
14514W        W27928  12.619  17.534   3.205  0.2808 -0.0155  0.0200
14515W        W27929  10.258   6.571   4.988 -0.1091 -0.1012 -0.1876
14516W        W27930  17.062  10.031   2.651 -0.1324  0.0562 -0.4065
14517W        W27931   6.779   7.217   2.386 -0.0949  0.0615 -0.1544
14518W        W27932  13.513  17.630  11.269 -0.1590  0.0342  0.3955
14519W        W27933   8.134  11.836   5.611 -0.0605 -0.1179  0.0349
14520W        W27934   4.004   1.520   0.573 -0.1299  0.0170 -0.1614
14521W        W27935   3.833  14.385   0.829  0.2212  0.0692  0.0031
14522W        W27936   7.185   2.262  10.486  0.0426 -0.1718  0.2353
14523W        W27937   0.414  13.279  14.727  0.0649  0.2786 -0.0835
14524W        W27938   1.340  10.972  11.616 -0.2593  0.0892  0.1002
14525W        W27939  12.113   2.693   3.361 -0.0831 -0.3164  0.1840
14526W        W27940   2.869   8.041  16.404  0.0666  0.0465 -0.0748
14527W        W27941   0.055  13.211  11.346  0.0193  0.0182 -0.1656
14528W        W27942   9.956  15.698  13.256  0.0534 -0.0138  0.1869
14529W        W27943   8.299   6.730   5.870  0.0100 -0.0261  0.0904
14530W        W27944   8.084  11.781  12.309  0.1346 -0.2299  0.1593
14531W        W27945   7.603   4.331  16.707  0.0194 -0.1527  0.2882
14532W        W27946  13.200   2.362  11.497  0.0872  0.0456 -0.0957
14533W        W27947   8.613  10.128   0.889  0.1299 -0.2408  0.4026
14534W        W27948  14.957   8.931  14.601 -0.1202 -0.2283 -0.0407
14535W        W27949   7.876  16.400  11.241  0.2778  0.0119 -0.1777
14536W        W27950   0.247   9.685  11.351  0.0364  0.1429  0.0215
14537W        W27951   4.493   1.219  10.564  0.1885 -0.0385 -0.0382
14538W        W27952   5.974  16.574   2.836 -0.0564 -0.2776  0.0860
14539W        W27953  10.269  16.040  15.001  0.1961  0.0132 -0.2388
14540W        W27954  15.951  16.991   4.581  0.1020  0.1528 -0.0305
14541W        W27955   1.467  12.774   1.825 -0.0058 -0.1195 -0.2302
14542W        W27956   1.126   9.479  13.810 -0.0894  0.4259 -0.0110
14543W        W27957  17.317   2.259  13.501  0.0575  0.1696  0.2450
14544W        W27958   0.772  12.111   1.678 -0.0235 -0.0486  0.0757
14545W        W27959  13.775  16.866  12.443 -0.3980 -0.0775  0.0022
14546W        W27960   5.355  16.489   4.183 -0.2438 -0.0516  0.0023
14547W        W27961  17.877  17.090  16.133  0.2808 -0.1440 -0.0029
14548W        W27962   9.278   7.402   3.857 -0.0733  0.2942 -0.1053
14549W        W27963   9.284  14.229  13.924 -0.0447 -0.2909  0.0452
14550W        W27964   8.698  16.214   1.862 -0.3166  0.1533 -0.2816
14551W        W27965   9.529   1.601  10.437  0.0320  0.0857 -0.0250
14552W        W27966   7.030   1.651  14.862 -0.0695  0.0152 -0.3724
14553W        W27967  10.251   1.999  11.274 -0.2282 -0.0515 -0.0157
14554W        W27968   3.125   8.268   2.857 -0.0710  0.0849  0.0746
14555W        W27969  13.388  10.886  15.813  0.1450  0.1372 -0.0728
14556W        W27970   3.777   3.834   5.210  0.0337  0.0380  0.1184
14557W        W27971   3.684   6.171   4.843  0.0322  0.1438  0.1807
14558W        W27972  11.762   1.020  11.025  0.0957  0.2441 -0.0050
14559W        W27973  16.233  13.210  14.625  0.2568  0.1131 -0.1429
14560W        W27974  13.309  13.136   4.996  0.1125 -0.2674 -0.0552
14561W        W27975   4.539   6.517   2.413  0.1948 -0.2202 -0.1224
14562W        W27976  13.915   5.453  10.922 -0.0557  0.3736  0.0032
14563W        W27977   9.425   3.963   2.644 -0.1260  0.0342 -0.0945
14564W        W27978   3.775   9.060   4.000 -0.1247 -0.3652  0.1667
14565W        W27979   5.689   6.099  11.955 -0.0427  0.3555 -0.1441
14566W        W27980   1.223  17.274   4.067 -0.0278  0.0724  0.4930
14567W        W27981  11.152  14.645   5.834 -0.2252  0.0694 -0.1112
14568W        W27982  10.677  14.500   3.660  0.0701 -0.1716 -0.2851
14569W        W27983   3.291  10.919   1.815 -0.2499  0.2347 -0.0316
14570W        W27984   6.718  14.620  12.363 -0.0046  0.0755  0.2002
14571W        W27985  14.269   0.642   3.358  0.1102  0.3193 -0.3208
14572W        W27986  13.935  14.557   4.349  0.5527 -0.1032  0.1668
14573W        W27987  15.293   2.698  12.362 -0.2916 -0.1413 -0.1676
14574W        W27988  15.152  13.615  15.632 -0.2947 -0.2401 -0.1757
14575W        W27989  12.695   7.675  10.620  0.0829 -0.3271  0.4239
14576W        W27990   9.371  14.051   5.529 -0.0587 -0.0738 -0.2052
14577W        W27991   3.082   3.860   1.030  0.1302  0.0790  0.0466
14578W        W27992  10.820   0.505  16.058  0.0814  0.2499  0.0462
14579W        W27993   8.956   0.289   2.905  0.0286 -0.0501  0.1661
14580W        W27994   2.416  10.597   1.969 -0.1089  0.0244 -0.2267
14581W        W27995  10.426   4.690   0.306 -0.0729 -0.0564  0.0185
14582W        W27996  10.389   6.428  12.979  0.1273  0.0815  0.2277
14583W        W27997   7.264   1.685  14.390 -0.0580  0.1470  0.0021
14584W        W27998  11.988   5.623  15.674  0.0267  0.0646  0.1796
14585W        W27999  13.255  17.316   2.514  0.0578 -0.0716  0.0617
14586W        W28000   8.155   2.560   6.110  0.1289  0.1526  0.1919
14587W        W28001   6.669  15.328  11.433  0.2303 -0.0012  0.2737
14588W        W28002  12.681  17.275   3.626  0.0541  0.0634  0.0169
14589W        W28003   2.741   7.805  13.241 -0.0765  0.2449 -0.0539
14590W        W28004  13.702   1.060  13.802 -0.2626 -0.1551 -0.2539
14591W        W28005   8.701   6.757   0.396 -0.1203  0.0906 -0.2071
14592W        W28006  11.888   7.642  10.948  0.1998  0.1297 -0.0579
14593W        W28007   6.049  12.028   1.218  0.1849  0.0266  0.1318
14594W        W28008  10.196   8.277   2.404 -0.0230  0.0040  0.2004
14595W        W28009  11.845  14.358   3.874 -0.0986 -0.1535 -0.2798
14596W        W28010   5.653  12.294  12.453 -0.1573 -0.2438 -0.0215
14597W        W28011   8.009   2.875  10.659 -0.3202  0.1040 -0.3000
14598W        W28012   1.435  11.732   3.229 -0.2673  0.1383  0.1954
14599W        W28013  13.874   1.815   5.168  0.3066  0.2246 -0.0471
14600W        W28014   9.093   2.794   4.960  0.1906  0.1143 -0.1073
14601W        W28015  11.323  13.442   0.493  0.0040  0.2443  0.1320
14602W        W28016  11.303  17.695  12.744 -0.5421  0.1284  0.3272
14603W        W28017  15.068   7.038   0.265  0.2650 -0.0560  0.1525
14604W        W28018  14.766  16.032  11.550 -0.1873  0.0048 -0.2795
14605W        W28019  10.487  14.332  15.457  0.0660 -0.4216 -0.3109
14606W        W28020  14.670   5.108  15.871 -0.1894 -0.0857  0.1053
14607W        W28021  14.986   9.899   0.192 -0.0936 -0.2392  0.1831
14608W        W28022  11.426   4.486  11.700 -0.1073  0.0336 -0.2813
14609W        W28023   7.536   8.254  14.788  0.1070  0.2007 -0.1813
14610W        W28024   1.261  12.464   2.756  0.0284 -0.1082  0.2004
14611W        W28025   2.527  15.899  11.495  0.3006  0.0528  0.2142
14612W        W28026   5.529   7.209  12.946 -0.1617 -0.2840 -0.0449
14613W        W28027   1.765  11.336   3.047 -0.2888 -0.2120  0.1920
14614W        W28028  15.169  16.634  16.338  0.1406  0.1276  0.1139
14615W        W28029   5.960  15.188   3.280  0.2484  0.2253  0.1503
14616W        W28030   9.833   9.188  11.684 -0.0929 -0.0798  0.2560
14617W        W28031   5.576   8.564  11.576 -0.1285 -0.0886 -0.1344
14618W        W28032  16.387  10.541   5.061  0.2846  0.0459 -0.4998
14619W        W28033   6.015  10.004  16.335  0.1983 -0.0177  0.3337
14620W        W28034   6.779  11.838   5.094  0.0186  0.2553  0.0028
14621W        W28035  13.979  17.375   4.675  0.0715 -0.1237  0.1957
14622W        W28036   6.643  11.990  12.177 -0.0164  0.0897 -0.1771
14623W        W28037   4.622  10.075   4.585 -0.1669  0.0144 -0.2046
14624W        W28038  11.612  17.727   6.320  0.0394  0.0441 -0.2734
14625W        W28039  11.276   2.596  15.505 -0.0092 -0.0170 -0.0395
14626W        W28040  16.532   6.667  14.808 -0.1130 -0.1213  0.0167
14627W        W28041   4.755   6.673  11.043  0.1785  0.2683  0.2073
14628W        W28042  14.501  13.406   5.494  0.1777 -0.0188  0.3072
14629W        W28043  12.383   0.304   1.016 -0.2252 -0.4280  0.1895
14630W        W28044   2.110   1.672  13.690  0.0870 -0.0883  0.1695
14631W        W28045  11.217  11.198  15.050 -0.0436 -0.1762  0.1728
14632W        W28046   8.274   7.268   5.208  0.5019  0.0879 -0.0272
14633W        W28047  14.211   2.013   3.503  0.2023  0.3646 -0.2978
14634W        W28048   8.532   7.401   0.758 -0.3644 -0.1606 -0.0628
14635W        W28049  15.995   1.568   1.378 -0.0837  0.1174 -0.0231
14636W        W28050   8.804   5.980   2.075  0.0495 -0.5340 -0.0388
14637W        W28051   6.774   2.822   2.920 -0.0471  0.0997  0.1902
14638W        W28052   2.921   8.308   0.946  0.0383  0.1487 -0.0121
14639W        W28053   0.309  11.882  10.984 -0.2955 -0.0497  0.2874
14640W        W28054   5.937   5.507  15.956  0.3623 -0.2909 -0.0695
14641W        W28055   8.481   3.662   2.277  0.0845  0.2360  0.0071
14642W        W28056   4.436  10.199   6.638 -0.0687  0.1187  0.3801
14643W        W28057  14.213   4.194  10.499  0.0267  0.2185  0.0129
14644W        W28058   2.079  13.430   4.159 -0.1254  0.3013  0.0246
14645W        W28059   9.133  15.731  11.590  0.0108 -0.0493 -0.0868
14646W        W28060  13.474   4.764   4.018  0.0323 -0.0917  0.0928
14647W        W28061   8.292   9.752   0.915 -0.0533  0.0022  0.1673
14648W        W28062  17.228   5.164   0.629  0.2435  0.0876  0.0684
14649W        W28063   4.879  16.534   9.913  0.2067  0.0777  0.1287
14650W        W28064  16.775  12.919   3.602 -0.2626  0.1228  0.0628
14651W        W28065  11.892   0.303   1.435  0.0394  0.0204  0.3971
14652W        W28066  11.482   2.948   2.599  0.1796 -0.1277  0.2647
14653W        W28067   3.407  15.488  15.286 -0.3672  0.3369 -0.1294
14654W        W28068   5.167  12.622  14.294 -0.2559  0.1949 -0.2839
14655W        W28069   3.732  17.406   2.434 -0.0129 -0.0570 -0.0231
14656W        W28070  16.922   0.689  15.576  0.0929  0.1932 -0.1353
14657W        W28071   4.024  17.462  14.956  0.0876 -0.0723 -0.0415
14658W        W28072   6.769   8.466  15.162  0.2123  0.1082 -0.0358
14659W        W28073   8.243  13.287   1.945 -0.1155  0.2045 -0.1590
14660W        W28074   0.099  11.822   5.556 -0.1092 -0.2611  0.2716
14661W        W28075   5.476  16.282   2.800  0.1298  0.2889 -0.1852
14662W        W28076   7.459  11.390  14.191 -0.0421  0.1441 -0.1537
14663W        W28077  10.233  13.094  11.138 -0.0887  0.1234 -0.1714
14664W        W28078  16.489  10.994   1.257 -0.1419 -0.0153 -0.1620
14665W        W28079   4.402  16.229  13.766  0.0740 -0.0381  0.3741
14666W        W28080   4.943  11.534  14.964 -0.1304  0.0931 -0.1806
14667W        W28081  12.844   7.545   2.340 -0.0325  0.0022 -0.5854
14668W        W28082  17.085   3.623   2.658 -0.1624  0.1203 -0.1605
14669W        W28083  12.900  10.404   3.670 -0.2672 -0.1024 -0.4566
14670W        W28084   3.180   8.485   1.738 -0.0511  0.2191  0.2327
14671W        W28085   9.280   8.184   2.543 -0.1821  0.0005 -0.0045
14672W        W28086   1.472  13.389  14.529 -0.0848 -0.1464  0.1228
14673W        W28087   4.439   3.122  11.362 -0.1431 -0.2609 -0.0520
14674W        W28088   0.658   9.649   0.052  0.0949 -0.0371  0.1610
14675W        W28089  11.302  17.398  14.451 -0.0944 -0.1492  0.1419
14676W        W28090  12.378   7.966   6.167  0.1877 -0.4000 -0.3472
14677W        W28091  12.204  12.118  14.963  0.2774 -0.0286  0.1525
14678W        W28092  13.182  12.783  16.585  0.0804 -0.1252 -0.0708
14679W        W28093  17.236  15.243  12.838 -0.0686 -0.3550  0.1232
14680W        W28094   2.856   6.796   4.871  0.0441 -0.0399 -0.1279
14681W        W28095  10.795  10.978   0.636  0.0699 -0.2043  0.3261
14682W        W28096  13.315  16.208   0.182 -0.2016  0.2355 -0.2189
14683W        W28097  10.992  12.522  14.836 -0.2264  0.2157 -0.2293
14684W        W28098  17.137   9.747  14.402  0.1769  0.1124 -0.0937
14685W        W28099   8.826   7.663  15.898 -0.0116  0.0475  0.1769
14686W        W28100  11.167  14.047  11.307  0.3965  0.0934 -0.1211
14687W        W28101   6.297  13.555   0.080 -0.1076  0.0950  0.1080
14688W        W28102  10.540  11.877   0.124  0.0232  0.2503  0.1802
14689W        W28103  13.564  17.919  16.226 -0.2119  0.0557  0.0785
14690W        W28104   7.079   3.568  12.152 -0.0360  0.3137 -0.0594
14691W        W28105  18.004  17.805  12.427  0.1959 -0.1075 -0.0233
14692W        W28106  14.079   1.564   3.253 -0.1624 -0.3857 -0.0640
14693W        W28107   1.651  15.737  12.729 -0.1840  0.2024 -0.0591
14694W        W28108  13.839   5.622   0.572 -0.3189  0.3474 -0.2322
14695W        W28109  13.181   5.737   1.058  0.3431 -0.0714 -0.1089
14696W        W28110   8.895   2.626  13.910  0.0020  0.0008 -0.0057
14697W        W28111  13.115   2.045   5.602  0.1553 -0.1812  0.1072
14698W        W28112   7.302   1.677   4.699  0.1337  0.0307  0.1179
14699W        W28113  10.953   5.579  11.507 -0.2228  0.1641  0.1147
14700W        W28114  12.730   1.573  13.922 -0.1648 -0.0900 -0.0926
14701W        W28115   5.751  15.642  15.865  0.2103  0.2770 -0.2455
14702W        W28116   1.938   9.437  12.181  0.5159  0.1851  0.4251
14703W        W28117  12.382  17.173  10.661 -0.1307  0.1889  0.3060
14704W        W28118   9.117  15.953   5.188  0.0028 -0.1367 -0.2488
14705W        W28119   8.114   7.720   5.973 -0.2737 -0.0977  0.0889
14706W        W28120   4.057   5.514   1.794  0.0165 -0.0056 -0.2197
14707W        W28121   6.349   9.677   1.635 -0.0800 -0.1187  0.0592
14708W        W28122   4.082   0.338  10.514 -0.1589  0.2797  0.0957
14709W        W28123  14.732  13.707   4.606  0.1056  0.5323  0.1342
14710W        W28124  17.724   2.115   2.876 -0.0705  0.2160  0.0634
14711W        W28125   1.438  17.767   2.372 -0.0639  0.0849  0.1599
14712W        W28126   7.992   7.489  14.876  0.0045  0.2769  0.0873
14713W        W28127   7.048   6.235  16.111  0.0558 -0.2733 -0.0449
14714W        W28128   6.423   0.969  14.892  0.0223  0.1388  0.1799
14715W        W28129   3.419   2.882  12.331 -0.0527 -0.0904 -0.0281
14716W        W28130   8.650   7.686   6.084  0.1373 -0.1051  0.2742
14717W        W28131   7.575   4.825  16.736  0.3689 -0.0353  0.0552
14718W        W28132   8.599  12.163   5.458  0.2780  0.1609  0.1985
14719W        W28133  13.352   4.463   2.908  0.1781  0.0900 -0.0412
14720W        W28134   7.810   7.868   1.128 -0.2070  0.1801 -0.2231
14721W        W28135   3.843  11.572   0.380  0.2253  0.1147  0.0087
14722W        W28136   3.861   7.028  15.895 -0.1353 -0.3529  0.2159
14723W        W28137   1.467   0.690   3.431 -0.0579  0.2611  0.0261
14724W        W28138   5.889   7.870   6.939  0.1003 -0.1066  0.0775
14725W        W28139   7.946  17.468  12.847 -0.1524 -0.1508  0.1010
14726W        W28140   9.535   8.172   4.933 -0.0154  0.3047 -0.0392
14727W        W28141   8.968   8.782  16.696  0.3132 -0.1250 -0.0299
14728W        W28142  16.269   4.441  14.456  0.0692  0.1288  0.1998
14729W        W28143   6.513   9.345   6.030  0.0627  0.0296  0.2581
14730W        W28144   5.015   2.812  10.505  0.1927  0.0043 -0.1102
14731W        W28145   0.285   8.381  10.262 -0.0763 -0.1083  0.1208
14732W        W28146   5.213   4.646  16.341  0.2130 -0.3673  0.1453
14733W        W28147  15.811   5.729  15.246 -0.3134  0.1349  0.2593
14734W        W28148   5.384  12.888  16.731 -0.1471  0.0481 -0.2047
14735W        W28149   1.247  11.617  16.263 -0.0396  0.2475  0.1342
14736W        W28150  13.784  17.491  13.784 -0.0281  0.0747  0.0144
14737W        W28151  16.117   3.375   3.387  0.0360 -0.0094 -0.2726
14738W        W28152   0.774   2.901  15.199  0.1634  0.0562  0.0787
14739W        W28153   7.093  16.860  12.881 -0.1546 -0.1946  0.2804
14740W        W28154  10.899   7.961  14.263 -0.1957  0.2274  0.3777
14741W        W28155   5.595  16.504   1.145  0.3502 -0.0575  0.1513
14742W        W28156   2.155  11.447   6.052  0.0625 -0.1412 -0.0211
14743W        W28157   6.557   1.399   9.620 -0.2237  0.0121 -0.1276
14744W        W28158  14.427   0.410   4.205 -0.3250  0.3085  0.0514
14745W        W28159   7.338  10.135  14.319 -0.2677  0.1640  0.2385
14746W        W28160   0.207  11.143   4.011  0.0194 -0.3108  0.0972
14747W        W28161  12.124  10.795   1.343 -0.1388  0.0477  0.0705
14748W        W28162  15.847   7.880  12.390 -0.1478 -0.0879  0.1959
14749W        W28163  13.580   1.471  12.632  0.0385  0.4627  0.0435
14750W        W28164   4.719  12.554  13.422 -0.3453  0.3001  0.0048
14751W        W28165   2.096  11.524   5.538  0.1166 -0.1838 -0.2809
14752W        W28166  11.031   7.547   6.496 -0.1797  0.0770  0.3194
14753W        W28167   9.214   9.631  13.904 -0.1544  0.2113 -0.0677
14754W        W28168   6.722  12.612   0.421 -0.0155 -0.0612  0.0656
14755W        W28169  13.486   3.174   3.641 -0.1299  0.4594  0.1387
14756W        W28170  12.214   6.818  12.924 -0.1781  0.0821 -0.0854
14757W        W28171  16.500   0.208  10.862  0.0734  0.2382 -0.1704
14758W        W28172   4.801   5.748  15.691  0.2175 -0.0869 -0.2394
14759W        W28173   7.494  17.572  11.699 -0.0389 -0.1587  0.0817
14760W        W28174   1.221  17.337  11.394  0.2248 -0.3406 -0.0541
14761W        W28175   1.540  11.477   4.698  0.0758 -0.0859 -0.1050
14762W        W28176  16.202   3.898  12.826  0.0347  0.0313  0.0546
14763W        W28177   4.067   3.216   2.503  0.2668  0.1382 -0.1570
14764W        W28178  17.785   6.510   3.613  0.0786 -0.0817  0.0871
14765W        W28179  16.380   3.505  12.199 -0.2730  0.5396 -0.0802
14766W        W28180   1.942   2.603   5.974  0.2519 -0.0917 -0.2578
14767W        W28181   4.197   9.755  15.476 -0.1843  0.1913  0.1304
14768W        W28182   0.548   0.714  11.432 -0.0226 -0.1176  0.0758
14769W        W28183  15.446   7.864   6.174  0.0881 -0.2493 -0.0296
14770W        W28184  10.029   8.144   3.239  0.0183 -0.5413  0.2006
14771W        W28185  14.370   8.491   0.118 -0.1001  0.2470 -0.1310
14772W        W28186  15.948  14.187  13.048  0.1328 -0.0564  0.0175
14773W        W28187   5.755   7.739   6.369 -0.1700 -0.0296  0.0683
14774W        W28188  14.590   3.745   2.913 -0.0443 -0.0453 -0.0259
14775W        W28189   8.356  16.230   6.281  0.0260  0.0446  0.2126
14776W        W28190   3.100  15.144  16.536  0.0606 -0.0939  0.1318
14777W        W28191   2.969   5.819  10.840  0.1467  0.2154  0.0530
14778W        W28192  14.271  13.583  16.767 -0.0111  0.0144 -0.0638
14779W        W28193  17.754  18.001  14.365  0.1943  0.2960 -0.2106
14780W        W28194  12.471  11.395  14.455  0.0904  0.0876  0.0226
14781W        W28195   1.497   9.560  14.113  0.2972  0.1663 -0.2684
14782W        W28196   3.398   8.133  13.785 -0.3277  0.1062 -0.0973
14783W        W28197   1.639  15.152  16.686  0.0430 -0.1433 -0.0544
14784W        W28198  11.319  10.002  13.752  0.0266  0.1747  0.0614
14785W        W28199  16.244  11.229   5.355  0.0409 -0.2456  0.0724
14786W        W28200   9.224   4.979   3.941 -0.4258 -0.0197  0.1533
14787W        W28201   2.608   7.684   5.067 -0.2152  0.2555  0.4460
14788W        W28202   1.461  10.853  14.578 -0.0878 -0.2274  0.0851
14789W        W28203   1.342   0.833   1.356  0.1504  0.0167  0.1198
14790W        W28204  16.403  10.909  14.375  0.0970  0.0573 -0.0405
14791W        W28205   1.620  13.836   2.147 -0.1535 -0.1614  0.0194
14792W        W28206   8.560  10.408  13.010  0.0248  0.1091 -0.3836
14793W        W28207  14.226  10.229  14.013  0.3435  0.0224  0.0285
14794W        W28208   8.844  11.866   2.973  0.1692  0.1893  0.3381
14795W        W28209   2.526   4.893  11.680 -0.0756 -0.1468  0.1022
14796W        W28210  17.299  16.538  11.692 -0.1778 -0.2429  0.1072
14797W        W28211   4.414   5.455  11.231 -0.3948 -0.0691  0.0343
14798W        W28212   8.545  10.150  10.908 -0.0053  0.1083  0.2806
14799W        W28213  10.624   7.031   2.254  0.0531 -0.0909  0.2735
14800W        W28214   1.295   9.081  13.551 -0.0312  0.0600 -0.1847
14801W        W28215   5.911   3.049  15.656  0.3594 -0.2376 -0.3325
14802W        W28216  16.100   5.050   1.331  0.0147 -0.1004  0.0920
14803W        W28217  13.367  14.284   0.271 -0.0269  0.0198 -0.1313
14804W        W28218  13.015  17.677  11.255  0.3095 -0.2155 -0.1733
14805W        W28219   0.399   9.959  15.393  0.1110  0.0861 -0.1391
14806W        W28220   0.313  10.764  16.782  0.1898 -0.1111 -0.0469
14807W        W28221  15.661   2.246   4.448  0.2289 -0.0358  0.2971
14808W        W28222  11.035   7.521  14.453 -0.0664 -0.0410  0.1061
14809W        W28223   9.482  11.244  16.527  0.2698 -0.1039  0.0681
14810W        W28224  12.895   3.906  13.720  0.2632  0.2611  0.0399
14811W        W28225  15.112  10.967   3.836  0.2913 -0.1909 -0.0344
14812W        W28226  13.226   9.404  13.407 -0.0699  0.1388 -0.0795
14813W        W28227  10.228  10.566   2.546 -0.1569 -0.2079 -0.0073
14814W        W28228  13.695  17.012   4.838 -0.0533  0.0260 -0.1917
14815W        W28229   3.986   3.030   0.621  0.1365  0.0505 -0.0420
14816W        W28230   1.966   0.334   5.400 -0.1891 -0.1611 -0.0002
14817W        W28231   9.219  14.564  13.604  0.0511 -0.2814  0.0386
14818W        W28232   4.033   8.627  16.520  0.3671  0.0074  0.0354
14819W        W28233   7.119   1.610  13.903  0.0258 -0.0513 -0.2042
14820W        W28234  14.929  17.228  14.353 -0.0755 -0.2198  0.0106
14821W        W28235   4.740   4.279  15.557 -0.0514 -0.1411 -0.0125
14822W        W28236   6.748  16.825   4.130  0.0891 -0.0163  0.0296
14823W        W28237   1.398   9.456   1.445 -0.0357  0.0140  0.3573
14824W        W28238  10.260   6.506   0.099  0.0706  0.1176  0.2207
14825W        W28239  13.920   0.271  16.167  0.0025 -0.2325 -0.5038
14826W        W28240   9.885  10.360   3.637  0.3504  0.0004 -0.2108
14827W        W28241   8.480  16.403   3.354 -0.0092  0.0561  0.0179
14828W        W28242   7.064  14.492  15.341 -0.1676  0.0229 -0.1065
14829W        W28243   6.465   8.682  13.513 -0.1541 -0.1314 -0.1587
14830W        W28244  11.277   9.112   6.679  0.2110 -0.0461 -0.2370
14831W        W28245   8.068   9.132   0.929  0.0708  0.0883 -0.2167
14832W        W28246  10.307   4.504  12.529  0.2871  0.0723 -0.1700
14833W        W28247   9.717  14.324   5.670 -0.2039 -0.0543  0.0103
14834W        W28248   7.287   9.551   1.699  0.1074 -0.0291  0.1001
14835W        W28249   2.521   5.340  14.229 -0.1445 -0.0312 -0.1917
14836W        W28250  12.267   3.800   4.060  0.3550  0.1018 -0.1462
14837W        W28251   6.170  14.797   5.170 -0.3651  0.0339  0.1428
14838W        W28252   4.967   2.959  14.642  0.1883 -0.0403 -0.1672
14839W        W28253  12.941  13.672  13.321  0.2521 -0.2198 -0.0935
14840W        W28254  13.281   7.906  14.653 -0.2173 -0.1271  0.1727
14841W        W28255  17.635   3.432  12.499  0.2964 -0.0168  0.1240
14842W        W28256  11.165   5.231   0.778  0.0197  0.2233  0.1240
14843W        W28257  10.994   8.717   2.655  0.0453  0.0373  0.2009
14844W        W28258  15.131   7.006   2.477  0.4423 -0.2209 -0.0111
14845W        W28259   2.079  17.813   5.502 -0.0932 -0.1421 -0.2424
14846W        W28260  11.906  15.440   5.724 -0.0220 -0.0351  0.1619
14847W        W28261  17.401   8.872  10.678  0.1221 -0.2353 -0.3004
14848W        W28262   6.283  12.095  12.930  0.1329  0.1873  0.1079
14849W        W28263   5.688   6.814   3.407 -0.0445 -0.2604  0.0091
14850W        W28264  10.263  10.878   4.177 -0.2650  0.1837  0.2564
14851W        W28265  12.255  15.351   2.772  0.1407 -0.0220 -0.2939
14852W        W28266  11.845   2.206   1.483  0.1480  0.3460 -0.0302
14853W        W28267   8.957  17.216  16.017  0.0239 -0.1063 -0.0600
14854W        W28268   0.739   3.242  16.471  0.0419  0.0653  0.1751
14855W        W28269   7.904  14.303  14.250 -0.2406  0.0943  0.0913
14856W        W28270  13.686  14.342   3.869  0.3571 -0.1268 -0.4776
14857W        W28271   6.878  16.765  16.470 -0.2451 -0.1802 -0.0962
14858W        W28272   7.358  15.664   0.092  0.0910  0.3093  0.1787
14859W        W28273   4.791  11.720  13.959  0.0124 -0.0764  0.0558
14860W        W28274   6.272   9.260   0.864 -0.0763 -0.0018 -0.0474
14861W        W28275  15.791  14.861   0.283 -0.1664  0.2517 -0.0940
14862W        W28276  17.348  11.775  16.175  0.1158  0.0209  0.2716
14863W        W28277  17.621   5.701  15.196 -0.2624 -0.0472 -0.1158
14864W        W28278   3.724  17.414   0.812 -0.3117  0.2534  0.2644
14865W        W28279   1.435   5.353   1.195 -0.3755  0.3228  0.1080
14866W        W28280  13.087   1.298  10.966  0.0251  0.1693 -0.0096
14867W        W28281   2.535   9.840  11.384  0.0648 -0.2234 -0.2261
14868W        W28282   1.680   1.520   3.175 -0.1872  0.4246 -0.1200
14869W        W28283  17.937  17.320  11.471 -0.1626 -0.0620 -0.1559
14870W        W28284  12.824  15.639   3.155  0.1094  0.1015  0.2071
14871W        W28285   7.377  15.337   2.643  0.0884  0.0949  0.5364
14872W        W28286   5.664   4.639  16.602 -0.1059 -0.2461  0.2591
14873W        W28287   2.915   1.832  10.926 -0.2915 -0.2756  0.0317
14874W        W28288   0.346   5.450  12.733  0.0901  0.3690  0.1027
14875W        W28289   0.938   3.977   0.259  0.3091  0.2678 -0.1170
14876W        W28290  10.326   0.438   4.217 -0.2284 -0.1654 -0.0433
14877W        W28291   6.174  15.064   4.115  0.0057  0.1401 -0.0405
14878W        W28292   3.873  15.845   1.356 -0.0606 -0.0630 -0.2002
14879W        W28293  16.063   7.137  14.567  0.0679  0.1389  0.0942
14880W        W28294  15.186   6.856  11.014  0.2519 -0.1244 -0.0212
14881W        W28295  13.491   9.608   3.101 -0.0308 -0.0079 -0.1456
14882W        W28296   5.467   1.845   2.298 -0.0018  0.1840 -0.1348
14883W        W28297   1.679   5.849  14.391  0.0808 -0.0664 -0.1272
14884W        W28298  14.892   3.539  14.144  0.1552 -0.0411  0.0599
14885W        W28299  13.983   0.527   0.988  0.2099  0.0593  0.0413
14886W        W28300  15.605  10.580   5.804 -0.1077 -0.1879 -0.1198
14887W        W28301  13.475   5.280   1.782 -0.1153 -0.0719 -0.0389
14888W        W28302  13.372  14.524   2.733 -0.0564  0.0534 -0.1220
14889W        W28303  16.521  14.510  14.531 -0.2079  0.3704 -0.0029
14890W        W28304   9.513   5.059   5.782  0.1357 -0.3934 -0.1955
14891W        W28305  16.996   2.106   0.594  0.2745  0.2216  0.1533
14892W        W28306  15.399   8.095   0.181 -0.0613 -0.1652 -0.0281
14893W        W28307  16.277  15.121  12.748 -0.1453 -0.0881 -0.2607
14894W        W28308  11.263   8.759   0.866  0.1020 -0.1309 -0.0770
14895W        W28309  10.069  15.240   5.869  0.0372 -0.1807 -0.1544
14896W        W28310   1.686   0.971   2.981  0.0062  0.3049  0.1057
14897W        W28311   3.056  13.053  16.294  0.1414 -0.0687 -0.0987
14898W        W28312  12.284  10.905  14.186  0.4305  0.1209  0.0942
14899W        W28313   2.807  17.591   3.337  0.2541 -0.1177 -0.4216
14900W        W28314   9.867   3.613  12.825 -0.1375 -0.0930 -0.0570
14901W        W28315  15.045   0.715  13.265 -0.3066 -0.1508  0.2030
14902W        W28316  14.149   7.828   3.427  0.0004  0.2583  0.2992
14903W        W28317   1.185   9.843  11.847  0.0142 -0.0289  0.0247
14904W        W28318   3.478  12.532   2.626 -0.1964  0.1762  0.1821
14905W        W28319   2.923  18.000  10.917 -0.2365  0.2735  0.3602
14906W        W28320   5.957  11.798   3.343 -0.0003 -0.0032  0.4100
14907W        W28321   3.610   5.590  12.504 -0.0318  0.2883  0.1658
14908W        W28322  13.800  11.473  14.675  0.0201 -0.2329 -0.0427
14909W        W28323  11.140  13.099   5.606 -0.0153 -0.1955 -0.0380
14910W        W28324   8.056   3.425  16.476 -0.0728 -0.1905  0.2673
14911W        W28325  14.220  14.601   0.325 -0.1405  0.1499  0.1282
14912W        W28326  15.333  17.079   3.896  0.2022  0.1444 -0.1580
14913W        W28327   8.759   8.652  13.529 -0.0407  0.1831 -0.1332
14914W        W28328  13.057   8.806   5.879 -0.0674 -0.1690  0.0756
14915W        W28329  14.863   0.081  14.813  0.2940  0.0364 -0.2377
14916W        W28330  11.597  14.504   0.612  0.0281  0.3389 -0.0667
14917W        W28331  16.001   4.254   1.543 -0.0417 -0.1545 -0.1756
14918W        W28332   9.330  12.437   2.564  0.0444  0.0631 -0.4070
14919W        W28333   7.789  14.840   3.275 -0.2138  0.0346 -0.2340
14920W        W28334   0.284  10.754   4.492 -0.1189  0.1443  0.1513
14921W        W28335  10.513   1.999  10.824 -0.3223  0.1413 -0.3566
14922W        W28336   8.876   8.709   2.770 -0.2991  0.0106  0.1183
14923W        W28337  17.503   7.243   2.503  0.2188  0.1304  0.0081
14924W        W28338   1.714   0.786   4.627  0.0598  0.1278  0.1782
14925W        W28339  13.214  15.535  16.772  0.2315 -0.3546  0.0754
14926W        W28340   5.284   8.732  12.502 -0.0710  0.0542  0.0751
14927W        W28341   9.931  15.319  13.725 -0.0574 -0.1859 -0.3595
14928W        W28342  12.168   3.898   2.888  0.0659  0.2131  0.1254
14929W        W28343  10.391  13.156  16.328 -0.0583 -0.1764 -0.0693
14930W        W28344   0.687  13.238   4.127  0.0952  0.1845  0.0782
14931W        W28345  13.018   6.125  16.405  0.1012 -0.0119 -0.1718
14932W        W28346  11.195   6.891   1.575  0.0123 -0.2313 -0.1335
14933W        W28347   7.822   7.757   4.731  0.2101 -0.0414 -0.0539
14934W        W28348  13.195  14.040   1.411  0.0134 -0.1680 -0.2385
14935W        W28349  10.338  15.704  14.661  0.1706  0.1201  0.2096
14936W        W28350   4.896   2.507  14.957 -0.0337  0.1934  0.2782
14937W        W28351   4.860   8.113   1.987  0.2008  0.0430 -0.0330
14938W        W28352   2.997  15.033  13.825  0.0461  0.0727  0.2197
14939W        W28353  15.800   9.815  16.566 -0.0351  0.1483 -0.2028
14940W        W28354   2.978  13.669  16.002 -0.0447  0.0260 -0.1111
14941W        W28355   4.640   9.014  16.115 -0.1875 -0.0100  0.1297
14942W        W28356   3.545  14.915  16.329 -0.1706 -0.0277  0.0044
14943W        W28357   3.991   3.189  12.541  0.2707 -0.4876 -0.1251
14944W        W28358  13.288   9.359  11.938 -0.1470 -0.1477  0.3630
14945W        W28359  17.556  11.413  12.447 -0.3731  0.2982 -0.3508
14946W        W28360  16.950   9.107   3.899  0.1673  0.0126 -0.0499
14947W        W28361  13.957  14.363  11.916 -0.1107 -0.2870 -0.1129
14948W        W28362   2.955   3.852   3.896  0.3525 -0.1347 -0.1683
14949W        W28363   1.302  17.648  12.346  0.0401 -0.0956  0.0202
14950W        W28364  10.717   7.721  15.603 -0.0521 -0.1396  0.2971
14951W        W28365   6.986  15.022  12.550 -0.2668 -0.1135  0.1524
14952W        W28366  15.936   8.753   2.546 -0.0813 -0.2618 -0.1324
14953W        W28367  15.102  14.396   5.820  0.1287 -0.1285 -0.4213
14954W        W28368   0.102   5.421  15.888 -0.0628 -0.1339  0.0069
14955W        W28369  12.638   7.834  12.003  0.1470  0.0124 -0.1151
14956W        W28370  10.663   0.356   0.282  0.1583 -0.0549  0.3463
14957W        W28371   4.189   1.517   4.983  0.2458  0.1047  0.0204
14958W        W28372   1.961  16.943  12.401 -0.0782 -0.2155 -0.0630
14959W        W28373  10.504   5.680  11.780  0.1155  0.0225 -0.1583
14960W        W28374  11.712   3.939   3.117 -0.1632  0.1370  0.1053
14961W        W28375   7.760   0.383   5.073  0.0540  0.0230  0.2135
14962W        W28376   5.138   3.134  10.051  0.0614  0.0711  0.1703
14963W        W28377   4.836   9.803   4.104 -0.1391  0.2865 -0.2760
14964W        W28378  10.206   3.582   4.432  0.2602  0.1292 -0.1346
14965W        W28379   7.632  13.729   5.718 -0.1372 -0.1088 -0.0012
14966W        W28380   1.501  15.862  15.576 -0.0332 -0.2415 -0.1566
14967W        W28381   4.598   9.978  16.064 -0.0827 -0.0417  0.2199
14968W        W28382   3.974  16.457   4.430 -0.1140 -0.0203  0.0241
14969W        W28383   6.532   8.123   0.184  0.1423 -0.2476 -0.0095
14970W        W28384   0.594   8.352  15.661  0.1345 -0.0112  0.1850
14971W        W28385  15.613   2.230  10.794 -0.0292  0.0754  0.0620
14972W        W28386  17.459   1.501  11.985  0.1563  0.0518  0.2114
14973W        W28387   5.027  17.839  10.973 -0.2628 -0.3225  0.1245
14974W        W28388  16.730   7.145  13.565 -0.0595 -0.0091 -0.1402
14975W        W28389  15.929   5.634  15.700  0.0611 -0.2415  0.1307
14976W        W28390   0.203  14.531  13.591  0.0618 -0.0667 -0.1016
14977W        W28391  11.633  12.157   3.794  0.0078 -0.0836  0.0115
14978W        W28392   0.565  10.593  12.384 -0.1591  0.0107 -0.0365
14979W        W28393  10.374  11.022  13.963 -0.0266  0.1531  0.1405
14980W        W28394   3.118  15.290   3.713  0.0088 -0.1057  0.1865
14981W        W28395  11.640   1.635   5.821  0.0638  0.3435  0.0869
14982W        W28396  10.926   8.743   6.865  0.0385 -0.2696 -0.0394
14983W        W28397  13.809  12.376  14.782  0.2649  0.1605  0.3076
14984W        W28398   6.547   1.823  11.493 -0.0043  0.0832 -0.1490
14985W        W28399  15.730   4.733  10.236 -0.0384  0.1348 -0.2654
14986W        W28400  10.164  17.635   2.152 -0.0957  0.0488 -0.1115
14987W        W28401   7.737   7.098   5.231 -0.1246 -0.3978  0.0141
14988W        W28402   1.253   7.036   5.883  0.0239  0.0323  0.1008
14989W        W28403   9.846  11.747   5.202 -0.1336  0.1019  0.0203
14990W        W28404   4.224  14.357   4.255  0.2572  0.0156 -0.0993
14991W        W28405   8.441   8.363  14.748  0.2286 -0.0287 -0.3499
14992W        W28406   9.829   9.156   6.365 -0.0566  0.2069  0.1462
14993W        W28407   8.237  13.374  16.309 -0.3181  0.1834 -0.1352
14994W        W28408  16.383  10.770   4.282  0.0266  0.3058  0.1978
14995W        W28409  13.282   1.404   1.620 -0.0425  0.0847 -0.0231
14996W        W28410  16.336  10.035   5.953 -0.2666  0.0572  0.2962
14997W        W28411   3.352   3.603  13.935 -0.1481 -0.0328 -0.1553
14998W        W28412   4.194   7.963   6.518  0.0414 -0.4020  0.0836
14999W        W28413   5.316  12.749   1.377 -0.1989 -0.0710 -0.1405
15000W        W28414   7.668  17.586   3.406 -0.1260  0.0845 -0.1477
15001W        W28415   8.495  16.461   0.738  0.0574 -0.3992  0.0402
15002W        W28416   6.685   6.821   1.973  0.1779  0.0338  0.2470
15003W        W28417  15.211   1.007  15.201  0.0404  0.0544  0.0792
15004W        W28418  15.102   0.347  16.015 -0.1277  0.1443 -0.2510
15005W        W28419   7.488   6.483  15.947  0.0463  0.0896  0.1219
15006W        W28420  10.539  15.437   3.654 -0.0137 -0.1382  0.0900
15007W        W28421  13.032   7.262   1.990 -0.1422 -0.1622 -0.0319
15008W        W28422  11.609  11.142  10.611  0.2566  0.2385  0.0049
15009W        W28423   7.352  10.020   4.959  0.0335 -0.2391  0.1088
15010W        W28424   1.773   3.414   4.897 -0.0312 -0.1048 -0.1208
15011W        W28425   8.711  10.140   4.320 -0.2812  0.2214 -0.1262
15012W        W28426   9.643   3.997  14.936  0.2604  0.2736 -0.0125
15013W        W28427  17.679  14.409   5.914 -0.2899  0.1292  0.0111
15014W        W28428   5.393   6.130  14.439 -0.2839  0.2569 -0.1038
15015W        W28429  14.053  16.551   0.560 -0.0740 -0.2173  0.0782
15016W        W28430   9.850  13.830   5.510  0.0771  0.2442 -0.0241
15017W        W28431   0.062   6.910   1.887 -0.0427 -0.0060 -0.0139
15018W        W28432   3.615  16.396   3.245  0.2434 -0.2031 -0.0027
15019W        W28433  13.840  18.000  13.750  0.1535 -0.2458  0.1116
15020W        W28434   1.026  10.385  14.933 -0.3373 -0.2305  0.0713
15021W        W28435  12.623   3.066  14.870 -0.1695 -0.1296  0.1064
15022W        W28436   2.433  15.996  16.360 -0.0066  0.2616 -0.2147
15023W        W28437   8.657  11.605   6.091  0.2576 -0.0370  0.0546
15024W        W28438   9.414   0.947   6.286  0.2873  0.1987  0.0067
15025W        W28439   0.693   0.376   4.451  0.0667  0.2028 -0.2356
15026W        W28440   1.195   5.631  12.640 -0.1781  0.1666 -0.2439
15027W        W28441  16.625  13.100  13.636  0.0589  0.1019  0.0308
15028W        W28442   6.807   9.969   2.448  0.0617 -0.2552  0.3202
15029W        W28443  14.497   7.871  15.293  0.0088  0.0210 -0.2063
15030W        W28444  12.537   9.137  13.111 -0.2801  0.0785  0.0119
15031W        W28445   9.984   3.751  11.280 -0.2686 -0.1655 -0.2497
15032W        W28446  14.226  14.178   2.846 -0.0024  0.1474 -0.0699
15033W        W28447   6.295   6.810  13.907  0.1658  0.0759  0.1782
15034W        W28448  14.436   7.661  13.023  0.3420  0.2229 -0.0048
15035W        W28449   6.357   4.203  10.224  0.0893 -0.2355 -0.1220
15036W        W28450  16.138   9.135   1.562 -0.1413  0.0291 -0.2145
15037W        W28451   4.622   5.820  12.650 -0.1634  0.2375  0.0774
15038W        W28452   3.185  10.152   5.041  0.0983  0.1175  0.0454
15039W        W28453  15.348  14.879   4.883 -0.2647 -0.2513 -0.0649
15040W        W28454  17.828  11.255  14.901 -0.0226  0.1363  0.0649
15041W        W28455   3.474  11.446  16.702 -0.1720 -0.0361  0.2250
15042W        W28456  15.854   4.164   2.088  0.5500  0.0506  0.0765
15043W        W28457   1.186  14.978  16.288 -0.2255  0.3086 -0.0387
15044W        W28458  12.749  16.913   3.976  0.3130  0.3807 -0.0623
15045W        W28459   5.621   4.197   3.695 -0.0085  0.1683  0.1532
15046W        W28460  14.006   4.952   2.576 -0.1722  0.1731  0.0015
15047W        W28461  13.269   0.383   5.067 -0.2061  0.2163  0.0595
15048W        W28462  17.397  14.034  12.723 -0.1071 -0.4228  0.1049
15049W        W28463  14.108   6.074   1.042  0.0188  0.0356  0.1369
15050W        W28464   9.309   2.573  11.281  0.1355 -0.0932  0.0834
15051W        W28465  14.332  10.290  16.719  0.3208  0.0626 -0.1698
15052W        W28466   0.344   1.043   2.456 -0.2679  0.0100 -0.2357
15053W        W28467  11.395  16.171  12.015  0.0877 -0.0796  0.2903
15054W        W28468   9.900  15.819  14.656  0.1397  0.2246  0.2802
15055W        W28469  17.566   4.000   0.993  0.0024 -0.0255 -0.3684
15056W        W28470  15.986   6.832   2.294  0.0926 -0.2431 -0.0272
15057W        W28471   3.164   0.987  11.130 -0.1972 -0.0223 -0.0648
15058W        W28472  16.842   9.508  14.050 -0.1773  0.0368 -0.1683
15059W        W28473   6.473   3.712  11.618 -0.1352 -0.0563 -0.0147
15060W        W28474   3.945   8.166  16.718 -0.1730 -0.1351  0.0403
15061W        W28475  15.180   1.257   1.201 -0.2631  0.0304 -0.0435
15062W        W28476   5.524   3.007   1.597  0.0473  0.1984 -0.4025
15063W        W28477  11.965  11.165  12.560  0.0899 -0.0808 -0.2760
15064W        W28478   2.425   7.894   5.703  0.2287 -0.0971  0.1156
15065W        W28479  14.599   9.534  15.968 -0.2291 -0.1623 -0.0187
15066W        W28480  12.568  17.213   1.666 -0.2890  0.1373  0.1642
15067W        W28481   9.678   9.981  14.643 -0.0477  0.1004 -0.1251
15068W        W28482   9.584  17.476  11.714  0.1263 -0.1669  0.3191
15069W        W28483   2.305   9.655  14.164 -0.1271  0.1604  0.0511
15070W        W28484  15.986  17.557  10.831 -0.0723  0.0193  0.0240
15071W        W28485   9.448   0.864  11.448 -0.0735  0.0572  0.1751
15072W        W28486   5.741   3.648  14.828 -0.1842 -0.0040  0.1075
15073W        W28487  17.345   3.527   0.102  0.0703  0.0550  0.0796
15074W        W28488  16.581   2.207  11.887 -0.2590 -0.0337 -0.1724
15075W        W28489   4.680  13.411   1.182  0.2336  0.0049  0.2634
15076W        W28490   5.312   8.330   2.086  0.1510 -0.1447 -0.1198
15077W        W28491  11.548  10.284  15.016  0.2761  0.0034 -0.0506
15078W        W28492  16.444  13.691  12.634 -0.0442 -0.2532 -0.0112
15079W        W28493   6.690   8.741  15.541  0.0957  0.3640 -0.0691
15080W        W28494  15.934  17.373  16.698  0.1613 -0.1953  0.1444
15081W        W28495  13.200   9.860  13.592 -0.4717 -0.1894 -0.2303
15082W        W28496  14.380  11.960   1.670 -0.1240  0.0101 -0.1798
15083W        W28497   4.914   4.033   0.520  0.1549  0.3566 -0.0284
15084W        W28498  13.113   0.413   2.173  0.2427 -0.3213 -0.2437
15085W        W28499  11.778  14.731  12.447  0.1227  0.2600  0.2854
15086W        W28500  10.093   2.766   0.646 -0.0151 -0.1629 -0.0316
15087W        W28501   0.629  10.772   4.031  0.0763  0.0198 -0.0526
15088W        W28502   7.965  13.690   4.546  0.2761  0.0569  0.1388
15089W        W28503   8.250   9.639  14.232 -0.1668 -0.0072 -0.1674
15090W        W28504  15.497   2.047   3.975 -0.0199  0.0425  0.0107
15091W        W28505  12.264   8.129   3.648  0.2213  0.0808 -0.1460
15092W        W28506  10.652   4.613   1.874 -0.0698  0.1219  0.0570
15093W        W28507   5.147   1.772   1.836  0.2708 -0.0465  0.0576
15094W        W28508  17.972   9.876   1.476 -0.1300 -0.0350  0.2215
15095W        W28509   1.310   1.024   2.683  0.2902 -0.1991  0.1997
15096W        W28510  13.232   9.736  14.896  0.0947 -0.1039 -0.0899
15097W        W28511  12.410  15.182   4.349 -0.0169  0.0047 -0.1994
15098W        W28512   0.026  10.840   0.611 -0.2028 -0.1429 -0.0049
15099W        W28513   2.724   1.270  11.650 -0.1708 -0.1151 -0.2894
15100W        W28514   3.268   9.342  14.945  0.2561  0.2992  0.4160
15101W        W28515  11.139   8.734  16.010 -0.2103  0.1000 -0.1943
15102W        W28516   4.181  13.700  10.709  0.1172  0.3132 -0.2852
15103W        W28517   8.227  10.832   5.223 -0.0723 -0.0337  0.0652
15104W        W28518   5.786  16.403  13.552  0.0941  0.4430 -0.0978
15105W        W28519   9.920   6.333   5.336 -0.1223 -0.2629 -0.1634
15106W        W28520   3.724   7.990  13.391  0.0680 -0.0406 -0.1202
15107W        W28521  14.834   8.489   2.302 -0.1999  0.0368 -0.0302
15108W        W28522   7.691  16.726   3.865  0.0512  0.1575 -0.2476
15109W        W28523  17.855  10.911   5.227 -0.0549 -0.3161  0.2579
15110W        W28524   0.591   6.080   5.710  0.2234 -0.0152 -0.2048
15111W        W28525  15.281   5.420   0.638  0.0694  0.2089 -0.1012
15112W        W28526   6.883   5.619  13.598  0.1433 -0.2003 -0.0162
15113W        W28527   0.166   7.810   5.549 -0.2642 -0.1166 -0.1268
15114W        W28528  11.401  10.144   3.345  0.2565  0.0870 -0.2624
15115W        W28529   4.262   4.515  12.738 -0.1820  0.0470  0.0650
15116W        W28530   4.976   5.817  15.200  0.0522 -0.0768  0.4259
15117W        W28531  13.994  17.008  15.868 -0.3012 -0.0572  0.1514
15118W        W28532  12.272  16.659  16.284 -0.0287 -0.2985 -0.0675
15119W        W28533  17.574  15.584   9.882  0.2124  0.1672  0.1591
15120W        W28534   6.183   3.195   0.981 -0.1026 -0.0859  0.2336
15121W        W28535   2.529  15.286  15.538  0.1040 -0.1193 -0.0403
15122W        W28536   6.999  15.567   1.174 -0.3691 -0.1476  0.0466
15123W        W28537  13.344  10.674  15.092 -0.1004  0.2123  0.1904
15124W        W28538   7.241   4.660   3.912 -0.0199  0.0311 -0.1048
15125W        W28539  11.191   2.273   0.976 -0.3113 -0.0476  0.1879
15126W        W28540   8.404   5.787   0.736 -0.0371  0.0908  0.0437
15127W        W28541  11.144  14.756   1.926  0.0084 -0.1696  0.2102
15128W        W28542   9.598  11.526   5.727 -0.0298  0.0959  0.3753
15129W        W28543  16.715  14.557  13.933 -0.0060  0.1470  0.0670
15130W        W28544  11.696   5.235  13.596  0.1673  0.0635  0.0244
15131W        W28545  16.203   2.514  14.921  0.2632  0.0562  0.0442
15132W        W28546   3.196  12.910   4.868  0.2700  0.2933  0.0363
15133W        W28547  16.146  16.001   4.835 -0.0580  0.3260  0.3412
15134W        W28548   6.335   6.266  16.651  0.2088 -0.1119 -0.0642
15135W        W28549  14.628   8.445   0.561  0.0772 -0.2629 -0.2780
15136W        W28550  17.961   2.890   0.099  0.2775  0.2293 -0.2852
15137W        W28551   7.589  16.551   1.961  0.1257 -0.0558 -0.1761
15138W        W28552   7.448   0.530  11.615  0.0652  0.0240 -0.0958
15139W        W28553  14.740   3.513   0.368 -0.2058  0.0320 -0.3464
15140W        W28554  13.158   6.129   4.931 -0.0882  0.1886  0.0726
15141W        W28555  14.518   9.632   3.161  0.2889  0.1786  0.1248
15142W        W28556  17.305  15.706   2.859  0.0089 -0.0887 -0.3365
15143W        W28557  11.851  10.447   3.234  0.0072  0.0945 -0.1814
15144W        W28558   9.650   3.398   1.142  0.3781 -0.2518 -0.0920
15145W        W28559  13.075   4.595  14.357 -0.1831 -0.0608  0.1383
15146W        W28560  14.442   5.667   2.665 -0.0093  0.3423 -0.0177
15147W        W28561   2.612   3.552  13.766  0.1133 -0.0397 -0.2147
15148W        W28562   3.305   3.074  15.203 -0.0870 -0.0075 -0.0521
15149W        W28563   7.914   1.668   5.193  0.0062 -0.2467  0.2406
15150W        W28564  17.953   8.265   2.477  0.1816  0.0355  0.1031
15151W        W28565   2.421   8.598   3.558  0.1910  0.0899  0.0897
15152W        W28566  10.859  10.227  12.415 -0.1620 -0.1670 -0.2411
15153W        W28567  16.962   3.657  15.007 -0.0064 -0.0177  0.0749
15154W        W28568  17.488   8.050  10.422  0.0683 -0.2047 -0.0888
15155W        W28569   0.209   2.744  15.911 -0.2363  0.2875  0.1880
15156W        W28570   1.211   5.701  11.296 -0.0750  0.2322  0.1030
15157W        W28571   8.263   1.350   6.094 -0.1533  0.0495 -0.0465
15158W        W28572   5.021  14.669  13.807 -0.0018 -0.0661 -0.3519
15159W        W28573  17.518   9.242   5.340  0.0824  0.0094 -0.1962
15160W        W28574   2.719  16.408   3.627 -0.0923 -0.0646 -0.1520
15161W        W28575  10.408  12.975   2.970 -0.0764  0.0785  0.2224
15162W        W28576   3.042   3.804  16.086  0.1337  0.2901 -0.1455
15163W        W28577  14.133   6.879   3.167 -0.0276  0.0676  0.0995
15164W        W28578   6.762   1.512  14.451 -0.1266 -0.1197 -0.2703
15165W        W28579  17.347  14.864   5.095 -0.1451 -0.3351 -0.0094
15166W        W28580  13.517  11.335  11.446 -0.2562 -0.1841 -0.2195
15167W        W28581   0.857  15.870   3.636 -0.1819 -0.1098 -0.1149
15168W        W28582  11.324  17.696  12.197 -0.1781  0.2088 -0.0093
15169W        W28583   6.035  14.975   6.231  0.0852 -0.3868  0.0337
15170W        W28584  17.060  12.384  13.477  0.1448  0.0842 -0.0965
15171W        W28585  17.347  17.951   5.508  0.0975 -0.2543  0.2796
15172W        W28586   0.734  12.613   4.633  0.0085 -0.0360  0.0919
15173W        W28587   7.548   2.328  11.854  0.0830  0.0516  0.3177
15174W        W28588  15.324   1.885  12.629  0.3377 -0.2532 -0.1179
15175W        W28589   7.318  11.271   5.533  0.1071 -0.0110 -0.1188
15176W        W28590   9.342   7.248  10.974 -0.3341  0.0351  0.1432
15177W        W28591   4.023  10.504  13.099 -0.2082 -0.0062 -0.1807
15178W        W28592  14.372   4.561   1.936 -0.0373 -0.0763 -0.1198
15179W        W28593   7.224   2.666   2.778 -0.1119  0.2895  0.0467
15180W        W28594  10.234  16.538   6.967  0.0376 -0.0262  0.0837
15181W        W28595   2.021  15.335  15.411 -0.1385  0.1743  0.1282
15182W        W28596  10.979   9.481   0.913 -0.1046 -0.0128  0.0104
15183W        W28597   9.442  12.176  10.660  0.3326 -0.1571  0.3853
15184W        W28598  15.415  13.449   1.832 -0.2787  0.0524 -0.0952
15185W        W28599   2.382  12.537  12.272  0.0644  0.3089 -0.1526
15186W        W28600  15.926  15.026   2.120  0.1814 -0.2510 -0.1385
15187W        W28601   3.031  11.604   0.081  0.1575  0.2659 -0.2478
15188W        W28602  10.934   3.489  12.094  0.0738 -0.1171 -0.2329
15189W        W28603   4.237   7.010  11.464  0.2046  0.0100 -0.0022
15190W        W28604   2.389   2.315  13.215 -0.1642 -0.1598  0.1640
15191W        W28605   0.907   0.635  11.156  0.3860  0.0054  0.0095
15192W        W28606   0.865   0.320   9.979 -0.1059  0.1100  0.1125
15193W        W28607  17.874   7.375  10.770 -0.0321 -0.1871 -0.2156
15194W        W28608  13.057   0.290  11.998  0.0799 -0.1316 -0.1243
15195W        W28609   7.363   1.659   1.837  0.0939 -0.2685 -0.3004
15196W        W28610   1.210   7.658   2.276 -0.2020  0.1356  0.0464
15197W        W28611   7.616   6.720  14.064 -0.1183 -0.1239 -0.0340
15198W        W28612   1.840  16.590  16.779 -0.0712 -0.1145 -0.0313
15199W        W28613   5.440   0.389  13.641 -0.0654 -0.1631  0.2019
15200W        W28614  14.589  14.185  10.815  0.2850  0.0752 -0.1496
15201W        W28615   4.021  15.376  11.281 -0.1746  0.0351 -0.1079
15202W        W28616  11.684  13.846   4.192  0.2345 -0.0403  0.3241
15203W        W28617  16.156  13.456  13.498  0.2559  0.1499 -0.0765
15204W        W28618   0.339  12.551  16.391  0.0334 -0.1894 -0.0963
15205W        W28619   5.626  13.946   3.241 -0.3753  0.1369  0.0955
15206W        W28620   5.564  15.515  14.103 -0.0409  0.1754  0.1104
15207W        W28621   2.128   0.537   2.794  0.1054  0.2086  0.0760
15208W        W28622  13.768  10.282   0.113  0.1366  0.0156  0.2705
15209W        W28623   0.505  15.770  11.639 -0.3524  0.2796 -0.0307
15210W        W28624   8.260   7.441  14.421  0.0686  0.0534 -0.0652
15211W        W28625  10.404  11.963  13.420 -0.2186  0.0952  0.2027
15212W        W28626   9.385   7.648  15.185  0.1284  0.0305 -0.0671
15213W        W28627   2.908   9.612  14.766 -0.3021 -0.2187  0.0756
15214W        W28628   6.923  13.304   6.779 -0.1045 -0.3348 -0.0609
15215W        W28629  10.464   5.078   1.947 -0.0528  0.1104  0.2988
15216W        W28630   6.531  17.632  14.538  0.3513  0.4430 -0.0872
15217W        W28631   4.390  10.374  11.446  0.2014 -0.0921  0.2502
15218W        W28632  15.650   7.020   5.611  0.1217  0.1912 -0.2733
15219W        W28633  16.472  10.606  12.247 -0.0505  0.1327 -0.3230
15220W        W28634   2.017   0.541   0.192 -0.1881 -0.1695  0.0999
15221W        W28635  15.168  12.221   5.403  0.1460  0.3331  0.0435
15222W        W28636   4.620   3.980   1.507  0.4209 -0.0616 -0.0803
15223W        W28637  17.064  12.606  10.906 -0.2091  0.2678 -0.2511
15224W        W28638   7.294   6.002  11.726  0.1260  0.2131 -0.0600
15225W        W28639   6.278  15.879   4.561 -0.1124 -0.0922  0.0856
15226W        W28640  13.993   8.194   1.810 -0.0558 -0.2759 -0.2793
15227W        W28641   9.200  17.035  12.365  0.1777 -0.1703 -0.2535
15228W        W28642   4.685   7.989   6.682 -0.2625  0.2991  0.1018
15229W        W28643  17.533  17.752  16.532  0.0667 -0.2317 -0.0757
15230W        W28644   5.544   4.306  15.216  0.0659 -0.0108 -0.2279
15231W        W28645   9.063   0.461   3.797  0.0358  0.3869  0.0904
15232W        W28646  13.006   9.663   3.003  0.1891 -0.0314 -0.0667
15233W        W28647   6.511  11.717  16.006 -0.0877 -0.0202  0.1417
15234W        W28648   1.188  16.197   0.032  0.1052 -0.0884 -0.1070
15235W        W28649   7.134   8.811   2.952  0.1180  0.2099 -0.2524
15236W        W28650   1.711  16.375   1.261 -0.1257 -0.0295  0.1969
15237W        W28651   3.506  13.759  16.000 -0.2172 -0.0203  0.0438
15238W        W28652   8.178   3.297   4.079  0.0021 -0.1875 -0.1609
15239W        W28653   8.118   8.138  11.155 -0.0526 -0.1455  0.0981
15240W        W28654   8.941   6.212  14.066 -0.1728  0.0881 -0.1232
15241W        W28655  17.190   1.722  16.268 -0.1352  0.0076 -0.1250
15242W        W28656  10.069   9.621   5.478 -0.0140 -0.1045  0.1556
15243W        W28657  10.732   0.827   1.823  0.0245  0.0226  0.3427
15244W        W28658  17.084  11.099  11.104  0.2607 -0.1985 -0.0149
15245W        W28659   1.230   7.377   3.325 -0.0379  0.1820  0.0538
15246W        W28660   5.035  11.253   4.252 -0.1337  0.2101 -0.1012
15247W        W28661  10.867   9.238   5.371  0.2413  0.1490 -0.0169
15248W        W28662  11.213   3.233   4.673 -0.0939 -0.2573  0.1087
15249W        W28663   9.866   9.953   0.669  0.0273  0.1228  0.3735
15250W        W28664  10.025  10.482   5.181 -0.1781 -0.4569  0.2541
15251W        W28665   4.450   3.709   1.009 -0.1345  0.0303 -0.0916
15252W        W28666  15.793  10.030   5.392  0.3816  0.1728  0.0222
15253W        W28667  17.023  12.855  16.044  0.2870  0.1067 -0.0036
15254W        W28668   2.051   1.954  15.512  0.0007 -0.2575 -0.0000
15255W        W28669  15.805   5.200   3.793 -0.0726 -0.0596  0.1034
15256W        W28670   6.385  12.274  15.947  0.0096 -0.0933  0.0695
15257W        W28671   9.760   2.593   1.938  0.1251 -0.2901  0.2638
15258W        W28672   0.095  17.261  12.445  0.4874  0.0799 -0.1814
15259W        W28673   2.128  11.883  12.951 -0.0506  0.2584 -0.2408
15260W        W28674   1.061   5.453   5.335 -0.1616  0.2996  0.1990
15261W        W28675   1.631  15.111  10.275 -0.0124 -0.1385 -0.1114
15262W        W28676  11.330   8.463  14.368  0.0547 -0.0877  0.1428
15263W        W28677   1.776   6.822  15.956 -0.0417  0.0422  0.1557
15264W        W28678   1.909  12.297  12.715 -0.0030 -0.0737  0.1532
15265W        W28679   0.499  10.231  14.998 -0.0297 -0.3429  0.0650
15266W        W28680  15.438  14.913  13.387  0.0003  0.0832 -0.0074
15267W        W28681   1.109   9.893  14.315 -0.3571  0.0683 -0.0559
15268W        W28682  17.840  10.404  14.840  0.1540 -0.1000  0.3788
15269W        W28683  11.362   6.423   5.716 -0.0795 -0.0938 -0.1659
15270W        W28684   2.315   3.023  15.248  0.2733 -0.0964  0.2251
15271W        W28685  15.572   0.532  14.438  0.1729  0.2509  0.1554
15272W        W28686   1.005  10.975   0.415 -0.1674 -0.0303  0.1664
15273W        W28687   6.064  10.087   3.662 -0.1431 -0.1167 -0.0554
15274W        W28688  12.388   7.326  16.430 -0.1492 -0.0430  0.2601
15275W        W28689  18.000  11.637   3.031 -0.1561 -0.2151  0.4454
15276W        W28690   4.879  12.982  14.551  0.0046  0.1359  0.2553
15277W        W28691   5.783   8.028  11.224 -0.1049 -0.1610 -0.0921
15278W        W28692   9.232  17.701   3.409  0.0776  0.0074  0.0188
15279W        W28693   6.550  16.480   0.506 -0.1527 -0.0211 -0.0017
15280W        W28694  11.378  15.768   3.331 -0.1737 -0.1870  0.0988
15281W        W28695   1.502  14.460  11.854  0.0723 -0.1010  0.3802
15282W        W28696  10.355  16.487  12.993  0.4930 -0.1395 -0.3654
15283W        W28697  10.214  14.489  12.508  0.3379 -0.2282  0.0356
15284W        W28698   1.881  12.013   5.387 -0.2227 -0.2222 -0.1283
15285W        W28699   1.074   8.952  14.161  0.1713 -0.1392  0.0541
15286W        W28700  10.379   5.132   4.248 -0.1629 -0.1088 -0.0119
15287W        W28701   8.487  17.353  11.567  0.2250  0.2348  0.1631
15288W        W28702   1.830  14.163   4.751 -0.4607  0.3050 -0.0695
15289W        W28703  15.413   9.370  14.561  0.1582 -0.0154 -0.0596
15290W        W28704   1.239  16.434   3.277  0.3496  0.0511 -0.1731
15291W        W28705  15.988   1.235   2.236  0.2493  0.0575 -0.2592
15292W        W28706   2.823  14.980   2.558  0.2881 -0.1246  0.0641
15293W        W28707  17.423  12.982   5.311  0.2192  0.0734  0.1479
15294W        W28708  12.293  14.408  13.767  0.0219  0.0069  0.0812
15295W        W28709   9.568   7.736  11.115 -0.2998 -0.2436  0.1280
15296W        W28710   1.406   0.892  14.196  0.2315  0.1861  0.0740
15297W        W28711   1.332   2.891   0.997  0.1163  0.1638  0.1327
15298W        W28712   6.597  12.204   4.707  0.1871  0.2477 -0.1224
15299W        W28713  11.849   6.144  11.957  0.0021  0.1804  0.0663
15300W        W28714   6.760  14.344  14.419  0.1124 -0.3064 -0.0560
15301W        W28715  14.428   4.615  15.006 -0.1340 -0.1747  0.0272
15302W        W28716  11.206   7.205   5.660  0.1476 -0.1387  0.0018
15303W        W28717   6.432  13.104   0.269 -0.0431  0.1067 -0.0895
15304W        W28718  17.035   4.284  15.147  0.1842  0.0877 -0.0626
15305W        W28719   9.027   5.852   4.457  0.1155 -0.3338  0.3072
15306W        W28720  16.919   7.855   6.616 -0.0773 -0.1721 -0.1117
15307W        W28721   5.889  15.432  11.653  0.3435  0.1114  0.0393
15308W        W28722   7.300  10.841   5.263  0.0379 -0.0383  0.0940
15309W        W28723  12.136   6.404   4.397  0.2361  0.1815  0.4859
15310W        W28724   6.400  17.719  11.196 -0.3533  0.0274 -0.0232
15311W        W28725   2.624  11.355   2.484  0.0813  0.1903 -0.0056
15312W        W28726   0.103  11.302  12.905  0.2359 -0.1154 -0.0086
15313W        W28727  12.201   3.039  15.441  0.0812  0.0017  0.1629
15314W        W28728   3.210   1.943   1.366  0.0465 -0.0832  0.4067
15315W        W28729   4.670  14.887   2.303  0.1975  0.0925  0.1056
15316W        W28730  14.570   0.825  11.454  0.3390  0.1307  0.0630
15317W        W28731  16.049   9.379  16.165 -0.0985  0.2075 -0.2597
15318W        W28732  12.902   6.492  14.109 -0.0052  0.0119 -0.0971
15319W        W28733   6.605  13.150   4.836 -0.0808  0.0149 -0.0143
15320W        W28734  13.643  12.617  16.546 -0.0874  0.1196  0.0437
15321W        W28735   0.757  17.676  11.021  0.0034 -0.0873 -0.2896
15322W        W28736  12.606   7.259  10.325 -0.0299  0.1432 -0.0355
15323W        W28737   4.456   7.336  13.783  0.0932  0.0102  0.3442
15324W        W28738   7.648   8.022  12.454  0.1619 -0.3929 -0.2152
15325W        W28739   8.124  11.458  14.863  0.1165  0.1372 -0.0978
15326W        W28740   3.588  10.408   3.146  0.1137  0.0002 -0.0307
15327W        W28741  10.847   1.051   2.242 -0.0089  0.2090  0.1563
15328W        W28742  10.214   4.342   2.124 -0.0719  0.0608  0.0294
15329W        W28743   9.518   9.081   3.227 -0.3189 -0.1146  0.1003
15330W        W28744   7.754   2.096   1.430  0.2486 -0.0961  0.2530
15331W        W28745   7.008   7.883   1.793 -0.4433  0.0483 -0.0431
15332W        W28746   7.903   9.583   0.019  0.0298  0.1223 -0.0711
15333W        W28747  17.985  12.377  13.278  0.1699 -0.3911  0.0620
15334W        W28748  16.658   3.637   2.955  0.1840 -0.1040 -0.0347
15335W        W28749   6.159   5.709   0.557 -0.1629  0.0886  0.2893
15336W        W28750   1.296  12.644   2.262 -0.2228 -0.0324 -0.1347
15337W        W28751  10.167  16.662   0.787  0.0807  0.1709 -0.0103
15338W        W28752   8.641  10.011   3.510 -0.0819  0.0955  0.1571
15339W        W28753   1.713   6.794   3.176 -0.0395 -0.1123  0.3569
15340W        W28754  11.300  15.230  14.535  0.0315  0.1975 -0.0147
15341W        W28755   8.760  17.849   4.143 -0.1908  0.2657  0.2931
15342W        W28756   6.186  16.714  13.253 -0.2241  0.1757 -0.0844
15343W        W28757   1.224  15.499   0.843  0.0324 -0.3552  0.1438
15344W        W28758   8.145   9.519   1.366 -0.0057 -0.0263 -0.1660
15345W        W28759   8.151  16.183  12.925 -0.0840  0.1987 -0.2672
15346W        W28760  16.030  11.403  14.638  0.2448 -0.0662 -0.1370
15347W        W28761  12.787  11.398   5.088 -0.2543 -0.2055  0.0215
15348W        W28762  15.894  12.125  11.165 -0.0670 -0.1849  0.0070
15349W        W28763   4.426  17.703  12.217 -0.0040  0.1650 -0.1298
15350W        W28764   1.413  12.858   5.833 -0.0455  0.0160  0.1281
15351W        W28765   1.451  15.280  10.678 -0.3319  0.2458 -0.4019
15352W        W28766   6.321  15.552  15.409 -0.0563  0.0725  0.0066
15353W        W28767  11.498   7.621   5.739 -0.1392  0.0485 -0.1186
15354W        W28768  12.884  12.344   5.222 -0.0121 -0.0611  0.0351
15355W        W28769   8.440   2.319   5.126  0.0885 -0.0241  0.3049
15356W        W28770   2.400   2.526  16.643  0.1342 -0.1264 -0.0382
15357W        W28771  14.850   0.328   2.927  0.0004  0.1369  0.1043
15358W        W28772  15.195  17.432  13.188 -0.1852  0.0543  0.0679
15359W        W28773   4.803  16.024  13.489 -0.0183 -0.4052  0.2115
15360W        W28774   3.443  14.863  13.872 -0.4542  0.0131 -0.0126
15361W        W28775  16.704   3.658  14.045 -0.3369  0.0345 -0.2316
15362W        W28776   7.902   0.285  16.391  0.0130 -0.0340  0.1625
15363W        W28777   2.639  16.341  11.770 -0.0746  0.2337  0.0649
15364W        W28778  16.884   1.425  15.228 -0.1113  0.0340 -0.2237
15365W        W28779  10.531  16.560  14.296 -0.0894  0.1192 -0.2889
15366W        W28780   3.356   4.698   3.797  0.3438 -0.0580  0.1244
15367W        W28781   2.717  11.530   2.991 -0.0399 -0.1611  0.0131
15368W        W28782   7.553   5.068   1.882  0.1723  0.4499 -0.0720
15369W        W28783  12.135   6.937  16.637 -0.1274 -0.0798  0.2231
15370W        W28784  11.560   8.896   6.292 -0.0305 -0.0971  0.0631
15371W        W28785   6.440  10.719  12.121 -0.1311  0.0718 -0.2798
15372W        W28786   5.322  17.886  12.246 -0.2795  0.0786  0.0546
15373W        W28787  17.448   2.915  12.829  0.1188 -0.2282  0.0650
15374W        W28788   6.910  16.789   4.989 -0.0822 -0.0301  0.0403
15375W        W28789  12.454  10.691   0.032 -0.2083 -0.2943 -0.2237
15376W        W28790  12.665  17.111   6.116  0.0610  0.0724  0.2856
15377W        W28791  10.420   3.284  15.667  0.1225 -0.1293  0.1302
15378W        W28792   6.788   1.840   2.130 -0.1547 -0.0341  0.0071
15379W        W28793  11.374   6.570   3.185  0.2208  0.0577  0.0820
15380W        W28794  15.547   7.537   1.746 -0.0053  0.1243  0.3332
15381W        W28795  11.706   0.033   5.176  0.1768  0.0350 -0.1939
15382W        W28796   1.930   3.734   5.908 -0.1368 -0.1736 -0.1460
15383W        W28797  12.792  12.361   0.891  0.2043 -0.1223 -0.0444
15384W        W28798  13.973   4.118  16.442 -0.2563 -0.0787 -0.0379
15385W        W28799   1.926  11.473   0.185  0.1528 -0.3778 -0.1328
15386W        W28800  13.433  12.180   5.352 -0.3865  0.1857 -0.3040
15387W        W28801   5.960  10.910   5.775 -0.4126 -0.1211  0.4121
15388W        W28802   7.433  16.781   5.612 -0.0666  0.1153  0.1577
15389W        W28803   4.927   4.791  14.866  0.1888  0.0785 -0.0575
15390W        W28804  14.629   9.235   4.672 -0.0004 -0.4167  0.2648
15391W        W28805  14.312  13.639  14.549  0.2908  0.1919 -0.4127
15392W        W28806   2.113  10.568   3.626 -0.0967  0.0964 -0.2661
15393W        W28807  16.668   7.435  14.521  0.1851 -0.3209 -0.0554
15394W        W28808  15.876  10.840  14.563 -0.4539  0.1606  0.0151
15395W        W28809   1.802  15.127  11.603  0.1568 -0.1675  0.2344
15396W        W28810   8.720   8.068   3.914  0.0733 -0.1343  0.2212
15397W        W28811  11.985  14.030  14.589 -0.0834  0.2494 -0.2113
15398W        W28812   4.642   0.568  11.385  0.3037  0.3142 -0.1856
15399W        W28813   0.852   9.402  14.277  0.0066 -0.1950 -0.1339
15400W        W28814   5.924   0.004   2.643  0.0722 -0.1015  0.1247
15401W        W28815  17.730   5.044  10.772  0.3196  0.1988 -0.1084
15402W        W28816   7.993   2.984  16.150  0.1272 -0.0494  0.0802
15403W        W28817   0.610   0.109   5.953  0.0375  0.3338  0.1451
15404W        W28818  15.333  12.529  16.549 -0.0477 -0.1249 -0.2907
15405W        W28819   4.239   9.766  13.554 -0.1664 -0.0158 -0.0266
15406W        W28820   4.776  13.235  12.835  0.0737 -0.1645 -0.0926
15407W        W28821  13.331  10.152  11.245 -0.0726 -0.0640 -0.0485
15408W        W28822   1.796   9.505   0.092 -0.3424  0.1192 -0.0704
15409W        W28823   5.629  10.447  12.734  0.0893  0.2665  0.3517
15410W        W28824  11.605  13.968   3.740 -0.0186 -0.0865  0.1039
15411W        W28825  12.260  10.524  15.098 -0.0185  0.0023 -0.0894
15412W        W28826   5.493   0.094   2.123 -0.0370  0.0399 -0.0918
15413W        W28827  17.046  11.603  15.322  0.2227  0.1245  0.1204
15414W        W28828  17.559   9.777  10.680 -0.1109  0.0505  0.3217
15415W        W28829   1.859   5.845   5.466 -0.1671 -0.0150 -0.0007
15416W        W28830   6.836   4.296   0.529 -0.3551  0.1138 -0.1944
15417W        W28831   1.720  11.120   6.101  0.0269  0.1251 -0.1748
15418W        W28832   5.547   2.105  12.383  0.0901  0.0233 -0.0958
15419W        W28833   9.226   0.585  11.105 -0.2781 -0.0453  0.0551
15420W        W28834  12.824   3.774   0.254  0.1995  0.1354 -0.0109
15421W        W28835   5.462  12.743  12.302 -0.2720 -0.0746  0.2433
15422W        W28836   4.744  13.285   2.438  0.2140 -0.2776 -0.1694
15423W        W28837   5.279   6.492   4.494 -0.1164  0.1478 -0.0433
15424W        W28838   4.130  14.087   3.852  0.2267 -0.3341  0.0369
15425W        W28839   9.551  17.673  14.969 -0.3656 -0.1357  0.1697
15426W        W28840  11.716  14.769   0.191  0.2773  0.0103  0.2727
15427W        W28841  13.626   1.588  11.794  0.2322  0.3155 -0.1718
15428W        W28842  15.892   1.290   4.962 -0.1916 -0.0828 -0.1781
15429W        W28843  17.470   8.371   0.498 -0.0962 -0.1034  0.1152
15430W        W28844   7.248   7.270   3.133  0.0108  0.3954  0.1002
15431W        W28845   1.955   8.795  11.861 -0.0293  0.1201  0.0673
15432W        W28846   6.004  11.425  14.351  0.2365 -0.2397  0.0456
15433W        W28847   6.200  12.919   1.034 -0.1131  0.3929 -0.3521
15434W        W28848   4.018   7.228   3.521 -0.0095  0.0135  0.1512
15435W        W28849   9.987   8.870   1.049 -0.1312  0.1895  0.3550
15436W        W28850  10.700   6.035  11.505 -0.0410  0.1982 -0.1029
15437W        W28851  10.453   7.205  12.009  0.2365 -0.1087 -0.2352
15438W        W28852   3.490   2.920  11.729 -0.0165 -0.2838  0.1454
15439W        W28853  12.031  13.503  13.291 -0.0404  0.1374  0.1627
15440W        W28854   9.112   9.353   3.436 -0.0033 -0.0110  0.1022
15441W        W28855   9.285   3.989  10.719 -0.2408 -0.1690 -0.0063
15442W        W28856   2.726  17.479   4.468  0.0093  0.1987  0.0885
15443W        W28857   1.038   8.394  16.206 -0.2813  0.0417 -0.1354
15444W        W28858   5.319  13.864  12.873 -0.3561  0.2033  0.0677
15445W        W28859   9.541   9.339   2.079  0.0948  0.4204 -0.0770
15446W        W28860  13.506  11.460   6.607 -0.0951  0.1219 -0.3531
15447W        W28861   2.006  12.268   3.096 -0.0216  0.0700 -0.0100
15448W        W28862  16.094   7.758  15.852 -0.2292 -0.0849 -0.0411
15449W        W28863   2.737   9.132  12.407 -0.1372 -0.0451 -0.0117
15450W        W28864  11.636  17.343   4.424 -0.2664 -0.0656  0.2215
15451W        W28865   8.792   1.935   2.512  0.1238  0.3739  0.0322
15452W        W28866   8.512  14.001   4.483 -0.1051  0.2605  0.0099
15453W        W28867  17.716   8.902  14.864  0.0872  0.1438  0.1447
15454W        W28868  11.717  12.882  11.682 -0.3315 -0.3562 -0.0653
15455W        W28869  11.364   5.893   5.056  0.2142  0.1958 -0.0263
15456W        W28870   7.107   1.669   2.877 -0.2382 -0.0176 -0.0559
15457W        W28871  13.586   4.275  15.176  0.1122  0.0177  0.1354
15458W        W28872  14.176   9.791  12.697 -0.3957  0.0583 -0.0469
15459W        W28873  13.168  17.249   5.690 -0.0832  0.0406 -0.3737
15460W        W28874  12.810   2.734  14.446 -0.2295 -0.0417  0.1814
15461W        W28875  13.587  14.639   5.835 -0.2296 -0.1037 -0.1758
15462W        W28876  13.497  17.176  14.170 -0.2275  0.0150  0.4023
15463W        W28877  11.817  12.714   6.039  0.1773  0.0332 -0.3057
15464W        W28878  16.965  15.552   0.512 -0.2049 -0.2524 -0.0564
15465W        W28879  13.875   4.431   3.886 -0.2477  0.0945 -0.0228
15466W        W28880  10.250  10.068  11.223 -0.0909 -0.0171 -0.0299
15467W        W28881   3.330  11.394  15.974 -0.0556  0.1575  0.0084
15468W        W28882   3.923   2.757   2.157 -0.0565 -0.2728 -0.1750
15469W        W28883   4.292   5.394  11.827  0.0194 -0.0347  0.1079
15470W        W28884  16.363   4.818   4.343 -0.0091  0.0255 -0.0360
15471W        W28885  17.827  10.907  11.732  0.0625  0.1146 -0.2493
15472W        W28886   2.851   0.433   5.197  0.0421  0.0027 -0.0569
15473W        W28887   3.334  14.957   2.340 -0.1366  0.1485  0.1475
15474W        W28888  14.440   5.145   2.790 -0.0058 -0.1347  0.0452
15475W        W28889   7.411  11.535   2.729  0.2170  0.1078  0.4637
15476W        W28890   1.737  15.792   1.591 -0.1300 -0.1340 -0.0557
15477W        W28891   1.019   2.448   0.873  0.0171 -0.0314 -0.3351
15478W        W28892  12.543  17.804  10.978 -0.1823  0.1024  0.1253
15479W        W28893  10.706   5.207   4.989  0.0874 -0.1985 -0.0211
15480W        W28894   8.214   3.882   0.938 -0.0315  0.1628 -0.0127
15481W        W28895   6.571   5.217   4.929 -0.0397 -0.0833  0.1157
15482W        W28896   6.823  16.458   0.085 -0.0076 -0.0353  0.1852
15483W        W28897   2.685   9.504   0.066 -0.0463  0.0633  0.1260
15484W        W28898   7.551  13.317   3.122  0.0209 -0.1611  0.0598
15485W        W28899   5.342  12.055  11.092 -0.1731  0.0015 -0.0589
15486W        W28900  12.721   9.471   2.604  0.0205  0.4064  0.0134
15487W        W28901   2.031   7.509   0.401  0.0782 -0.1974 -0.2807
15488W        W28902   2.161   7.883  13.774 -0.1850 -0.1414  0.1127
15489W        W28903   5.402   1.103  11.711 -0.3314 -0.1890  0.0943
15490W        W28904  12.019   1.743   0.021 -0.0109  0.2842  0.0662
15491W        W28905   1.304  17.506  15.783  0.0572  0.2232  0.2834
15492W        W28906   8.117  14.436   3.870 -0.0673 -0.3285  0.2789
15493W        W28907  10.877  12.340   0.235  0.1157  0.0834 -0.1288
15494W        W28908  10.525   8.270  11.302  0.0193 -0.2466  0.3185
15495W        W28909  15.419   0.831  10.981 -0.1515  0.0051  0.2981
15496W        W28910  12.806   6.345   1.831 -0.1012  0.1774 -0.1994
15497W        W28911   3.794  14.873   0.053 -0.0526 -0.3650 -0.2225
15498W        W28912  17.134   7.086   1.333  0.0991  0.0155 -0.2505
15499W        W28913   3.491   6.380   1.702 -0.0498 -0.1313  0.0228
15500W        W28914   8.212  16.655  16.062 -0.1042 -0.0548 -0.0311
15501W        W28915   8.659   2.389   0.879 -0.0068 -0.1015  0.0623
15502W        W28916   2.253  13.120   0.102  0.1222  0.1675  0.0188
15503W        W28917  13.022   7.510   1.482 -0.2623  0.1911 -0.3288
15504W        W28918  16.698  14.161  13.571  0.0191  0.0639  0.2249
15505W        W28919   9.678   0.935  11.002  0.0009 -0.1923  0.1950
15506W        W28920   2.570  13.837   2.183  0.3110 -0.3031 -0.1063
15507W        W28921  14.674   3.480  11.026 -0.0270  0.0335  0.2052
15508W        W28922   4.459  15.732  14.686 -0.0315 -0.0155 -0.2362
15509W        W28923   7.184   9.650  16.329 -0.4247 -0.0832  0.3068
15510W        W28924  16.367  16.251  15.048  0.0668  0.0821 -0.0086
15511W        W28925  13.138   9.758   2.070  0.1476  0.2743 -0.0683
15512W        W28926   2.771  14.110  11.579  0.1116  0.2600  0.1778
15513W        W28927  13.335   4.745  16.396  0.1517  0.1606  0.1669
15514W        W28928  16.134  16.180   1.440  0.1536 -0.0170  0.1140
15515W        W28929  10.837   2.729  12.730 -0.0038 -0.1016  0.0579
15516W        W28930  13.507  10.414   1.715 -0.1277  0.0218  0.1463
15517W        W28931   0.173  12.980   2.767 -0.0236  0.1621 -0.0185
15518W        W28932   3.471   3.491   5.425  0.3117  0.0329  0.1777
15519W        W28933  10.385   9.702   4.420  0.0437 -0.0071 -0.1977
15520W        W28934  15.625   4.534   3.228 -0.0882 -0.2170  0.5169
15521W        W28935   9.245   4.416   3.570  0.2745  0.0842  0.3046
15522W        W28936   1.904   3.910  16.055 -0.0307 -0.1296 -0.0664
15523W        W28937  13.073  17.057  15.478  0.3648 -0.1399  0.0137
15524W        W28938  11.426   3.098  11.215  0.1076  0.2073  0.2507
15525W        W28939   3.751   3.167   1.966  0.1449  0.0945  0.4285
15526W        W28940   1.079   7.572   0.479 -0.0470 -0.0457  0.0133
15527W        W28941  11.193  14.111  16.477  0.3492  0.0033 -0.0399
15528W        W28942   7.965  16.804   0.006 -0.1202 -0.1267 -0.1167
15529W        W28943   1.283  14.992   2.013  0.0640 -0.0561  0.1435
15530W        W28944   2.839   2.493   1.972 -0.0732 -0.0440  0.0341
15531W        W28945   0.743   8.550   0.782  0.2313 -0.0585 -0.3281
15532W        W28946  15.286   5.410  10.777  0.0742  0.0566 -0.2530
15533W        W28947   4.057  11.546  15.212 -0.3973 -0.0687 -0.1244
15534W        W28948   4.415   4.391   4.219 -0.1528  0.1582  0.1782
15535W        W28949   3.869  14.989   3.518 -0.0618 -0.1483  0.2457
15536W        W28950   7.767   6.156  16.739  0.0699 -0.2128  0.2202
15537W        W28951  11.854   8.912   1.612 -0.0715 -0.0100 -0.1283
15538W        W28952   9.350  11.694   2.853  0.0564  0.0043  0.1323
15539W        W28953   6.079   0.655  11.253  0.0126  0.0486  0.1012
15540W        W28954  14.602   4.836   3.802  0.0019 -0.0723 -0.1946
15541W        W28955  10.521  16.258   1.023 -0.2682 -0.2963 -0.1934
15542W        W28956   3.417   2.155  16.467  0.0629 -0.2703  0.0536
15543W        W28957   3.113   1.734   2.376  0.1313 -0.1708 -0.1060
15544W        W28958   0.234  17.023  16.475 -0.0391  0.1938 -0.4089
15545W        W28959   8.708  17.181   0.008 -0.0851 -0.0463 -0.1359
15546W        W28960   0.378   1.874  16.502  0.1419  0.1184 -0.2888
15547W        W28961   7.939   6.954   0.517  0.2069  0.2873  0.2065
15548W        W28962   8.176   9.135  12.081 -0.1576 -0.1968  0.2232
15549W        W28963   3.088  17.272  13.776 -0.0416 -0.1835  0.2945
15550W        W28964   1.579  12.179  10.991 -0.1168  0.1774  0.0410
15551W        W28965   1.105   0.449   3.672  0.2076 -0.0980 -0.1592
15552W        W28966   3.664  15.149   0.442 -0.2162 -0.2707 -0.2213
15553W        W28967   1.967   4.169  10.611  0.0241  0.0205  0.0596
15554W        W28968  12.632  16.572   2.862 -0.0057  0.0220  0.1695
15555W        W28969  12.982   1.103  12.254 -0.0337  0.0917 -0.0035
15556W        W28970  14.478  11.854  12.351  0.1686  0.0297  0.2271
15557W        W28971  14.017   8.970   2.646 -0.1920 -0.0240  0.0586
15558W        W28972   6.988   5.560   3.730 -0.3021  0.0615 -0.2544
15559W        W28973  11.691  10.797  14.282 -0.0909 -0.0674  0.0827
15560W        W28974  10.830   3.342   5.575  0.0565 -0.3092 -0.1588
15561W        W28975   8.873  12.188  15.497 -0.1330  0.2756  0.1888
15562W        W28976   0.124  14.348   0.822 -0.1299  0.1331  0.0033
15563W        W28977   2.823   4.460  14.101 -0.3308 -0.2599  0.2027
15564W        W28978  17.393   0.115  10.443 -0.3972 -0.0524 -0.2932
15565W        W28979  13.811  16.507  16.062  0.0154  0.0264 -0.2535
15566W        W28980   2.741  16.846  15.742  0.1457 -0.1126 -0.1612
15567W        W28981   0.589   8.502   3.357  0.0129 -0.0178  0.2746
15568W        W28982   5.704   1.140  12.200 -0.1483 -0.0136  0.1850
15569W        W28983   4.132   5.750   5.916  0.0355  0.2498  0.0274
15570W        W28984  15.713  15.847  13.086 -0.2762  0.3217  0.0067
15571W        W28985   3.575   5.393  11.451 -0.2831  0.2087 -0.1287
15572W        W28986  15.579  12.152  13.364  0.0903 -0.2840  0.0923
15573W        W28987  10.040   4.423   3.677  0.1367  0.3387 -0.1514
15574W        W28988   6.890  14.049  13.620  0.0313 -0.0918 -0.1450
15575W        W28989   4.168   3.653   3.723 -0.2234  0.2521 -0.1609
15576W        W28990   9.109   7.322   6.036  0.0340 -0.1164 -0.0865
15577W        W28991   9.620   8.019   4.324 -0.1021 -0.0803 -0.1332
15578W        W28992  14.376  17.166   0.933 -0.0272 -0.0659  0.1329
15579W        W28993  13.900   4.960  10.969  0.1427  0.2250  0.1107
15580W        W28994   5.710   5.329   4.422  0.0468  0.0235  0.2058
15581W        W28995  15.194  14.071   1.067  0.0024  0.1158 -0.3103
15582W        W28996  18.008   2.878   5.464  0.1575 -0.3123 -0.2549
15583W        W28997   6.989   7.997  16.535  0.3319 -0.1640  0.2283
15584W        W28998   1.769  14.946  13.860 -0.3272  0.0703 -0.1336
15585W        W28999  17.711   4.825  16.784  0.0013 -0.1930  0.0954
15586W        W29000   2.089  10.006  13.037 -0.2848  0.1208  0.0843
15587W        W29001   5.316  15.033  10.966  0.0559 -0.1404 -0.0582
15588W        W29002   0.671  17.838  14.028 -0.1959 -0.1023 -0.2853
15589W        W29003   0.912   6.266   2.090  0.2162  0.1890  0.1490
15590W        W29004   8.683   1.363   1.089 -0.1823 -0.1869  0.3172
15591W        W29005  16.548  11.767  15.420  0.2585 -0.1260  0.2184
15592W        W29006  11.257   6.439  14.252  0.2350 -0.1390  0.0278
15593W        W29007   4.980   5.837   5.871  0.2360  0.4248 -0.1615
15594W        W29008   3.754   5.413   3.453  0.1681 -0.1261 -0.2890
15595W        W29009  16.285   7.545   0.375 -0.0223  0.0346  0.1990
15596W        W29010   0.255  17.323   5.262 -0.1511 -0.0614  0.1667
15597W        W29011  12.226   7.294   5.493 -0.0689  0.0312  0.0255
15598W        W29012   9.707   0.462  11.173  0.0807 -0.0295  0.0547
15599W        W29013  15.833   7.374  11.551  0.2066  0.0838 -0.2599
15600W        W29014   5.491   9.151  15.966 -0.2885 -0.2291 -0.2604
15601W        W29015   4.483  15.247  16.157  0.2868  0.2530 -0.0376
15602W        W29016  13.553  14.611   3.445 -0.0221 -0.1108  0.0752
15603W        W29017  18.005  11.249   2.673 -0.0347  0.1038 -0.0093
15604W        W29018  12.745  14.442   0.526 -0.1394 -0.1740  0.2173
15605W        W29019   9.461   5.658  15.891  0.2711  0.3167 -0.1477
15606W        W29020   2.563  12.821   2.501 -0.1118 -0.2143 -0.1807
15607W        W29021   1.432   1.604  15.913  0.1184 -0.1047 -0.1918
15608W        W29022   5.184   0.729   5.786 -0.1753 -0.3909 -0.3549
15609W        W29023  11.180   0.623  12.238  0.0500  0.1847 -0.2083
15610W        W29024   2.357   8.077  14.175 -0.0476 -0.1349 -0.0096
15611W        W29025   2.964   9.338   4.569 -0.2106  0.0165 -0.0613
15612W        W29026  17.095   1.556   1.008  0.0823  0.2327  0.4175
15613W        W29027  16.054  12.397   3.638 -0.2882  0.0884  0.0766
15614W        W29028   4.486  12.622   1.760  0.2408 -0.0455 -0.0785
15615W        W29029  12.227  10.600   0.874 -0.1117  0.0056  0.1223
15616W        W29030  12.165  13.617   6.194  0.0542  0.1334 -0.0834
15617W        W29031  14.980  12.078  15.633  0.0477 -0.1458 -0.0048
15618W        W29032   7.071  13.592  13.614  0.0791 -0.2446  0.2125
15619W        W29033   4.490  13.039   1.506 -0.0407  0.0828 -0.3281
15620W        W29034   8.851   0.878  12.153 -0.0947  0.2852  0.0014
15621W        W29035   3.385  15.558   2.635 -0.2739 -0.1866  0.2048
15622W        W29036   5.118  15.441  14.900  0.1106  0.3819  0.1009
15623W        W29037  12.088   6.618  12.492  0.1758  0.3337 -0.0840
15624W        W29038   0.732   4.727  11.590  0.4147 -0.4558  0.0143
15625W        W29039   6.376  15.714  14.574 -0.0851 -0.0700  0.0153
15626W        W29040   5.411  11.053  16.415  0.1251 -0.0349  0.3055
15627W        W29041  17.864   9.793   3.090  0.3350  0.0357  0.0106
15628W        W29042   4.414  10.820  13.120 -0.1079 -0.1006 -0.1512
15629W        W29043  17.647  17.738   5.004  0.0471  0.1346 -0.1301
15630W        W29044   4.509   4.932   0.622  0.2896 -0.1920 -0.0378
15631W        W29045   2.689  13.035   1.032 -0.1934  0.1076  0.2015
15632W        W29046   7.566   1.867  11.575  0.3124  0.1968  0.0951
15633W        W29047  17.238   9.754  10.282 -0.1804  0.0041 -0.0267
15634W        W29048   5.716   4.395   1.629 -0.3353  0.1548  0.2136
15635W        W29049  13.678  17.894   0.707 -0.0320  0.0965  0.0530
15636W        W29050   6.201   9.673   1.170  0.0022  0.0599  0.0475
15637W        W29051  10.326   8.654  16.188  0.2576  0.0673 -0.2542
15638W        W29052   4.170   1.265  11.484  0.0880  0.2496 -0.2579
15639W        W29053   9.584   3.603  11.824  0.2318  0.1543 -0.1942
15640W        W29054  13.246   0.147  12.655 -0.1994 -0.2472 -0.2403
15641W        W29055  16.076   3.443   6.221 -0.2688 -0.1223  0.0734
15642W        W29056   2.838   9.813   4.667 -0.0880 -0.2034  0.1180
15643W        W29057  10.645   3.174  12.896 -0.0907 -0.0312  0.1529
15644W        W29058   5.625   2.568   5.439  0.3223 -0.2228 -0.1337
15645W        W29059   3.237  15.084   0.695 -0.1832 -0.0452  0.1589
15646W        W29060   3.439  10.318   5.660  0.0029 -0.2555  0.0394
15647W        W29061  14.770  13.969   0.843 -0.2104 -0.0223  0.0443
15648W        W29062  11.437   4.077   1.245  0.2452 -0.3128  0.0297
15649W        W29063  11.125  13.506   3.143  0.1165  0.2120  0.0391
15650W        W29064   2.844  16.189  11.216  0.2924 -0.4029 -0.1955
15651W        W29065   4.266   3.814  13.860  0.1404  0.0913 -0.1439
15652W        W29066   4.461   2.529  16.663 -0.0172 -0.0139  0.0949
15653W        W29067   6.797   0.148  16.182  0.0606 -0.1384  0.1428
15654W        W29068   1.206  17.981  11.833 -0.2435 -0.3325  0.1935
15655W        W29069   6.921   5.627   4.611 -0.1368 -0.0097  0.1412
15656W        W29070  11.690   7.415  12.263  0.0650  0.1946 -0.2679
15657W        W29071   9.410  11.520  12.374 -0.1343  0.2762 -0.4287
15658W        W29072  16.362  15.988  15.437  0.3190  0.2121  0.0593
15659W        W29073   7.977  10.660   5.578  0.3112  0.3624  0.1886
15660W        W29074   3.505  13.843  11.408 -0.0810 -0.0126  0.0162
15661W        W29075  15.014   0.559   1.475  0.1827  0.2362 -0.4447
15662W        W29076   0.052  11.177  15.417 -0.0399 -0.0691  0.0498
15663W        W29077  15.427  11.662  13.343 -0.2650  0.2832  0.0760
15664W        W29078  16.996  10.582  12.292  0.1217 -0.0178  0.2288
15665W        W29079   1.939   7.890  12.427  0.0370 -0.2410 -0.0923
15666W        W29080  17.819  13.142   0.861 -0.2779  0.0038 -0.3880
15667W        W29081   0.368   4.047  16.547 -0.1559 -0.1317  0.1544
15668W        W29082   6.060  13.615   4.342  0.4394  0.4660 -0.0135
15669W        W29083  10.212   7.440   4.734 -0.0178 -0.0275 -0.1939
15670W        W29084   1.784  12.374  16.668  0.3154 -0.0529 -0.0065
15671W        W29085  17.740  10.900  15.925  0.1706  0.0083  0.0116
15672W        W29086   2.754  16.963   3.700  0.1784 -0.1684  0.2480
15673W        W29087   9.566  10.102   4.541 -0.2427  0.2856 -0.2322
15674W        W29088   0.511  17.750   3.931  0.2891 -0.0987 -0.1141
15675W        W29089   3.220   4.620   3.301  0.0882 -0.0047 -0.2262
15676W        W29090  17.787   4.535   2.651 -0.0322 -0.2267  0.1369
15677W        W29091   8.917  14.852   5.925  0.2409  0.1008  0.0717
15678W        W29092   6.004   0.344  14.151 -0.2187  0.0195 -0.4864
15679W        W29093  10.699   6.879  14.888 -0.1442  0.2989  0.1074
15680W        W29094  15.177   6.060  11.336 -0.2598  0.0736 -0.1296
15681W        W29095   4.377  15.644   0.640  0.2313  0.0963 -0.3273
15682W        W29096  12.128  15.571  12.234  0.2117 -0.0494 -0.1123
15683W        W29097   6.936  12.599   6.254 -0.2179  0.0149 -0.1024
15684W        W29098   0.584   6.700   3.342  0.0800  0.1697  0.2154
15685W        W29099   7.924   3.965   2.106 -0.0706 -0.0936  0.0435
15686W        W29100  14.035   4.132  14.305 -0.1277  0.0660 -0.1234
15687W        W29101  10.963  11.832   2.177  0.2443 -0.0608  0.0338
15688W        W29102   4.748   6.412   0.954  0.0107 -0.0796 -0.1220
15689W        W29103   2.967   5.016  15.782  0.1540  0.0112  0.0382
15690W        W29104  15.202   1.551   0.001 -0.0283  0.0995 -0.0333
15691W        W29105   9.522  12.596   1.318  0.1256  0.0929  0.0333
15692W        W29106  11.643   5.484  16.344  0.0519 -0.1030 -0.0894
15693W        W29107  13.481   6.192   2.568  0.2587 -0.2621  0.2541
15694W        W29108   4.708  12.980   5.483  0.2544 -0.0295  0.0315
15695W        W29109   8.280  17.134   0.297 -0.0575 -0.1259  0.0937
15696W        W29110   8.726   0.859   1.093 -0.1547 -0.0866  0.0701
15697W        W29111   3.615   6.721  15.194 -0.0487 -0.0785 -0.1994
15698W        W29112  14.896   4.953   3.388 -0.0819  0.0997 -0.1381
15699W        W29113   7.356   1.308   2.683 -0.3419  0.0161  0.0227
15700W        W29114  15.084   5.768   5.350 -0.2127  0.1756  0.1353
15701W        W29115  12.422  16.538  14.764 -0.2114  0.1975  0.1984
15702W        W29116   3.733  14.503  14.972  0.0771 -0.0391  0.1064
15703W        W29117  13.125  16.547  13.514 -0.1736  0.0727 -0.2534
15704W        W29118  11.188   7.200   5.104  0.1335 -0.0984  0.1783
15705W        W29119  14.942   1.930  11.339 -0.0809  0.0137 -0.0997
15706W        W29120   9.608  16.302   2.202 -0.0193 -0.0324  0.3063
15707W        W29121   4.754   4.964   1.541 -0.0455 -0.0543 -0.0064
15708W        W29122   4.386  10.708  15.058  0.0722  0.0685 -0.3471
15709W        W29123   2.231   3.579   0.989  0.2653  0.1296 -0.0455
15710W        W29124   7.334  17.680  10.807  0.2166 -0.0457 -0.1564
15711W        W29125   7.023   7.438  11.654 -0.0939  0.0402 -0.0218
15712W        W29126  15.256  12.985   1.636 -0.0786 -0.1116  0.1286
15713W        W29127   6.766  12.677   4.858 -0.1740  0.1190  0.2793
15714W        W29128  16.235   6.399   4.008 -0.0420  0.2273  0.0044
15715W        W29129   0.401   2.353   4.123  0.1985 -0.2030  0.0321
15716W        W29130  14.325  14.080   1.077  0.2719  0.0106  0.1016
15717W        W29131  13.270   7.627   0.473 -0.0013 -0.1245  0.1887
15718W        W29132   7.042   5.388  12.189  0.2367 -0.0681  0.2981
15719W        W29133  12.108  13.961  13.575  0.1648 -0.2200 -0.1073
15720W        W29134  16.357   4.921   0.863 -0.1055  0.0764 -0.1357
15721W        W29135  12.216   8.541   3.416 -0.3654  0.0066  0.0316
15722W        W29136  15.220   1.032   5.276  0.0110 -0.1598 -0.1649
15723W        W29137  17.024   2.203  12.500  0.0774  0.1401  0.0162
15724W        W29138  12.623   9.957  10.755 -0.0791 -0.1638 -0.0178
15725W        W29139   3.031  11.219  10.775  0.1640  0.0761  0.0821
15726W        W29140  10.294   1.116  10.277 -0.1408  0.1265  0.2053
15727W        W29141   7.160   9.057   1.313  0.1005 -0.0019  0.1802
15728W        W29142   3.702   9.962   1.040 -0.1351  0.0399  0.2479
15729W        W29143   4.564  16.731  12.348  0.2136  0.1378  0.0813
15730W        W29144   8.597   4.741  16.685  0.4251  0.1975 -0.2749
15731W        W29145   4.991   6.520  14.388  0.0947 -0.3621  0.1564
15732W        W29146  13.907   7.218   5.628  0.1543  0.2165 -0.0712
15733W        W29147   1.618  14.246  16.532  0.0238  0.3323  0.0259
15734W        W29148  11.887  13.439  11.717 -0.2773  0.0041 -0.1463
15735W        W29149   5.457  16.714  11.079  0.1747 -0.0472  0.0099
15736W        W29150   5.959   4.888   0.176  0.0949 -0.0420  0.1531
15737W        W29151  16.936  12.261  10.413 -0.1775 -0.1595  0.1591
15738W        W29152   2.472   8.100   3.643 -0.1310 -0.0043  0.0181
15739W        W29153   2.837   0.197   0.626  0.2107  0.0833  0.3438
15740W        W29154  17.159  17.128   0.338 -0.2490  0.2128 -0.3326
15741W        W29155  10.252   5.241   4.764  0.0200  0.1943 -0.0717
15742W        W29156  17.009  13.651   0.525 -0.1550  0.2211  0.2274
15743W        W29157  16.880  15.412   2.939  0.2325 -0.0054 -0.0099
15744W        W29158   4.475  10.744   1.919 -0.2781 -0.1664 -0.0620
15745W        W29159  11.928   1.372  14.021 -0.0623 -0.2798 -0.0669
15746W        W29160  12.871  12.378  11.922 -0.1780  0.1060 -0.0869
15747W        W29161  14.821  13.715  14.563  0.2704  0.0232 -0.3788
15748W        W29162  16.714   6.193   0.199 -0.0772 -0.2207  0.0584
15749W        W29163  11.896   7.495   6.211 -0.1289  0.0815 -0.2238
15750W        W29164  10.260   1.243  14.782  0.0272 -0.2109  0.2603
15751W        W29165  11.854   3.244  10.949  0.2559  0.0755 -0.1020
15752W        W29166  12.812  11.143   5.570  0.3203  0.0886  0.1024
15753W        W29167   9.012   1.363  12.448 -0.4695  0.0915  0.0212
15754W        W29168  12.983   0.317   1.078 -0.1575 -0.1028  0.1050
15755W        W29169   9.011  12.644   0.028 -0.1417  0.1728 -0.0835
15756W        W29170  13.462   7.639  15.133  0.0865 -0.0884 -0.0096
15757W        W29171   9.894  15.993   3.128  0.0836 -0.0685 -0.1137
15758W        W29172  15.357  10.396   2.855  0.2237 -0.1894  0.2032
15759W        W29173   2.880   9.167   6.186 -0.1297  0.0874  0.0790
15760W        W29174  12.115   5.451  13.870 -0.0509  0.1532  0.0871
15761W        W29175   3.527  13.036   3.919  0.0109 -0.1712  0.0375
15762W        W29176  15.945  10.436   5.146 -0.0177 -0.0046 -0.0804
15763W        W29177  12.059  12.703  16.131 -0.0822 -0.2443 -0.2093
15764W        W29178   1.415  11.465  12.751  0.1546 -0.2384  0.3330
15765W        W29179   2.790  10.717   1.654 -0.0304 -0.0623  0.3244
15766W        W29180  13.452   3.227   1.232  0.0501 -0.2426 -0.1463
15767W        W29181   6.643   1.160   1.648 -0.0239 -0.2453  0.0433
15768W        W29182   3.258   1.552   5.078  0.0985 -0.2429 -0.0582
15769W        W29183   9.817  10.934   4.449 -0.2286 -0.2146  0.2072
15770W        W29184  11.676  11.351   6.929  0.0687  0.0169 -0.0254
15771W        W29185   7.575   3.124   2.324 -0.3231  0.0639  0.2338
15772W        W29186   0.317   5.210  16.690 -0.2271  0.2386  0.0814
15773W        W29187   9.701   0.366  15.371 -0.1701 -0.3912 -0.0102
15774W        W29188   3.554  11.111   2.560 -0.0961  0.1565  0.0973
15775W        W29189   3.721   3.566   3.946 -0.3907 -0.1271 -0.0434
15776W        W29190   9.481   9.811  16.127 -0.0892  0.0719 -0.2314
15777W        W29191  15.669   4.699  12.454  0.2556 -0.1443 -0.1549
15778W        W29192   9.598   3.512   5.635  0.1717 -0.2149  0.0331
15779W        W29193   0.132   5.056  16.236 -0.0829 -0.1233  0.0536
15780W        W29194   9.327   9.892  16.654  0.2062  0.0142  0.2534
15781W        W29195  17.575   8.060  15.786 -0.0708  0.0867  0.0470
15782W        W29196   8.158   9.351   4.939  0.1477  0.2420  0.0207
15783W        W29197  13.842  10.182   1.465 -0.2732  0.3180  0.2318
15784W        W29198  12.050  11.120   0.808 -0.1270 -0.1780 -0.0573
15785W        W29199   4.766  16.532   0.742  0.3438  0.1585 -0.0115
15786W        W29200  13.360   0.680  11.871  0.0747  0.2975  0.0556
15787W        W29201   4.526   8.956   5.627 -0.0329  0.1187 -0.1680
15788W        W29202   3.039   8.460  13.840  0.1351  0.0014  0.0436
15789W        W29203   3.378  10.159  11.769  0.2339 -0.2286 -0.0381
15790W        W29204   5.054   4.650   0.011  0.1108 -0.1469  0.1279
15791W        W29205  12.062   0.338  14.245 -0.0032 -0.0806 -0.1532
15792W        W29206   0.229   8.014  13.925 -0.1855  0.0916  0.1125
15793W        W29207   4.357  11.899  16.362 -0.1230 -0.0696  0.1851
15794W        W29208   7.035  15.939   3.294 -0.0259 -0.3073  0.2227
15795W        W29209  13.581   1.141   4.108  0.0623 -0.2788  0.0374
15796W        W29210   2.680   5.537  11.665  0.1472 -0.0768  0.1094
15797W        W29211  11.722   6.061   3.080 -0.4779 -0.3045 -0.0650
15798W        W29212  10.816  17.207   1.139  0.1941 -0.4442 -0.0106
15799W        W29213   1.939  15.084  13.446 -0.2217  0.0384  0.0860
15800W        W29214  15.744  12.628   5.366  0.0456 -0.0948 -0.1603
15801W        W29215   6.826  15.326  11.914 -0.0063  0.1354 -0.1813
15802W        W29216   7.273   6.999  13.730  0.0022  0.0371 -0.0491
15803W        W29217   4.934   7.566  13.674  0.0367 -0.1248  0.0975
15804W        W29218   6.112   6.219  10.626 -0.2621 -0.1934 -0.1564
15805W        W29219   4.783  12.925  15.399  0.1728 -0.1638  0.0569
15806W        W29220   5.303  12.121  13.379  0.0765  0.0650 -0.1242
15807W        W29221   2.945   0.721   2.957 -0.0124  0.2141  0.1751
15808W        W29222  10.947   1.344  10.833 -0.2381  0.3432 -0.2958
15809W        W29223  10.212   8.750   5.506  0.2627  0.2705 -0.1132
15810W        W29224  10.004   8.043  12.615  0.0628  0.0253 -0.0088
15811W        W29225   2.696   6.341   4.660 -0.0679 -0.0981 -0.0283
15812W        W29226  17.335   1.266  15.069 -0.0360 -0.0218  0.0265
15813W        W29227  15.675   2.006   5.595  0.0207  0.3536  0.1729
15814W        W29228   4.105   8.753   3.645  0.0192 -0.0181 -0.1266
15815W        W29229  11.802   8.500   4.446  0.0585  0.1792 -0.0255
15816W        W29230   4.588  15.400   2.449 -0.2422 -0.1378  0.1384
15817W        W29231   0.650   1.932  12.866  0.3453  0.1385 -0.1319
15818W        W29232   8.434   6.414   5.516 -0.2039 -0.1434  0.1218
15819W        W29233  14.428   9.484   1.967  0.0300  0.3297 -0.1796
15820W        W29234  14.246  15.542  16.784 -0.0947  0.4407 -0.0004
15821W        W29235   0.240  10.297  12.723 -0.0396 -0.1308  0.0594
15822W        W29236  10.529   8.837  12.488  0.1442  0.1342  0.0624
15823W        W29237   2.418  11.697   3.652  0.0080 -0.2647 -0.1049
15824W        W29238  16.909  16.308  11.831  0.0082  0.0552 -0.1786
15825W        W29239   8.446  17.442  13.612 -0.1166  0.0945 -0.3393
15826W        W29240  10.621  10.980   1.144  0.0384 -0.0826 -0.2255
15827W        W29241   0.872  11.605   5.932  0.0425  0.2261  0.0024
15828W        W29242   0.084   8.656   3.392 -0.1992  0.1450 -0.0130
15829W        W29243   2.640  11.762  13.621  0.3064  0.1244  0.0112
15830W        W29244  11.282   3.861  12.316 -0.0084  0.1523  0.0589
15831W        W29245  16.151  15.315  11.685  0.2213 -0.1835  0.0874
15832W        W29246   0.441  17.866   5.336  0.0689 -0.0044 -0.0932
15833W        W29247   4.875  16.024  12.575  0.0976 -0.0444 -0.0106
15834W        W29248   7.567   0.414   0.833 -0.0102 -0.2319  0.3204
15835W        W29249   9.207  13.950   2.243 -0.1446 -0.1116 -0.2791
15836W        W29250  14.087  15.737   3.742  0.1848 -0.0542 -0.0151
15837W        W29251  14.495  17.115  15.815 -0.0021  0.1035  0.1366
15838W        W29252  16.326   7.003  13.900  0.3014 -0.1327 -0.0454
15839W        W29253  12.112   5.444   4.524  0.1503 -0.0642  0.0090
15840W        W29254  14.292  15.264  12.635  0.0835  0.1403  0.1194
15841W        W29255   7.746   0.122  14.435  0.0534 -0.0750  0.2710
15842W        W29256  10.577   2.758  13.326  0.1183  0.2300 -0.0026
15843W        W29257  16.616  14.356   5.068 -0.3786  0.0512 -0.2389
15844W        W29258  12.752  10.934   3.045 -0.0508  0.2002  0.1311
15845W        W29259   0.148   9.153  16.595  0.1322  0.1562 -0.0690
15846W        W29260   4.739  11.478  15.735  0.0493  0.0430 -0.2603
15847W        W29261  15.155   3.517   4.558 -0.0315  0.0039  0.1095
15848W        W29262  15.328   2.891  11.363 -0.0925  0.2060  0.0267
15849W        W29263   5.788   2.546   1.701  0.3495  0.0873  0.2429
15850W        W29264   4.599  16.203   5.262  0.1477  0.1410 -0.2434
15851W        W29265  16.791   3.888  12.487 -0.4616  0.1848 -0.1390
15852W        W29266   0.370   5.877   3.332 -0.1491 -0.1647  0.0811
15853W        W29267  15.334  11.699   4.410  0.0056  0.1109 -0.0395
15854W        W29268  10.374   5.351   2.882  0.2280  0.1356  0.1316
15855W        W29269   2.359  17.710   4.160  0.1421 -0.0638  0.3712
15856W        W29270   0.645   8.827  13.862 -0.1492 -0.1753 -0.0129
15857W        W29271   5.465   7.066  12.040 -0.1765 -0.1415  0.0407
15858W        W29272   6.653  16.216   1.736  0.1808 -0.1738 -0.0538
15859W        W29273   2.013   7.777   3.578  0.0579  0.2129  0.1294
15860W        W29274  13.822   0.551  13.810  0.2046  0.1399 -0.0428
15861W        W29275   8.036   8.227  13.334  0.3410 -0.0577  0.2736
15862W        W29276  15.188   4.861  12.608  0.0192 -0.0583 -0.1879
15863W        W29277   1.402   1.980   3.241  0.1024 -0.0343 -0.0140
15864W        W29278   9.959   5.907   4.079 -0.0152 -0.0543  0.0424
15865W        W29279  10.604   6.549   3.869 -0.1771 -0.2250 -0.1860
15866W        W29280  14.013   7.932  12.001  0.2552  0.3326  0.1360
15867W        W29281  14.180   0.029   0.884 -0.1890 -0.0508  0.2230
15868W        W29282  12.552  11.222  13.200  0.0460  0.0375  0.1167
15869W        W29283  15.318  13.239  11.756 -0.2004 -0.0320  0.0703
15870W        W29284   4.172  17.286   5.645 -0.0561  0.1176 -0.1157
15871W        W29285  12.635   9.563  12.629  0.0130 -0.2348  0.3089
15872W        W29286   9.302   2.851   9.879 -0.4168 -0.0478  0.0588
15873W        W29287  11.133  13.782  14.161  0.2506  0.1669  0.2890
15874W        W29288  10.584   5.379   2.438 -0.1053  0.0646 -0.0899
15875W        W29289  13.008  14.680   5.213 -0.2307  0.0698 -0.0634
15876W        W29290   3.763   6.057  15.849 -0.2085  0.1010 -0.2014
15877W        W29291  12.342   8.725  12.910 -0.3109  0.2771  0.0911
15878W        W29292  17.740   6.544   4.708 -0.0172  0.0098  0.0482
15879W        W29293   4.142  16.224   5.610 -0.1129  0.0967  0.3479
15880W        W29294   4.291   0.358  10.992 -0.3156 -0.1256  0.2717
15881W        W29295   4.641   6.636  12.711 -0.1370  0.1363 -0.0408
15882W        W29296   4.816   1.808  16.056  0.1903  0.0162  0.0768
15883W        W29297   9.820   4.956  15.253 -0.0505 -0.0078 -0.0359
15884W        W29298   9.669   9.763  14.171 -0.1103  0.0882  0.0346
15885W        W29299   0.648  16.287   2.856 -0.0168 -0.2798 -0.1417
15886W        W29300   9.516   1.992  15.274 -0.0405 -0.0854 -0.2435
15887W        W29301  10.278  17.931   0.882 -0.3563 -0.2295  0.0156
15888W        W29302  10.200   9.448   6.049  0.2023  0.0445 -0.1616
15889W        W29303   7.710  15.353  11.535 -0.0738  0.1627 -0.0787
15890W        W29304   2.215   9.620   0.960  0.0371  0.2513  0.2915
15891W        W29305   1.831   8.245  16.430 -0.1183 -0.1978  0.0699
15892W        W29306  13.304  16.197  10.560 -0.2248 -0.3659 -0.2143
15893W        W29307  14.797   1.165  13.081 -0.0280  0.1935  0.2067
15894W        W29308   0.927   4.178  12.339 -0.1398  0.1440 -0.0110
15895W        W29309  15.201  16.757  14.534 -0.1425 -0.4394  0.1143
15896W        W29310   3.732   0.230  11.518  0.0888 -0.0624 -0.2645
15897W        W29311  11.254   6.711  16.473  0.1459  0.1020 -0.0523
15898W        W29312   2.417  11.831  15.019  0.1401 -0.1468  0.1899
15899W        W29313   9.328  12.182   3.001  0.1472  0.2194 -0.0767
15900W        W29314   1.886  17.953   2.117  0.1559  0.4739 -0.3975
15901W        W29315   7.267  17.121  14.974 -0.1274 -0.0072  0.2805
15902W        W29316  12.629   7.585   1.889 -0.2447  0.1524  0.0562
15903W        W29317   7.465  17.542  12.604 -0.2059 -0.2148  0.2001
15904W        W29318  13.751  17.741   2.525  0.1317 -0.1550 -0.0645
15905W        W29319   7.810   2.657  12.938  0.4736  0.0111 -0.0370
15906W        W29320  15.538   8.833   2.801  0.2306 -0.0317 -0.0314
15907W        W29321   2.963   3.922  11.461 -0.0672  0.1176  0.3105
15908W        W29322  11.708  16.292   0.185 -0.1909 -0.1022  0.2469
15909W        W29323   6.214  12.934   4.032  0.0291  0.0686 -0.1305
15910W        W29324   3.781  13.932  10.565 -0.0926 -0.1682 -0.3233
15911W        W29325   3.063   0.707  11.939  0.3003  0.3168  0.1522
15912W        W29326   8.624  13.331  12.311 -0.0201 -0.0570  0.0898
15913W        W29327  12.737   9.876  15.885  0.1413 -0.1832  0.1469
15914W        W29328  16.557  12.505   4.838  0.1010 -0.1155  0.0259
15915W        W29329  12.461   7.497   6.266 -0.0713 -0.1149 -0.1505
15916W        W29330   5.400  15.823  15.026 -0.0660 -0.1274  0.0357
15917W        W29331   7.039   3.634  15.788 -0.1420 -0.0319  0.0805
15918W        W29332   1.846  10.155   6.518 -0.2128  0.1559  0.2378
15919W        W29333  10.976   3.995  13.645  0.0226  0.1546 -0.1885
15920W        W29334  10.864   8.602   0.687  0.2446 -0.2335  0.0580
15921W        W29335  10.465   7.649  16.474 -0.0174 -0.1829 -0.1060
15922W        W29336  14.998   7.766  16.580  0.2484 -0.1599  0.0993
15923W        W29337   6.648   4.031   0.140 -0.0104 -0.1565  0.0795
15924W        W29338   3.961  10.067  16.498 -0.3423 -0.0988 -0.2117
15925W        W29339  11.575  14.532  11.725  0.2180  0.0818 -0.3702
15926W        W29340  14.424   1.810   2.934 -0.3216  0.1491  0.1873
15927W        W29341   6.513   2.368   0.950 -0.1254 -0.1376  0.1227
15928W        W29342   4.109   5.650   2.917 -0.0317 -0.1535 -0.1147
15929W        W29343   3.372   7.904  11.862 -0.0421 -0.2978  0.0236
15930W        W29344   3.785   3.913  14.181  0.1618 -0.0161  0.1120
15931W        W29345   9.815   8.686  15.950  0.2001 -0.0836 -0.3279
15932W        W29346   4.465   3.859   4.087  0.1536 -0.0615 -0.2336
15933W        W29347   5.085  14.350  15.170 -0.2243  0.1526 -0.1334
15934W        W29348   8.646  17.785  11.360  0.1781 -0.0040  0.1274
15935W        W29349   9.178   1.976  16.043  0.2487 -0.0023  0.1739
15936W        W29350  10.979   4.380   1.245  0.0932 -0.0327  0.0888
15937W        W29351  13.472  13.096   0.538 -0.0055  0.0607 -0.2372
15938W        W29352   5.465   3.623   3.735  0.0463 -0.3071  0.0982
15939W        W29353   5.008  17.359   5.399  0.0689 -0.3229  0.0105
15940W        W29354   6.305   5.638   5.112 -0.1014 -0.0298 -0.1656
15941W        W29355   5.968  13.953   6.129 -0.2580 -0.1503  0.0477
15942W        W29356  16.931  17.896  12.684 -0.1183  0.0048  0.2223
15943W        W29357   7.072  12.027   4.089 -0.0550 -0.0572  0.2328
15944W        W29358  11.194   5.211  15.209  0.1676  0.0028  0.2597
15945W        W29359   1.219   5.085   3.994 -0.3952 -0.0006 -0.0683
15946W        W29360   9.357   9.081   5.842  0.2404 -0.1098  0.4081
15947W        W29361   2.246  12.082   0.992  0.0115  0.0452 -0.0741
15948W        W29362   8.964  16.804   2.294 -0.1047  0.0433  0.3482
15949W        W29363   3.185  14.587  15.131  0.0983 -0.0157 -0.2976
15950W        W29364  13.892  13.221   4.520  0.1108 -0.1106  0.1891
15951W        W29365   9.487   4.932   4.416  0.0781  0.0990  0.0084
15952W        W29366  17.245  10.299  16.475 -0.1739  0.0072  0.1066
15953W        W29367   4.954   4.720   0.501  0.2603 -0.0610  0.1179
15954W        W29368  14.894   1.220  14.913 -0.1135  0.2599 -0.2530
15955W        W29369   2.863   1.336  14.836  0.1400  0.0314  0.0383
15956W        W29370   6.098  13.089  14.240 -0.1648  0.0282 -0.0705
15957W        W29371   8.737  17.905   5.854  0.0768  0.1370 -0.0735
15958W        W29372  16.925  11.088  15.550  0.2957 -0.1388 -0.1776
15959W        W29373  17.946  15.547   4.992  0.1355 -0.0560  0.0134
15960W        W29374   5.041  10.471  12.254  0.2417  0.0854  0.0470
15961W        W29375  15.184   8.633   1.859  0.0942  0.2224 -0.0120
15962W        W29376   2.315  17.117  11.558  0.1412 -0.0381  0.0978
15963W        W29377   7.713  12.365  13.935 -0.0657  0.0083 -0.2179
15964W        W29378  13.698   7.561   3.489  0.1018  0.0325  0.0383
15965W        W29379  16.136  14.179   4.891 -0.1528 -0.0942  0.1961
15966W        W29380   8.251  17.136   6.139 -0.0294  0.0662  0.1353
15967W        W29381  14.382  17.924   4.047  0.1887  0.0406  0.1030
15968W        W29382  13.819  11.053  14.321 -0.0248 -0.0780  0.0137
15969W        W29383  15.904   3.754  15.947  0.3448 -0.4067  0.0231
15970W        W29384  15.276  10.747   6.155 -0.0234 -0.3256  0.1580
15971W        W29385  15.636   1.331  11.946  0.0700  0.0112 -0.0826
15972W        W29386   8.532   9.180  12.712 -0.1313 -0.2702  0.0010
15973W        W29387   1.294  14.868   1.394 -0.1062 -0.2480 -0.0218
15974W        W29388  15.022   4.459   5.410  0.2154  0.1356  0.1924
15975W        W29389  11.695  15.236  12.543 -0.1806 -0.1708  0.0439
15976W        W29390  14.628  15.965  14.600  0.2655  0.0945  0.1058
15977W        W29391  11.100   5.944   1.862  0.2495  0.1595 -0.0095
15978W        W29392  16.357  15.008  16.346  0.1255  0.1147 -0.1385
15979W        W29393   4.749   9.475  16.767 -0.1147  0.0090  0.3098
15980W        W29394  10.765   8.146  14.730 -0.1859  0.1521 -0.3085
15981W        W29395   8.546   2.085  14.574  0.1921 -0.5917  0.1813
15982W        W29396  10.060  17.058   1.094  0.0536  0.0946 -0.1129
15983W        W29397   2.465  14.253   4.130 -0.2479  0.0051 -0.1029
15984W        W29398   1.196  15.236  11.288 -0.2243 -0.1823 -0.1175
15985W        W29399  11.606   9.588   0.109 -0.0307  0.0803 -0.1574
15986W        W29400  15.229  15.737  11.903 -0.0733 -0.0588  0.0863
15987W        W29401  17.497   1.414   3.708  0.2901  0.1637  0.0799
15988W        W29402   3.437  13.066   2.589 -0.1257  0.2295  0.0654
15989W        W29403   9.103  13.627  16.618 -0.0926  0.2541 -0.0055
15990W        W29404   0.114  14.730   3.292 -0.1329  0.1044 -0.2384
15991W        W29405  10.879  14.723  16.525 -0.3400 -0.1277  0.0361
15992W        W29406  13.358   8.041   4.661 -0.1070 -0.2137  0.2429
15993W        W29407  17.521  14.485   5.423  0.1759  0.1239 -0.5277
15994W        W29408  15.958  10.908  13.116  0.0542 -0.3277 -0.2930
15995W        W29409  11.657  17.870   3.554  0.2906 -0.1545 -0.2231
15996W        W29410  17.649   0.997   1.744  0.1804 -0.2359 -0.1818
15997W        W29411  10.858   9.927  15.202  0.0455  0.1173 -0.3378
15998W        W29412   2.962   6.204  14.589 -0.3587  0.0658  0.2232
15999W        W29413  17.192   1.235  11.634 -0.2533  0.0212 -0.1067
16000W        W29414  15.049   3.595   0.009  0.1020 -0.6464 -0.1273
16001W        W29415  17.480   7.598  13.998 -0.0724 -0.0288  0.1978
16002W        W29416   7.403  11.867  15.971 -0.1068 -0.1545  0.1152
16003W        W29417   9.957  16.640  12.289 -0.1674  0.1625 -0.1167
16004W        W29418  14.847  10.753  12.837  0.1508  0.3517  0.1339
16005W        W29419   9.489  13.859  16.424 -0.2679 -0.1920 -0.3306
16006W        W29420   8.981  12.099  11.737  0.1251 -0.1559  0.1721
16007W        W29421  17.721   1.741   4.960 -0.0628 -0.2005 -0.0267
16008W        W29422  15.937  16.986   0.694  0.2619  0.1930  0.0259
16009W        W29423   3.847  10.077  12.694 -0.0723 -0.0603  0.1842
16010W        W29424   3.259  10.682   4.217 -0.1088  0.0063  0.0827
16011W        W29425   3.972   8.910  12.588 -0.1551  0.0823 -0.1212
16012W        W29426   2.957   3.856  12.628 -0.1788  0.1746 -0.2119
16013W        W29427   2.911   9.807   2.119  0.2494 -0.0326 -0.1428
16014W        W29428   2.632   1.416  13.120 -0.2006  0.0708  0.3020
16015W        W29429   4.793   2.112   5.453 -0.2196 -0.0292 -0.1036
16016W        W29430   4.177  12.762  14.613 -0.2366  0.3657  0.1904
16017W        W29431   7.941   6.191  15.863 -0.0972  0.2965 -0.0951
16018W        W29432  15.015   6.751   3.150 -0.1923  0.0298 -0.0068
16019W        W29433   4.438   6.382   5.132 -0.2368  0.0615 -0.0624
16020W        W29434   6.891  15.275   0.726 -0.0466  0.1707  0.1214
16021W        W29435  13.598  12.139  12.097 -0.2472  0.1755 -0.0301
16022W        W29436  17.817   1.905  13.655  0.2456  0.0552 -0.0286
16023W        W29437   5.335  17.740  10.399 -0.1933  0.2380 -0.0129
16024W        W29438  14.432   0.180  12.591 -0.0918  0.1357  0.0598
16025W        W29439   5.001  11.813   2.792 -0.0060 -0.2173  0.1924
16026W        W29440   8.571  10.929  11.743  0.1652 -0.0004  0.1121
16027W        W29441   6.981   4.227  10.843 -0.0528  0.3385  0.0112
16028W        W29442   8.941   8.967  11.490  0.1099 -0.3211  0.0260
16029W        W29443   5.468  16.579   0.369  0.1214 -0.0651  0.1474
16030W        W29444   3.775  14.209   4.186  0.1392 -0.0673 -0.1855
16031W        W29445   2.795  10.004  10.924 -0.1481 -0.0082  0.3775
16032W        W29446   4.143  15.508  12.225  0.2097 -0.0153  0.3753
16033W        W29447  16.630   0.880   5.939 -0.1615  0.1430  0.0599
16034W        W29448   8.410  10.721   3.591  0.1873  0.0099 -0.0189
16035W        W29449   6.592   6.843   0.975 -0.0011  0.2625 -0.0851
16036W        W29450  16.437  10.886  15.516  0.2277  0.0976  0.1896
16037W        W29451   0.887   7.176  14.951  0.0929 -0.3217 -0.0536
16038W        W29452  13.002  16.737   5.342 -0.1327 -0.0558  0.1836
16039W        W29453  14.420   3.669  15.971  0.0406  0.1608 -0.1137
16040W        W29454   0.599  17.354   2.858 -0.2140  0.4366  0.3211
16041W        W29455   4.245  12.747  10.825 -0.1609  0.0647  0.3540
16042W        W29456   6.642  14.725  11.360  0.1329 -0.0706  0.0202
16043W        W29457  13.121   0.034   0.544  0.0159  0.1758  0.0582
16044W        W29458   0.964   1.181  10.288  0.1615 -0.1496 -0.2564
16045W        W29459   2.542  17.254  16.530 -0.2613  0.0897  0.0414
16046W        W29460   4.475  11.665  13.558 -0.0064  0.0942  0.2020
16047W        W29461  10.776   6.298  13.657  0.0198  0.0683 -0.0187
16048W        W29462  12.764   2.228   1.790  0.3541 -0.1321 -0.0509
16049W        W29463  13.347   7.324   6.438  0.1423  0.4019  0.2329
16050W        W29464  11.536  13.943  14.933 -0.0511 -0.1716  0.1308
16051W        W29465  17.434  11.100   4.918  0.2226 -0.1673 -0.1375
16052W        W29466  12.605   0.084   1.379  0.0604  0.0427  0.3771
16053W        W29467  10.107   0.116  13.777  0.1514 -0.2900  0.0917
16054W        W29468  13.774   4.699   0.153 -0.0003  0.1351 -0.3036
16055W        W29469   7.517   7.815  11.995  0.3913 -0.2425  0.0168
16056W        W29470  17.597  16.648  15.434  0.0547 -0.4589 -0.0906
16057W        W29471  10.273   4.053  12.266 -0.1849  0.1705 -0.3341
16058W        W29472  13.676  11.048  14.873 -0.2710 -0.1791 -0.0015
16059W        W29473   6.212  15.117  11.491  0.0080  0.0197  0.0722
16060W        W29474  13.235   2.914  13.053 -0.0421 -0.1457  0.1491
16061W        W29475  10.167  12.859  14.048  0.1757 -0.0671  0.1036
16062W        W29476   7.487  10.344  15.233  0.0707 -0.4510  0.2953
16063W        W29477   1.109   4.072  14.741 -0.0468 -0.2628 -0.2081
16064W        W29478   3.430   6.037  10.706  0.0445  0.0032 -0.1613
16065W        W29479  16.967   0.623  14.609 -0.0486 -0.1349 -0.1353
16066W        W29480   5.448  13.058  11.195 -0.3100 -0.4303 -0.0862
16067W        W29481  16.342  14.376  11.416  0.1419 -0.2352 -0.1038
16068W        W29482   4.401   0.742  16.771 -0.0363  0.0741  0.2639
16069W        W29483  10.880   4.547  13.626  0.1465  0.1228 -0.0745
16070W        W29484  11.210  10.907  16.673  0.1146  0.0896  0.2521
16071W        W29485  12.360   0.113   5.956 -0.2094  0.0364  0.1188
16072W        W29486   2.073   3.412  16.101  0.1601 -0.0673 -0.0607
16073W        W29487   6.980  15.506   3.585  0.1067  0.2052  0.1303
16074W        W29488   7.902  16.157  16.194 -0.0371 -0.1551 -0.0056
16075W        W29489   2.690  10.599   0.141 -0.0316 -0.0878 -0.0790
16076W        W29490   0.356   2.745   0.313 -0.0189 -0.3205 -0.1358
16077W        W29491   5.931  17.447   4.696  0.1176  0.0397 -0.2587
16078W        W29492  17.713   2.248   3.470 -0.0279 -0.2032  0.0150
16079W        W29493   4.093   9.773   5.437  0.1092  0.2823 -0.0594
16080W        W29494   6.905   9.197   5.778  0.2149  0.1324 -0.1958
16081W        W29495   4.733   1.954  13.140 -0.1804 -0.1169  0.3435
16082W        W29496  11.671  17.536  11.210 -0.0865 -0.0585  0.0685
16083W        W29497   3.985   0.759  10.870  0.0725  0.1575  0.1167
16084W        W29498   1.018  15.044  15.481  0.2610  0.0513 -0.0159
16085W        W29499  16.740  10.038   4.206  0.2844  0.0442  0.0636
16086W        W29500   2.262   7.558   5.363  0.2080 -0.1067  0.1770
16087W        W29501  13.215  16.210   2.849  0.1698 -0.4494 -0.0203
16088W        W29502  12.373   6.352   5.717 -0.0956  0.1601  0.0482
16089W        W29503   0.407   9.663  13.460  0.0923 -0.2977 -0.0165
16090W        W29504  15.669  11.295  15.504  0.0857  0.0425 -0.1133
16091W        W29505  15.353  10.473   2.055 -0.1708 -0.2328  0.0136
16092W        W29506   5.373  15.838  12.221  0.0002  0.1006  0.3173
16093W        W29507  16.069   4.493   3.791 -0.3412 -0.2784  0.1217
16094W        W29508   9.586   0.679   5.497 -0.0573  0.0432  0.0433
16095W        W29509  10.720   3.235  13.372 -0.0593 -0.0733  0.3658
16096W        W29510   7.745  11.891  15.570  0.1696  0.0049 -0.0044
16097W        W29511   3.288  12.369   2.033  0.0994 -0.1236 -0.0892
16098W        W29512   6.898  16.308  11.209  0.2372 -0.1498 -0.1559
16099W        W29513  17.535  10.110   2.395 -0.0796  0.0742 -0.2698
16100W        W29514  16.189  13.892   0.754  0.1009  0.0144 -0.1098
16101W        W29515   0.515  12.062   2.449 -0.2394 -0.0843  0.0280
16102W        W29516   9.222  15.084   0.468 -0.2617 -0.2143  0.0776
16103W        W29517   2.313   6.992  15.991  0.2505  0.1847  0.3037
16104W        W29518   0.008   5.899   5.964 -0.2785 -0.0301  0.1047
16105W        W29519   1.869   4.395  12.646  0.0898 -0.0836 -0.2165
16106W        W29520  15.359  11.919  15.939 -0.1225 -0.1541  0.2345
16107W        W29521   8.113   9.298  16.290 -0.0131  0.2490 -0.3069
16108W        W29522  15.571   0.792   0.718 -0.2215  0.1515 -0.0014
16109W        W29523   3.225  13.365  15.006  0.0674  0.2362  0.1795
16110W        W29524   1.703  13.844  14.284 -0.0610 -0.0331  0.0700
16111W        W29525  17.023   2.551  14.796  0.1470 -0.0027 -0.0417
16112W        W29526   3.453  16.314   0.025 -0.0123  0.1148  0.1273
16113W        W29527   4.220  16.218   1.263  0.4489 -0.1890 -0.1804
16114W        W29528  10.014  17.090   0.605 -0.0486  0.2569 -0.0431
16115W        W29529   7.866   2.245   5.800  0.2951 -0.0538 -0.0423
16116W        W29530   3.203  12.653  13.962  0.0999 -0.1018 -0.3025
16117W        W29531  17.886   1.510   2.599  0.1139 -0.0101 -0.1796
16118W        W29532   1.931  13.176   4.541 -0.4596 -0.0214 -0.1147
16119W        W29533   1.473   5.317  13.782 -0.2623 -0.1929 -0.4190
16120W        W29534   3.586  11.370  10.800  0.0064 -0.0474 -0.2624
16121W        W29535  10.349   8.486  12.191  0.3642 -0.2797 -0.2894
16122W        W29536  14.324   5.283   1.402  0.1006 -0.1134 -0.0562
16123W        W29537  14.561   1.763  15.142  0.1325  0.2168  0.0933
16124W        W29538   6.165  13.284  16.136 -0.0824  0.0098 -0.0319
16125W        W29539   8.040  15.286  15.290 -0.5946  0.2109  0.3568
16126W        W29540   4.192  12.437   2.841 -0.1191 -0.0171 -0.2695
16127W        W29541   8.269  11.350   5.818 -0.2187 -0.0307  0.2675
16128W        W29542  16.132  11.758   2.206 -0.2550  0.1053 -0.0362
16129W        W29543   3.137  17.403  11.514 -0.0972 -0.0056 -0.2225
16130W        W29544  13.414   7.939   0.044  0.0083  0.0163  0.0716
16131W        W29545   5.754   2.335   4.443  0.1472  0.0846 -0.0293
16132W        W29546  10.528  14.818  13.234  0.0507 -0.3776  0.1393
16133W        W29547  15.005  15.281  11.655 -0.1440  0.2013 -0.3549
16134W        W29548   5.941  16.361  15.212 -0.1801  0.2102  0.0366
16135W        W29549  12.072   2.770  14.948 -0.0867 -0.1327 -0.0912
16136W        W29550   1.718  16.588  10.721  0.1533 -0.1686  0.0684
16137W        W29551  15.303  16.778   0.259 -0.1204 -0.0321  0.0406
16138W        W29552  11.494   8.400  15.932 -0.1325  0.0865 -0.0346
16139W        W29553   4.255  14.180  14.331 -0.2711  0.3070  0.0342
16140W        W29554   1.653  14.200  13.395 -0.1471  0.0847 -0.2434
16141W        W29555  14.025  16.934   1.715 -0.0642 -0.0379 -0.2263
16142W        W29556  17.033   0.005   2.818 -0.1024  0.0984 -0.0138
16143W        W29557  11.069   9.711   5.499  0.1518  0.2015 -0.1876
16144W        W29558  16.016  16.463  10.577 -0.0140 -0.2737  0.2521
16145W        W29559   1.033  11.407   4.631  0.1554 -0.0982 -0.0277
16146W        W29560  15.144  15.774  15.555  0.1892 -0.0287  0.2122
16147W        W29561   2.128  13.355   0.564  0.0785 -0.0314  0.1605
16148W        W29562  11.105   8.399  11.308 -0.2275  0.2163 -0.0096
16149W        W29563  10.658   1.651   2.433 -0.0105 -0.2323  0.2642
16150W        W29564   5.562  10.686   2.357  0.0184 -0.3694 -0.0181
16151W        W29565  17.005   7.473  16.773  0.2693 -0.2245 -0.1279
16152W        W29566  17.567  14.021  13.666  0.0602  0.0522 -0.3230
16153W        W29567  17.189   2.729   4.198  0.2751  0.1579  0.1072
16154W        W29568  10.375  14.809  12.120 -0.1332 -0.0140 -0.0636
16155W        W29569  11.664  15.316  12.023  0.2241  0.1765  0.2075
16156W        W29570  10.647   5.282  15.325  0.2794 -0.1649  0.2827
16157W        W29571   3.462  15.555   4.770  0.2792 -0.0777  0.2149
16158W        W29572  10.363   5.601   5.070 -0.1322 -0.0947 -0.0797
16159W        W29573  17.167   6.790   2.389 -0.0854  0.0800  0.0106
16160W        W29574   2.443  11.612   0.181  0.2311  0.0574  0.1105
16161W        W29575  13.395   1.645  14.354  0.1296 -0.2869 -0.1624
16162W        W29576  14.419  10.854   2.071  0.2052 -0.1132 -0.2004
16163W        W29577   0.883  13.738  12.409 -0.0787  0.0898  0.0741
16164W        W29578   1.008   6.585  13.416  0.1594 -0.3041 -0.1460
16165W        W29579  12.383   6.228   2.033 -0.1400  0.4031  0.1913
16166W        W29580  12.825  16.414  15.121 -0.0100 -0.1863 -0.1141
16167W        W29581  15.630   1.041  11.519  0.5259  0.1096 -0.2643
16168W        W29582   9.601   8.225  11.593 -0.0366  0.2156 -0.0604
16169W        W29583  17.447  12.041   4.771  0.0853  0.5146 -0.0420
16170W        W29584   2.265   0.142  14.500 -0.0725  0.2833 -0.2148
16171W        W29585  14.606  11.722   3.518 -0.0845 -0.0305 -0.0534
16172W        W29586   4.907  11.356   0.793  0.1025 -0.0726  0.0100
16173W        W29587   8.276   4.847  16.072  0.0956 -0.1302 -0.0138
16174W        W29588   2.321   0.142   0.547  0.2322 -0.0078  0.1530
16175W        W29589   9.570   2.763   4.837  0.1794  0.0862  0.0050
16176W        W29590   6.324  17.550  10.539 -0.2213 -0.2121  0.0135
16177W        W29591  12.083   4.430  12.488 -0.1834  0.0128 -0.3197
16178W        W29592  10.350  17.644   3.958 -0.1517 -0.0477 -0.0565
16179W        W29593   9.423   7.095  13.939  0.0470 -0.1378  0.0691
16180W        W29594   6.982  11.961   3.281 -0.0304  0.0673 -0.4589
16181W        W29595  14.382   2.982  10.901 -0.1958  0.0036  0.0811
16182W        W29596   6.125  11.801   4.238 -0.2489 -0.2132  0.0380
16183W        W29597   7.491   1.459   5.337 -0.0607 -0.2101 -0.1329
16184W        W29598   9.754   9.789   2.788  0.0107  0.1172  0.0322
16185W        W29599   6.441  16.713   2.708  0.0615  0.4710 -0.0122
16186W        W29600  17.760  12.914   3.088  0.2586  0.0238 -0.1775
16187W        W29601   6.493   2.064   5.417  0.3379 -0.0454  0.0121
16188W        W29602  17.123   3.211  10.971  0.1316 -0.3356  0.1904
16189W        W29603  11.655   2.608  10.452  0.2523 -0.0859  0.2022
16190W        W29604   3.796   0.768  10.325 -0.0642  0.1370  0.0315
16191W        W29605  12.725   6.523  16.354  0.0509 -0.3735 -0.1221
16192W        W29606   9.150  17.983   1.853  0.1965 -0.0165 -0.1332
16193W        W29607  15.765   9.905  11.710  0.2312  0.0542 -0.1224
16194W        W29608   3.970  14.389   1.622 -0.2717  0.0148  0.0877
16195W        W29609   2.024  16.342  14.662  0.1277  0.1808 -0.0451
16196W        W29610  15.732  15.784  11.742  0.1153 -0.2781  0.2429
16197W        W29611   8.304   9.814  14.846 -0.1183 -0.1234  0.2604
16198W        W29612  12.211  11.113   0.213  0.0951 -0.0401  0.1552
16199W        W29613  17.255  16.420   0.993  0.2094 -0.2105  0.4480
16200W        W29614  12.268  12.047   2.839  0.0300  0.2425  0.1656
16201W        W29615  11.859   2.562  12.001  0.0021  0.2799 -0.0162
16202W        W29616   8.892  13.030  11.481 -0.3843  0.1788  0.1318
16203W        W29617   1.182  16.616  15.453 -0.0693 -0.1970 -0.0449
16204W        W29618   4.532   0.212   5.438 -0.1173  0.3720  0.1270
16205W        W29619   0.331  17.511  14.744  0.0206  0.0423  0.2847
16206W        W29620   4.945   7.553  12.769 -0.0843  0.1842  0.3071
16207W        W29621  12.429  15.765  12.633 -0.1228 -0.4702 -0.0530
16208W        W29622  15.011   4.489   2.498  0.0082 -0.0305  0.0500
16209W        W29623  16.185   8.726  12.612 -0.1686 -0.1890 -0.0246
16210W        W29624  15.667   3.127  10.932  0.1165 -0.1787 -0.0426
16211W        W29625  15.839  11.244  10.885 -0.2326 -0.2555 -0.2256
16212W        W29626  14.411   0.077  10.474  0.1605 -0.2211  0.0361
16213W        W29627  14.188  14.673  11.208  0.1494  0.3011  0.2475
16214W        W29628   9.284  13.170   0.721 -0.0880  0.0762  0.1251
16215W        W29629  17.509   2.175  12.821 -0.1071  0.1205  0.1413
16216W        W29630  11.671  13.928  16.321 -0.0301  0.3383  0.0615
16217W        W29631  16.237   4.383   5.493  0.0484  0.2389  0.2531
16218W        W29632  15.828  16.040  14.059 -0.0328  0.1466 -0.2396
16219W        W29633  13.453   1.676   0.416  0.3680  0.2724  0.0320
16220W        W29634  14.737   2.102  16.006  0.0383 -0.0027 -0.0009
16221W        W29635   0.458  12.366  14.214 -0.0865 -0.3368 -0.2065
16222W        W29636  16.073   8.728   4.461  0.2290 -0.0653 -0.1159
16223W        W29637   5.190  14.095   0.712 -0.1345 -0.1306  0.2119
16224W        W29638   3.559   6.603  15.763 -0.1191  0.2891  0.0604
16225W        W29639  12.571  10.037   3.864  0.3243 -0.1107 -0.1742
16226W        W29640  12.550   1.363   2.948  0.0542  0.0557  0.0366
16227W        W29641   5.828   3.834  15.351 -0.0809  0.3119  0.1244
16228W        W29642  15.666  12.926  13.300  0.0347 -0.2052  0.0733
16229W        W29643  12.099  13.823   3.939 -0.2527 -0.0873  0.0491
16230W        W29644   5.369  10.535  14.032  0.1402 -0.0014 -0.0901
16231W        W29645  10.053   0.688   5.140  0.1177 -0.1137  0.1762
16232W        W29646   8.912   3.016  14.379  0.2938  0.2121 -0.0854
16233W        W29647  16.260   9.012   0.022 -0.3480  0.1827 -0.2042
16234W        W29648   7.323   1.726   2.380 -0.0611 -0.0870  0.0476
16235W        W29649  14.922   2.521  13.149 -0.1180 -0.0145  0.2055
16236W        W29650   8.415   3.748   4.040 -0.0551  0.1752  0.0683
16237W        W29651  17.397   5.420   1.989  0.0225  0.1017 -0.3287
16238W        W29652   5.006   7.693   0.989  0.1358 -0.4058  0.0264
16239W        W29653   9.533   1.219   0.923  0.1429 -0.1098  0.0961
16240W        W29654  12.221   7.322   6.672  0.0534 -0.0025  0.0031
16241W        W29655   5.015  15.041  12.706 -0.0315  0.1037  0.3260
16242W        W29656   7.550  14.982  11.239  0.0364  0.2688  0.0151
16243W        W29657   6.536   6.806  12.127  0.2914 -0.1313 -0.0870
16244W        W29658  15.671  10.407   6.277 -0.0686  0.0351 -0.4325
16245W        W29659   2.534   8.909  14.658  0.1274 -0.4190 -0.0239
16246W        W29660  11.244  17.720  15.419 -0.0608  0.0975  0.2888
16247W        W29661  10.529  17.420  12.034 -0.3766  0.0800  0.2258
16248W        W29662  16.855   6.161   5.315  0.2535 -0.1326  0.0329
16249W        W29663   3.173  15.197  10.673  0.0624  0.0595 -0.0585
16250W        W29664   5.060   9.277  11.327  0.0607 -0.0091 -0.4091
16251W        W29665   8.521  11.304   0.507 -0.0049  0.1220 -0.1747
16252W        W29666   4.967  16.204  13.066 -0.1289  0.1699 -0.0040
16253W        W29667   6.926   8.974  16.641  0.1098 -0.2250  0.0728
16254W        W29668  16.632  15.189   0.461  0.0246  0.0158  0.3105
16255W        W29669   5.346   6.933  14.469  0.0197  0.0199  0.0961
16256W        W29670  15.828  14.933   2.668 -0.0772 -0.1797 -0.2230
16257W        W29671   1.119   6.946   0.405  0.0566 -0.2171 -0.1757
16258W        W29672  11.750   9.308   2.512 -0.0698  0.0470 -0.0515
16259W        W29673  16.134  11.784   5.277  0.2527  0.2996 -0.0998
16260W        W29674   0.239   9.258  10.890  0.2687  0.1370 -0.0685
16261W        W29675   4.533  12.640   3.343  0.0104 -0.1971  0.0502
16262W        W29676   7.491   9.197   3.227 -0.1866 -0.3369  0.1903
16263W        W29677   5.228  10.164  11.471  0.2275  0.1173  0.1098
16264W        W29678   3.298  12.314   3.759  0.1696  0.0059  0.1436
16265W        W29679  17.397   9.069   2.339  0.1003 -0.1071  0.2637
16266W        W29680   3.600  11.188   6.252 -0.1454  0.0733 -0.1126
16267W        W29681  15.035   1.713   1.305 -0.2272  0.1513 -0.3069
16268W        W29682   6.864  13.707   1.372  0.2231  0.2325 -0.1205
16269W        W29683  14.814   5.546  11.997  0.0549  0.1578 -0.0906
16270W        W29684   2.391   6.146  15.110  0.0186  0.1019 -0.1781
16271W        W29685  12.114   6.889   2.219 -0.0051  0.0356  0.0519
16272W        W29686  13.066   1.714  11.707 -0.0661 -0.4235 -0.0462
16273W        W29687   9.738   4.286  14.407 -0.0013 -0.2993 -0.1546
16274W        W29688   1.171  15.322  15.895 -0.1855  0.0912  0.0191
16275W        W29689  12.183  14.155   6.505 -0.1890 -0.1371  0.0119
16276W        W29690   6.602  14.433  11.861  0.0242 -0.2747  0.0254
16277W        W29691  13.405  10.578   4.374 -0.0001 -0.1018 -0.1149
16278W        W29692  16.234   8.288   1.229 -0.0226  0.0887  0.0545
16279W        W29693   9.519  14.835  11.875 -0.2583 -0.2489 -0.1076
16280W        W29694  16.366  13.723   2.203 -0.0843 -0.1623  0.0610
16281W        W29695   7.696  17.742  14.768 -0.1988  0.0062 -0.2660
16282W        W29696   4.769  13.761   2.752 -0.1875  0.1157 -0.0157
16283W        W29697   8.173  14.618   0.566  0.0417  0.1121  0.1734
16284W        W29698   4.977  15.861  16.183 -0.2144  0.1893 -0.3494
16285W        W29699  15.302   3.795  11.557 -0.1448 -0.1393 -0.1065
16286W        W29700   4.556  16.177   4.258 -0.3573  0.2745 -0.1552
16287W        W29701   3.488   7.014  11.883  0.2325  0.3926 -0.0283
16288W        W29702   7.150   1.971  13.503 -0.2405  0.2337 -0.0124
16289W        W29703  12.435   7.700   4.251 -0.1166  0.2842  0.0169
16290W        W29704  17.097   3.783  11.086 -0.0843 -0.4005  0.0312
16291W        W29705   6.313   8.318  12.755  0.3478 -0.2843  0.0278
16292W        W29706  13.890  14.246   2.041 -0.0469 -0.0048 -0.0654
16293W        W29707   2.361   5.579  13.334 -0.2090 -0.2159 -0.1885
16294W        W29708   1.626  14.665  13.318 -0.1585  0.3822  0.0596
16295W        W29709  11.344  17.714  14.049  0.1194  0.1418  0.0491
16296W        W29710  14.342  11.228  15.651 -0.0155 -0.0678  0.0595
16297W        W29711  10.750   4.481   5.062 -0.0100 -0.0669  0.0105
16298W        W29712  16.851  13.118   1.487 -0.2455 -0.2803  0.2120
16299W        W29713   3.960  15.227   3.092 -0.0278  0.4338  0.0042
16300W        W29714   1.269  14.625  16.736 -0.3192 -0.1210  0.1994
16301W        W29715   0.504   7.201  13.261 -0.1847  0.1527  0.1060
16302W        W29716  11.660  14.173   6.499 -0.0116 -0.0130  0.1654
16303W        W29717   0.271   8.151   3.459  0.0285  0.1684 -0.2214
16304W        W29718  12.376  16.059   4.418  0.2508 -0.1600  0.0873
16305W        W29719   1.890   1.661  14.777  0.0167 -0.1154 -0.0666
16306W        W29720   9.120   5.176  10.005  0.0952  0.2012 -0.1341
16307W        W29721   4.838  16.891   5.072  0.1296 -0.0568 -0.2221
16308W        W29722   7.872  12.324   4.727  0.0219 -0.1365 -0.0918
16309W        W29723  12.282   7.490  13.492  0.1115 -0.0339 -0.1689
16310W        W29724   9.790   5.684   3.588  0.2966  0.0391 -0.2089
16311W        W29725  13.613   7.950  15.594  0.0756 -0.0183  0.3961
16312W        W29726  12.977   8.442   4.621 -0.0964  0.1317 -0.0531
16313W        W29727   7.428  12.011   6.229 -0.0172 -0.2062  0.1107
16314W        W29728   2.507   3.446   2.383  0.0554  0.0513  0.2922
16315W        W29729   5.736  15.088  14.412  0.0830  0.1486 -0.2509
16316W        W29730  12.635   9.279   5.936 -0.0948 -0.0418  0.0245
16317W        W29731  12.372   0.323   3.989 -0.1973 -0.0832  0.2747
16318W        W29732  14.937   1.332   0.395 -0.0495 -0.2826 -0.0014
16319W        W29733  16.492   9.138  16.299 -0.1608  0.1336  0.4165
16320W        W29734  18.000  15.434  14.113 -0.3583  0.0754 -0.3742
16321W        W29735   9.304   7.889  15.779  0.1472  0.0486  0.0742
16322W        W29736   3.051   4.678   1.204  0.0684 -0.0458  0.0143
16323W        W29737   1.394   8.494   0.943  0.0216 -0.1748 -0.2000
16324W        W29738   3.070   0.257  15.611  0.0040  0.2102  0.0455
16325W        W29739  12.103  16.676   6.278 -0.3423 -0.1237  0.0443
16326W        W29740   6.679   5.210   3.482 -0.1771  0.0135 -0.1603
16327W        W29741   5.466   3.973   4.166  0.0721 -0.0820 -0.1084
16328W        W29742  12.459   9.022  16.526 -0.2803 -0.2468 -0.1017
16329W        W29743  15.856  12.026  15.924 -0.1730  0.3309 -0.1061
16330W        W29744   6.181  15.586   1.944  0.1404 -0.2645 -0.2313
16331W        W29745   1.132   0.700  13.853 -0.1181  0.2328 -0.1213
16332W        W29746  15.540  14.289  14.805  0.0120  0.2702  0.1791
16333W        W29747  11.355   4.933   0.426  0.3599  0.0883 -0.1224
16334W        W29748  13.574   6.184   0.614  0.1097  0.1561  0.1601
16335W        W29749   6.166  13.326   2.218  0.1966 -0.0799  0.2958
16336W        W29750  11.696   5.482  10.376  0.1845  0.3481 -0.0222
16337W        W29751  12.182   3.982  11.327 -0.2334  0.0621  0.0124
16338W        W29752  14.402  15.913   6.099  0.4172  0.1345  0.0375
16339W        W29753   6.284  10.024   3.245  0.0311 -0.3349  0.0811
16340W        W29754  13.852  17.828   2.025  0.1483  0.0140 -0.2500
16341W        W29755   2.959  15.582  11.332  0.1956  0.0713 -0.0670
16342W        W29756   2.707  17.508  10.795 -0.3490  0.0555 -0.0664
16343W        W29757   7.249  12.663   0.411 -0.1296 -0.1487 -0.0156
16344W        W29758  14.699  15.032   1.286 -0.0766  0.1917  0.2173
16345W        W29759   8.214  10.663   4.681  0.0800 -0.0597  0.0194
16346W        W29760  10.539   5.664   4.019  0.0674  0.1112  0.0082
16347W        W29761   3.437  14.157  12.435  0.0265 -0.2226 -0.1474
16348W        W29762  16.112   8.978   5.308 -0.0182  0.0752  0.0572
16349W        W29763  14.282  13.628   0.570  0.1403 -0.2000 -0.0329
16350W        W29764  10.270  12.268   2.350  0.3256 -0.0444  0.1053
16351W        W29765   2.270   4.364  12.392 -0.1458  0.0676  0.0404
16352W        W29766   7.588  10.954   3.802  0.1187 -0.0343  0.0832
16353W        W29767   1.523   8.274   3.485 -0.2965  0.0953  0.0257
16354W        W29768  10.282   6.594  14.936  0.2219 -0.3526  0.0048
16355W        W29769  15.019   3.603  11.940  0.2099  0.0302  0.2058
16356W        W29770   1.026   6.644  13.966  0.0680 -0.2002 -0.1645
16357W        W29771  13.572   6.932  11.133  0.2544  0.1514 -0.2924
16358W        W29772   6.465  12.476  16.728 -0.5446 -0.1214  0.0139
16359W        W29773  17.133   6.849  13.534  0.3043  0.2593 -0.2274
16360W        W29774   7.647   9.091  15.652  0.0397 -0.2115  0.1187
16361W        W29775  13.841  15.756   6.356  0.0866  0.2206 -0.0884
16362W        W29776   1.823  16.536  11.510 -0.0993  0.0157 -0.2549
16363W        W29777  12.283  10.202  12.246 -0.0745  0.3156 -0.1349
16364W        W29778   7.596  14.897  14.336  0.1593 -0.1174  0.2914
16365W        W29779  12.272   9.517   5.142  0.2040  0.1481 -0.0650
16366W        W29780   1.323  17.753   4.198 -0.1791 -0.2263  0.2526
16367W        W29781  10.614   9.493  10.474 -0.1785 -0.1309 -0.1029
16368W        W29782   8.448  12.444  12.764  0.0892  0.1519  0.2323
16369W        W29783   2.656   6.458  16.599  0.1135  0.1889  0.0573
16370W        W29784  10.452   3.209  10.641 -0.1554  0.0511  0.3903
16371W        W29785  13.671   7.515  12.795  0.2390 -0.3737  0.1172
16372W        W29786   4.649   5.903   3.126 -0.1132 -0.1972  0.1788
16373W        W29787  11.046   4.878   3.656  0.0102 -0.0903 -0.1198
16374W        W29788   1.792   1.706   1.216  0.0651 -0.2302 -0.1506
16375W        W29789   9.819   9.047   1.668  0.3855  0.0478 -0.0695
16376W        W29790  17.803  16.958  14.219 -0.0162 -0.1339  0.0087
16377W        W29791  16.706   0.397   5.848 -0.2920  0.0387  0.0136
16378W        W29792   0.486  15.034   0.287 -0.1943 -0.0614  0.1789
16379W        W29793   5.948   6.156  14.683 -0.2297 -0.0859  0.1188
16380W        W29794  15.616   5.898   2.183 -0.2136  0.0521 -0.0826
16381W        W29795   9.438   7.414  15.645  0.2691 -0.2282  0.2754
16382W        W29796  10.574   2.127  13.208 -0.0359 -0.0287 -0.0359
16383W        W29797  12.503   7.673   5.786 -0.5166 -0.0231 -0.1454
16384W        W29798  15.382  12.417  14.707  0.2325  0.0833  0.2903
16385W        W29799  10.671   0.366   0.810 -0.1384  0.0425 -0.1037
16386W        W29800  17.276   1.363  10.352 -0.1462  0.1482  0.0976
16387W        W29801  11.879  17.643   0.667  0.0405  0.1913 -0.0931
16388W        W29802   0.390   9.388  14.545 -0.0272 -0.1006  0.0909
16389W        W29803  11.084  10.575   6.457 -0.0651 -0.1669 -0.1076
16390W        W29804  17.827   4.768  11.868  0.2465  0.0208  0.0223
16391W        W29805   4.352  16.392  11.087 -0.0322  0.0222 -0.0331
16392W        W29806  18.007  16.263  12.440 -0.3945 -0.0704 -0.1024
16393W        W29807  11.388   7.153  16.676 -0.0919 -0.0502 -0.0061
16394W        W29808   8.374   4.346  14.648 -0.4474  0.1593 -0.3186
16395W        W29809   1.854   5.598   2.557  0.0791  0.1457  0.1256
16396W        W29810  16.148  14.357  12.363 -0.0813 -0.2919 -0.0560
16397W        W29811   1.350   2.856   5.177 -0.1951 -0.0086 -0.1770
16398W        W29812  12.395   2.045   2.172 -0.1433 -0.3859  0.1044
16399W        W29813  17.576  12.316  12.195  0.2475  0.0359 -0.2922
16400W        W29814  10.708  11.404   0.953  0.0770  0.2271 -0.1379
16401W        W29815  17.501   8.392  11.526 -0.0648  0.1234  0.1854
16402W        W29816   7.644   3.965   0.371 -0.1063  0.1637  0.1666
16403W        W29817   0.391   6.421   2.071 -0.4375  0.0692 -0.3912
16404W        W29818   1.315   2.656  13.968  0.0379  0.0486  0.2924
16405W        W29819   5.277   2.930  13.821 -0.0409  0.1728 -0.1168
16406W        W29820  10.548   5.916   4.688  0.0336 -0.0361 -0.0800
16407W        W29821  16.214   8.242  12.835  0.0595 -0.0539  0.1410
16408W        W29822   9.233  14.562  12.157  0.0920 -0.3495  0.1805
16409W        W29823   3.163  10.770  14.534  0.1001 -0.3101  0.0520
16410W        W29824   1.832  17.242   4.778 -0.0450 -0.0426  0.0232
16411W        W29825   2.062   2.856   5.548 -0.2651 -0.0055 -0.0393
16412W        W29826  12.969   3.437  14.951 -0.2446 -0.1206  0.0317
16413W        W29827   5.244  13.235   1.265 -0.1059 -0.0614 -0.4332
16414W        W29828  15.893   0.899  10.034  0.0746 -0.2175 -0.3154
16415W        W29829  10.870   7.219   0.484 -0.2386  0.0894 -0.0053
16416W        W29830  14.708   5.197   6.532 -0.2527  0.2810  0.2148
16417W        W29831  15.125  10.264   3.394 -0.0644 -0.1957 -0.1255
16418W        W29832  13.719  16.124   1.103  0.2177  0.0971 -0.2621
16419W        W29833  13.625  15.832  10.930  0.1949 -0.2974 -0.2550
16420W        W29834   5.908   6.190   2.846  0.1269  0.3167 -0.0273
16421W        W29835   7.071  15.006  11.475 -0.1643 -0.4218 -0.2388
16422W        W29836   2.703  11.081  14.648 -0.2060 -0.0630 -0.3924
16423W        W29837  12.001  11.294  14.237  0.2246  0.1372  0.1953
16424W        W29838   1.784   1.552  13.228  0.0671 -0.2863  0.2146
16425W        W29839   8.872  14.828   0.755 -0.2182  0.1331  0.0562
16426W        W29840   8.506   7.584  15.419  0.0533 -0.0366  0.1666
16427W        W29841   3.430   8.807  13.872 -0.3913  0.1655 -0.2121
16428W        W29842  10.054   9.914  12.123 -0.3400  0.0524 -0.2871
16429W        W29843   3.966   0.212   4.534 -0.3029 -0.1878  0.2194
16430W        W29844  14.682   7.740  13.444 -0.0282 -0.1842  0.1749
16431W        W29845   4.024   5.287   5.151  0.1124 -0.0698 -0.2933
16432W        W29846   4.839   1.939   2.869  0.1912  0.0118  0.3054
16433W        W29847  17.974   0.831  16.534 -0.3518 -0.1876  0.0100
16434W        W29848   4.232  16.369   1.760 -0.2855  0.4081  0.0379
16435W        W29849  16.547   2.398  11.380 -0.0848  0.0304 -0.3695
16436W        W29850   0.258   2.814  12.818  0.0841  0.1010  0.0525
16437W        W29851  13.491  15.298  14.227 -0.1086 -0.0911  0.0320
16438W        W29852  12.984   9.944   5.452 -0.0766 -0.0928 -0.1350
16439W        W29853   7.445   0.132  10.970 -0.1206  0.1001 -0.4075
16440W        W29854   5.402  17.277   2.438 -0.1438  0.0015  0.0077
16441W        W29855  16.598  16.757   1.839  0.2342 -0.1154  0.0711
16442W        W29856   3.618   9.303  12.127 -0.0800 -0.0551  0.0255
16443W        W29857  11.808  13.051  13.537 -0.1716 -0.2261 -0.0616
16444W        W29858   9.777  10.045  16.655 -0.1079 -0.1231  0.0245
16445W        W29859  10.260  17.316   6.257  0.2205 -0.2203  0.0871
16446W        W29860   6.465   4.641  13.423  0.1896 -0.1448 -0.0324
16447W        W29861   0.476  10.326   5.730  0.1347  0.2511 -0.1936
16448W        W29862   6.663  15.503  16.179 -0.1371 -0.2296 -0.1188
16449W        W29863  10.303  10.861  16.164  0.3784 -0.2022 -0.1101
16450W        W29864  10.254   4.282  14.253 -0.2997  0.0826  0.1533
16451W        W29865   9.967   7.832  14.450  0.2436  0.3744 -0.1865
16452W        W29866   8.664   5.190   3.296  0.0360 -0.3440  0.0006
16453W        W29867   8.109  11.488  13.394 -0.0570  0.4007 -0.3133
16454W        W29868   7.311   2.340   1.319  0.4390  0.2688  0.2323
16455W        W29869   2.363  14.434  14.030  0.0320  0.1638 -0.0684
16456W        W29870   4.552  15.002   1.200  0.2087 -0.0669  0.0824
16457W        W29871   8.912   7.730   5.571 -0.1161  0.1837 -0.0193
16458W        W29872  12.971   6.142  14.858 -0.2118  0.2265  0.0691
16459W        W29873   1.220   0.056  12.642 -0.0438 -0.1093  0.1552
16460W        W29874   9.110   1.338  16.619  0.0767  0.0556 -0.0204
16461W        W29875   2.517   3.917  11.207  0.2507 -0.0328 -0.0935
16462W        W29876  12.553   5.330  13.259 -0.2107  0.0268 -0.0482
16463W        W29877   1.066   0.713   5.323  0.4227  0.0975  0.1787
16464W        W29878   2.084  15.268  10.426 -0.0469 -0.3633 -0.2838
16465W        W29879   9.143  16.434   1.436  0.1229 -0.0093 -0.0337
16466W        W29880   5.207   6.118  11.712  0.0015  0.1886 -0.4296
16467W        W29881  16.588   1.415   0.934 -0.0835  0.0767 -0.4366
16468W        W29882  13.190   5.123  11.806  0.0698  0.1048 -0.2096
16469W        W29883   8.233   8.810  16.474  0.0981  0.0165 -0.0402
16470W        W29884  10.789  10.115   4.076 -0.1528  0.0115 -0.2415
16471W        W29885   1.526   6.172   0.077  0.0256 -0.1250  0.1015
16472W        W29886  13.757   5.020  16.146  0.0285  0.1394 -0.0723
16473W        W29887   4.878  17.307   0.382  0.0790 -0.1800 -0.0056
16474W        W29888  11.599  10.894  12.836 -0.0959  0.1678  0.2194
16475W        W29889  13.550  10.679   2.177 -0.0367  0.0444  0.3698
16476W        W29890   6.582   5.605   5.546  0.2934 -0.3117 -0.1756
16477W        W29891   4.886   2.117  10.805  0.3346  0.0375 -0.0803
16478W        W29892   0.296   7.374   5.679  0.0726  0.0517  0.0676
16479W        W29893  13.386  14.549  13.528 -0.0091 -0.0943 -0.1262
16480W        W29894   2.872  12.502  10.928  0.2097 -0.4134 -0.1454
16481W        W29895   9.666   3.598  10.895 -0.0918 -0.0052  0.1662
16482W        W29896   2.304  15.036   2.727  0.2308  0.2460 -0.1270
16483W        W29897  11.026  15.904  12.289 -0.1131 -0.2271  0.2966
16484W        W29898  16.954   8.451   3.003 -0.1359  0.1932 -0.0389
16485W        W29899  16.159   8.350  10.008  0.0215 -0.0651  0.2854
16486W        W29900   2.253   3.833  12.342 -0.1071  0.0723 -0.0739
16487W        W29901  10.787  11.416  10.637  0.1050 -0.0053 -0.0682
16488W        W29902  11.389   0.220   6.309 -0.0242  0.0931  0.3088
16489W        W29903  12.210  12.357   0.703  0.2462  0.1961  0.0384
16490W        W29904  13.635  13.687   4.506  0.0674  0.0780 -0.3132
16491W        W29905  17.949  11.214  14.328 -0.1223  0.1135 -0.0270
16492W        W29906   8.187  17.760   0.338 -0.0432 -0.1480  0.0362
16493W        W29907  11.652  14.782   1.694  0.0967  0.0206  0.3124
16494W        W29908  15.549   0.145   2.576  0.2235  0.0669  0.1152
16495W        W29909  14.518  10.469   2.846  0.3213 -0.1124  0.1502
16496W        W29910  11.144   9.071   1.860 -0.0205 -0.1930  0.2281
16497W        W29911   7.628   6.536  12.956  0.3782 -0.1202 -0.1526
16498W        W29912   5.913  16.106   1.193 -0.0165 -0.4544 -0.1639
16499W        W29913   7.572   0.311   0.095 -0.1636 -0.0413 -0.0297
16500W        W29914   0.833   9.340   3.903 -0.1603 -0.0323 -0.2255
16501W        W29915  10.333  15.738  13.573  0.1117  0.0127  0.1888
16502W        W29916   9.546  16.564  11.516 -0.0834 -0.1617  0.1496
16503W        W29917  17.232  17.592   5.933 -0.0442  0.1167  0.0164
16504W        W29918   2.946   9.179   3.474  0.2294 -0.0751 -0.3541
16505W        W29919  15.501   8.516   3.202  0.2257 -0.2557 -0.2025
16506W        W29920   0.177   0.313   4.551  0.1582  0.2023  0.0039
16507W        W29921  15.693   3.798  14.729  0.0542 -0.1654  0.3456
16508W        W29922  11.251   6.231  15.310  0.1265  0.1177  0.2516
16509W        W29923  15.152   0.625  14.086  0.1259  0.2049  0.0238
16510W        W29924  15.026  14.238  13.319  0.1266  0.2992 -0.0957
16511W        W29925   8.999  14.157  11.939  0.0540 -0.0639 -0.2863
16512W        W29926  12.896   6.488  12.519 -0.3195 -0.0838 -0.1659
16513W        W29927   0.821  16.822  14.137 -0.1354  0.0335  0.1664
16514W        W29928  10.319   9.237   5.613 -0.0667  0.3228  0.1649
16515W        W29929   6.678  17.820  10.255 -0.2056  0.1873  0.2479
16516W        W29930  15.096  10.123  13.469 -0.0243  0.1289 -0.1411
16517W        W29931  16.901   8.375   4.584 -0.0653 -0.1324 -0.0340
16518W        W29932  15.152  10.165  15.652  0.0626  0.3290  0.2784
16519W        W29933  10.041  10.884  12.634 -0.1967  0.1833 -0.1053
16520W        W29934  17.664  13.420   1.613 -0.0635  0.1353 -0.4941
16521W        W29935   9.150   1.603   1.101  0.0229 -0.1056  0.0083
16522W        W29936   2.295  11.346  10.429 -0.0208  0.3761  0.0966
16523W        W29937   0.418   6.141  16.495  0.0635 -0.2268 -0.1157
16524W        W29938   0.047   0.655   4.059  0.0339 -0.0073  0.0965
16525W        W29939   2.385  17.968  16.187 -0.3704 -0.2025 -0.1762
16526W        W29940  15.965  12.129  12.459  0.0011 -0.1128  0.3768
16527W        W29941   9.005  10.200  12.482  0.0827  0.4094 -0.0338
16528W        W29942  14.771  12.747  13.372  0.2415  0.1510  0.0221
16529W        W29943   2.793   1.674   1.549  0.2643 -0.1462  0.1281
16530W        W29944  11.438  14.105  15.469  0.1163  0.1787  0.0429
16531W        W29945  15.247   5.232  15.923  0.1111 -0.0142  0.0012
16532W        W29946  12.434  14.234  12.759 -0.2078 -0.1164 -0.0993
16533W        W29947  15.478  11.166   1.573 -0.0916 -0.3046  0.0040
16534W        W29948  14.184  11.372   0.762 -0.3361 -0.1447 -0.0693
16535W        W29949  10.610   1.443   6.085 -0.1127  0.0668  0.0584
16536W        W29950  12.395  12.136   3.503  0.2101 -0.1334 -0.2391
16537W        W29951   4.370   1.496   4.066  0.1353  0.3047 -0.2443
16538W        W29952  15.602   1.101  16.481  0.0636  0.1139  0.0611
16539W        W29953  15.240  10.315   5.569 -0.1567  0.1694  0.1639
16540W        W29954  15.508   1.310  15.486 -0.0719 -0.0815 -0.0600
16541W        W29955   2.651   2.033   4.611  0.0505 -0.2016 -0.0229
16542W        W29956   2.968   6.425   1.544  0.1093  0.0007  0.2168
16543W        W29957   0.295  17.657  13.781  0.3015 -0.0870 -0.0225
16544W        W29958  11.354   9.240  12.199 -0.2887 -0.0712  0.0742
16545W        W29959  15.324  10.877   0.759 -0.1730 -0.1462  0.1972
16546W        W29960  13.845   8.871   3.474  0.1309 -0.2229 -0.1830
16547W        W29961  16.969  16.281   4.576 -0.1466  0.4259  0.2610
16548W        W29962  17.641   5.563  15.672  0.0937 -0.1399 -0.2450
16549W        W29963   0.346  13.068  12.141 -0.1133 -0.1067 -0.0625
16550W        W29964  10.412  16.570   5.677  0.0209  0.1063  0.3633
16551W        W29965   3.706  13.154   9.525  0.2928  0.2156  0.1017
16552W        W29966  15.526   6.696   2.477  0.0300  0.1670  0.3363
16553W        W29967   8.085   8.583  11.384  0.0404  0.1019  0.1478
16554W        W29968   9.882   4.534   0.171 -0.2428 -0.0087 -0.2986
16555W        W29969   2.129  15.749   0.862  0.1044 -0.0390 -0.1318
16556W        W29970  11.499   6.454  15.923  0.0632  0.1879  0.1382
16557W        W29971   8.839   2.199   5.645  0.0581 -0.1638  0.0219
16558W        W29972  14.536  11.080  12.538  0.1839  0.1645 -0.1683
16559W        W29973   1.860   9.283   5.356  0.0126 -0.0452  0.0074
16560W        W29974  17.545   3.296   2.894 -0.1301 -0.1166 -0.0811
16561W        W29975   2.777   4.668  12.454  0.3566 -0.0482  0.4399
16562W        W29976  15.312   0.164  12.598  0.3299 -0.2138  0.0259
16563W        W29977  14.974  10.644   3.106  0.0363 -0.1124  0.0832
16564W        W29978  14.060  15.116  13.104 -0.1186 -0.3049 -0.4249
16565W        W29979   6.860  15.808  14.270  0.1511 -0.1819  0.1330
16566W        W29980   3.799  13.748   3.447  0.0460 -0.1496  0.2296
16567W        W29981  13.724   9.217  13.343  0.2540  0.1241  0.1619
16568W        W29982  16.645   3.726  14.576  0.1804 -0.3004 -0.2675
16569W        W29983  10.054   7.588  12.839 -0.2643 -0.0941  0.0072
16570W        W29984  12.600   3.680  12.859 -0.0761  0.0065 -0.0307
16571W        W29985   0.089   4.217   1.823 -0.2331 -0.0150 -0.2455
16572W        W29986  12.896  14.620  12.276  0.2305  0.0082  0.1379
16573W        W29987   3.918   9.592  14.350 -0.0407  0.0009 -0.0207
16574W        W29988   6.429   6.813   3.319  0.0349 -0.3780 -0.2547
16575W        W29989   7.038  17.262   4.851  0.0967 -0.2265 -0.3211
16576W        W29990   0.256  14.874   2.518 -0.2344  0.1056 -0.2388
16577W        W29991   0.791   7.088   5.604  0.0411  0.0083  0.1515
16578W        W29992   8.933   9.620   2.200 -0.0821  0.1048  0.0861
16579W        W29993   4.997  17.442   1.034  0.0073  0.0586  0.0699
16580W        W29994  17.721  16.119  14.540  0.1090 -0.1270 -0.5632
16581W        W29995   1.244   1.643   1.375  0.0130 -0.0397 -0.1227
16582W        W29996   3.444   9.884  16.414  0.3746  0.0223 -0.0618
16583W        W29997  11.942   6.613  11.997  0.0069  0.0805 -0.2193
16584W        W29998   8.290   5.508  16.118 -0.1747 -0.2781 -0.1197
16585W        W29999  15.648  15.132   3.909 -0.0259  0.0279  0.0733
16586W        W30000   9.355   4.971   0.658 -0.0376 -0.1234 -0.0372
16587W        W30001   1.780  11.225  10.455 -0.1422  0.2316  0.0073
16588W        W30002   2.938   1.851  15.742  0.3679 -0.0329 -0.2148
16589W        W30003   2.811  17.984  14.588  0.1007 -0.0427 -0.1617
16590W        W30004   4.627   6.299  11.537  0.0190 -0.0452  0.1591
16591W        W30005   3.930   1.337  12.716 -0.4319 -0.0834 -0.0196
16592W        W30006   9.677  16.953  12.543  0.0797 -0.0902 -0.1312
16593W        W30007  15.830  15.181   0.702  0.0783 -0.1477  0.0431
16594W        W30008   0.808   9.840   4.587 -0.1274 -0.1417  0.1569
16595W        W30009   1.608   7.769   3.164  0.1342  0.0060  0.1952
16596W        W30010   2.022   1.835   4.567  0.5832 -0.2692  0.1646
16597W        W30011  12.690  12.948  14.559 -0.3576  0.2261  0.0896
16598W        W30012   4.347  14.059   1.829 -0.0452  0.0738  0.4347
16599W        W30013   6.666   4.529   0.002 -0.2612  0.1659 -0.0865
16600W        W30014  15.267  15.395   4.880  0.1512 -0.2031  0.0293
16601W        W30015   3.558  12.850  12.356 -0.1424 -0.2036 -0.3018
16602W        W30016   9.336  13.773   4.750  0.0243  0.1407 -0.0758
16603W        W30017   5.069   3.408  13.856  0.0646 -0.1056  0.0143
16604W        W30018  15.481   3.993  11.127 -0.3494 -0.0567 -0.1905
16605W        W30019   3.779   8.960   0.912 -0.0671 -0.0858  0.2000
16606W        W30020   5.664   0.793   2.108 -0.0486 -0.2254 -0.1309
16607W        W30021   8.066  14.955  14.199 -0.0878 -0.1679 -0.0839
16608W        W30022  11.510   9.721   5.213 -0.0871  0.0540 -0.0738
16609W        W30023   3.977  17.183  15.368  0.1139  0.1450  0.1909
16610W        W30024   0.739   9.342   3.392  0.0511 -0.1804  0.2771
16611W        W30025  16.021   4.134  11.039 -0.0296 -0.1946  0.2850
16612W        W30026   8.625   1.359  13.208  0.0537  0.3223 -0.3231
16613W        W30027   7.649  15.901   2.613  0.2575 -0.0655 -0.2689
16614W        W30028   4.321  16.223  16.141 -0.0799  0.1525 -0.0259
16615W        W30029   6.609   3.548   4.510  0.1024 -0.0492  0.2018
16616W        W30030   4.550   4.704  14.298  0.1953  0.0964 -0.1373
16617W        W30031  17.308  15.914  16.515  0.0905 -0.0140 -0.2015
16618W        W30032  12.481   7.145   3.576  0.0753  0.0468  0.1439
16619W        W30033  10.876   3.203   0.388 -0.1303 -0.1553  0.2926
16620W        W30034   0.666   3.100  12.717  0.0640  0.0593  0.1747
16621W        W30035   0.773  11.019  11.567 -0.1851  0.0310  0.2425
16622W        W30036  17.160   0.157  14.328  0.1404 -0.0864  0.0482
16623W        W30037   6.451   0.942   2.694 -0.2453 -0.1639  0.2264
16624W        W30038  17.996  17.017   3.344  0.1540 -0.3961 -0.0531
16625W        W30039   5.150   8.260  11.457  0.0688 -0.2707 -0.0476
16626W        W30040   5.339  17.808  15.680 -0.0200 -0.1272 -0.1604
16627W        W30041   9.077   3.587  11.982  0.0132  0.0189 -0.2531
16628W        W30042   8.818  16.692   0.497  0.1767 -0.0470 -0.0741
16629W        W30043   0.830  16.150  10.907 -0.0347  0.1628  0.0490
16630W        W30044   5.077  15.397  12.078  0.0901 -0.5071 -0.1320
16631W        W30045  17.742  13.212   4.992 -0.2191 -0.0726  0.0998
16632W        W30046  16.528  15.143   2.164 -0.0021  0.2558 -0.2332
16633W        W30047   3.354  12.769  15.613 -0.0853  0.1295  0.0693
16634W        W30048  16.795   9.748  11.816  0.3878  0.1346 -0.0081
16635W        W30049  10.008   1.858   0.647 -0.0434  0.0180  0.0832
16636W        W30050   9.022   5.292  13.942 -0.1371 -0.0752  0.0931
16637W        W30051   7.352   4.227  10.300  0.1617 -0.0865  0.0111
16638W        W30052  13.340  16.787  15.866  0.1109  0.2026  0.0810
16639W        W30053  16.903   0.169  15.672 -0.2308  0.0791  0.2857
16640W        W30054   8.322   6.891   3.992  0.0924 -0.1120  0.0772
16641W        W30055  11.193   7.602   1.003 -0.1696 -0.2077 -0.0043
16642W        W30056   4.045  12.710  13.370 -0.1013  0.2087 -0.0290
16643W        W30057   4.584  14.748   5.361 -0.0870 -0.1993 -0.0309
16644W        W30058  13.358   6.943   1.645 -0.1717  0.0405 -0.2048
16645W        W30059   5.470   8.831  11.977 -0.1982 -0.0118  0.0422
16646W        W30060   8.828  11.179  13.665 -0.0090  0.2730  0.0121
16647W        W30061  17.474   1.282   2.303 -0.0532  0.3584  0.3464
16648W        W30062   4.364   3.306  13.050  0.0367 -0.2004  0.0291
16649W        W30063  16.149   7.817  10.783  0.1436  0.1650  0.1056
16650W        W30064   1.987   8.686  15.587  0.1561  0.0111  0.0746
16651W        W30065  13.818   1.842   3.783  0.1781 -0.2489  0.2359
16652W        W30066   4.508   9.686   6.422  0.0377 -0.1403 -0.1368
16653W        W30067  12.124  17.807  12.980  0.3550 -0.2183  0.3219
16654W        W30068  12.457   1.901  16.626  0.0944  0.0530  0.1534
16655W        W30069   8.234  17.984   4.396  0.0478 -0.1808  0.0653
16656W        W30070   6.029  15.377  12.821 -0.4329 -0.1312 -0.0310
16657W        W30071   7.227  16.494   5.262 -0.0099  0.0585 -0.0996
16658W        W30072   8.552  14.778   0.292  0.0878  0.1076  0.2327
16659W        W30073  15.604   3.211  12.652  0.0451 -0.0985  0.4381
16660W        W30074   6.005  10.947  15.692  0.2082 -0.0194  0.0405
16661W        W30075   9.402   0.122   2.855 -0.0095  0.0147  0.2316
16662W        W30076  11.108  15.491   1.444  0.1364  0.3248  0.1965
16663W        W30077   8.005   9.815   2.137  0.2488  0.2086 -0.2348
16664W        W30078   7.462   3.531   4.205 -0.1362 -0.1612  0.0990
16665W        W30079   7.798   6.741   3.714 -0.0729 -0.0965  0.1245
16666W        W30080  14.561  17.832  10.827 -0.0457  0.0068  0.1811
16667W        W30081   8.674   6.599   3.791 -0.0931 -0.0265 -0.0685
16668W        W30082   4.832   2.473  13.142  0.0043 -0.0170  0.0019
16669W        W30083  15.698   3.066   2.317 -0.1844  0.0597 -0.0525
16670W        W30084   8.833   5.174   2.770  0.0744 -0.2090  0.2200
16671W        W30085  10.049  10.354  14.886 -0.3601  0.1457 -0.3665
16672W        W30086   2.722  12.273  13.827  0.0421 -0.0237 -0.1102
16673W        W30087  15.538  13.585  16.699 -0.0584 -0.2377  0.0627
16674W        W30088  15.615  14.576   4.556  0.0542  0.1432 -0.1288
16675W        W30089   1.649   4.778   2.993 -0.1304 -0.1260  0.0814
16676W        W30090   4.116   6.824   4.032  0.0557  0.2487  0.2079
16677W        W30091   2.118   2.471  12.822 -0.0838 -0.1224  0.0331
16678W        W30092  13.956   0.645   1.475 -0.2111  0.0856 -0.2587
16679W        W30093   1.421   3.342   6.090 -0.3417  0.0211 -0.1966
16680W        W30094   4.727   6.644   1.940 -0.0384  0.0428  0.1888
16681W        W30095   9.067   2.471   3.515 -0.0220  0.1153  0.0314
16682W        W30096  17.964  13.851  11.943 -0.2999 -0.1668 -0.1732
16683W        W30097   8.434  11.344  12.625  0.2132 -0.3250 -0.3182
16684W        W30098  14.773  14.427  16.020 -0.0626 -0.0193 -0.3821
16685W        W30099  17.230  16.568  12.835 -0.0972 -0.1529  0.3612
16686W        W30100   6.750   6.981  11.457 -0.0255  0.1389  0.0919
16687W        W30101  17.638  10.833  14.657 -0.0213  0.1756  0.1371
16688W        W30102   7.971   8.979   5.344 -0.1880  0.1952 -0.0739
16689W        W30103  13.294   9.522  16.704  0.1627 -0.1885  0.2311
16690W        W30104  13.324  13.571  14.210  0.0563  0.0210 -0.2084
16691W        W30105   4.758  11.196  13.296  0.1615 -0.4002  0.2232
16692W        W30106   9.949   4.041   4.625  0.2884 -0.2551 -0.3340
16693W        W30107  16.948   9.709   4.538 -0.0190  0.1488 -0.3710
16694W        W30108   5.626  10.023   3.438  0.0531 -0.0426 -0.1398
16695W        W30109  14.509   9.369   5.238  0.1587 -0.2781  0.1287
16696W        W30110   7.986  14.078   5.419 -0.3214  0.1509 -0.0791
16697W        W30111  10.335   1.989  15.179  0.1185 -0.0244 -0.1014
16698W        W30112   2.026   4.970   5.901 -0.0099 -0.0813 -0.0078
16699W        W30113   2.109  13.280  12.595  0.0461 -0.0834 -0.1361
16700W        W30114  11.208   1.557  12.655  0.1587 -0.0586  0.1996
16701W        W30115  13.549   8.469   2.105  0.3299  0.1504  0.0075
16702W        W30116  17.229  11.032  12.328 -0.1889 -0.0554  0.4725
16703W        W30117   1.387   7.218   2.028 -0.0596  0.1534  0.0113
16704W        W30118   4.948   5.946   1.584  0.0992 -0.1004  0.2028
16705W        W30119  11.952   5.430   2.108  0.1944  0.0398 -0.0502
16706W        W30120   0.412   0.908  10.953 -0.1677  0.2484  0.1860
16707W        W30121  11.585  11.989   4.816 -0.2317 -0.0598 -0.2644
16708W        W30122   3.212   5.028  13.493 -0.0583  0.0655  0.0563
16709W        W30123   8.274  11.253  15.672 -0.1252  0.3333  0.0878
16710W        W30124  11.080  13.563  13.657 -0.0527 -0.2284 -0.1921
16711W        W30125   1.510  13.781  16.701  0.0092  0.2162 -0.1505
16712W        W30126   8.717  16.530  15.133  0.1617 -0.0632  0.1663
16713W        W30127   6.073   8.889  12.206 -0.1386  0.2822  0.0263
16714W        W30128   6.455   0.952   3.478  0.0465 -0.0241 -0.0609
16715W        W30129   7.114   3.370   1.577  0.0685 -0.0985  0.3388
16716W        W30130  14.832  16.963   1.100  0.1277 -0.2871  0.2807
16717W        W30131  14.595   8.491   1.334 -0.0227 -0.1832  0.1574
16718W        W30132   5.635   7.372   3.647  0.1524  0.0062 -0.3505
16719W        W30133   5.899   1.118   4.296  0.1736  0.6234 -0.0633
16720W        W30134  13.054  12.855  13.734 -0.0065  0.0854 -0.0323
16721W        W30135  10.026   9.383   2.631 -0.1268 -0.1202 -0.0496
16722W        W30136  10.287  11.792  12.629 -0.0600 -0.0436 -0.1131
16723W        W30137   8.557   9.228   1.626  0.1936 -0.2936 -0.0629
16724W        W30138   2.849   1.851   1.048 -0.1999 -0.2242 -0.2462
16725W        W30139   2.919   2.503   3.955 -0.2766  0.3566 -0.1281
16726W        W30140  15.362   0.263  12.025 -0.0028 -0.0408  0.1995
16727W        W30141   6.956   7.872   0.853 -0.2357  0.1024  0.2728
16728W        W30142   2.938   3.296   5.512 -0.1165  0.2304  0.1674
16729W        W30143  15.696  15.847  14.614 -0.0473 -0.0505  0.0585
16730W        W30144  13.257   3.012   0.330  0.2632  0.1239  0.0759
16731W        W30145  13.448   9.871   0.321 -0.1748 -0.0140 -0.0660
16732W        W30146   3.295  13.622  13.742  0.3308 -0.0023  0.0290
16733W        W30147   3.098   8.622  15.850  0.1112  0.2412 -0.1229
16734W        W30148   2.649   9.693   3.031  0.0788  0.1918 -0.2919
16735W        W30149  14.649  10.462  16.266 -0.1071  0.0095  0.1072
16736W        W30150  10.786  10.739   5.898 -0.0548 -0.0466  0.2426
16737W        W30151   3.045  16.081  16.697  0.1547 -0.0396 -0.1891
16738W        W30152  17.505   3.716   0.557 -0.1973  0.2108 -0.3813
16739W        W30153   0.065  11.813   6.027  0.2188  0.1277 -0.2076
16740W        W30154   4.198  11.514  10.415 -0.1451  0.4060  0.1184
16741W        W30155   9.195  14.896  10.593  0.1309 -0.2575  0.0909
16742W        W30156  15.411   2.382  14.209  0.1268  0.0417 -0.0630
16743W        W30157   1.682  17.161   1.257  0.0434 -0.0737 -0.1102
16744W        W30158  11.743  11.808  16.238  0.1261  0.0172 -0.4008
16745W        W30159   0.360   6.938   2.371 -0.3048 -0.0008  0.1212
16746W        W30160   3.884   7.040  14.447  0.0501 -0.1189  0.2866
16747W        W30161   8.121   4.493   4.423 -0.1273 -0.1384 -0.0476
16748W        W30162   8.773   9.118   2.092  0.0802  0.0467 -0.1781
16749W        W30163   3.281   2.760  15.672  0.1147 -0.0510  0.0578
16750W        W30164   0.793   6.978  13.586  0.0226 -0.0713 -0.1078
16751W        W30165  16.342   8.864   1.127 -0.0035 -0.2423 -0.2709
16752W        W30166  10.516  16.099   6.225 -0.2087  0.1043  0.0410
16753W        W30167  17.739  15.403   2.112  0.0289  0.0944 -0.0079
16754W        W30168  17.679   6.440  14.802  0.0618 -0.1178  0.1286
16755W        W30169  11.913   9.585  11.091  0.1650 -0.0011  0.0930
16756W        W30170  10.369  17.848   6.054 -0.5825 -0.0447 -0.4384
16757W        W30171   8.830  16.260   1.056 -0.1574 -0.0477 -0.1665
16758W        W30172   4.928  14.420  10.073 -0.1242 -0.3502 -0.2622
16759W        W30173   9.501   6.084  12.816  0.0336  0.4642 -0.2745
16760W        W30174   1.986  11.952   3.868 -0.2317  0.0862  0.3438
16761W        W30175  15.898  15.537   2.090 -0.2242  0.4171  0.1181
16762W        W30176  10.401   9.728  13.624 -0.4345 -0.1907  0.1292
16763W        W30177  12.774  11.886   5.438 -0.1006  0.2197  0.1054
16764W        W30178  10.507   2.989  16.221  0.0864 -0.1577  0.0012
16765W        W30179   5.608   9.605   4.404  0.2174  0.0815 -0.0719
16766W        W30180  14.728   6.078   3.446 -0.1241 -0.0631  0.0442
16767W        W30181   5.096   1.439  14.864 -0.2358 -0.0125  0.1971
16768W        W30182  17.634   8.187   4.126 -0.1934 -0.1688  0.1935
16769W        W30183   0.504  16.992  12.449 -0.2816 -0.2356 -0.0876
16770W        W30184   0.521  15.092   3.416  0.1954  0.0413 -0.1471
16771W        W30185  17.843  12.664  13.682 -0.1360  0.1060  0.0079
16772W        W30186   6.307   3.801  15.225  0.0387  0.1221 -0.1171
16773W        W30187  13.162  14.373   1.926 -0.3817 -0.1390 -0.0070
16774W        W30188   2.760  10.150   3.163 -0.1046 -0.2955  0.2669
16775W        W30189  11.625   6.484  11.500  0.1235 -0.1632 -0.1466
16776W        W30190   1.143   1.129   0.365  0.0140 -0.2159  0.4786
16777W        W30191  11.372   2.794   1.695 -0.2817  0.1178  0.0705
16778W        W30192  10.158  12.806   5.495 -0.0785  0.0929 -0.0301
16779W        W30193   5.794   8.264  16.062  0.2606 -0.0309  0.1248
16780W        W30194  17.944  10.336   4.303 -0.3377 -0.0042  0.3067
16781W        W30195  10.481  14.934   2.100 -0.2684  0.1874  0.1688
16782W        W30196   0.582   5.159  11.865  0.0156  0.0301  0.1103
16783W        W30197  17.569   6.274  14.016  0.0742  0.3446  0.1601
16784W        W30198   1.094  11.315   1.487 -0.0835 -0.0819 -0.1035
16785W        W30199   7.166   3.308   2.103  0.3494  0.3907 -0.0284
16786W        W30200  15.207   6.023   4.297  0.1040 -0.1984 -0.0317
16787W        W30201  14.492   8.639   4.235 -0.0794  0.1788 -0.1682
16788W        W30202   7.675   1.180  16.563 -0.3197 -0.2464  0.2244
16789W        W30203  14.636   7.383   0.627 -0.1505  0.3613  0.1557
16790W        W30204   7.630  14.654   6.344  0.2112 -0.1993 -0.5222
16791W        W30205  11.298  17.898   6.656  0.0173  0.2016  0.1115
16792W        W30206   8.108  13.531  14.699  0.3980  0.0626 -0.2805
16793W        W30207  16.290   7.776   2.700 -0.0129 -0.1131 -0.1856
16794W        W30208  11.985  13.066  14.778 -0.2557 -0.2646 -0.1767
16795W        W30209  17.677  17.400   4.592  0.3004 -0.3244 -0.1965
16796W        W30210   6.449   0.588  10.652  0.0906  0.2208  0.0219
16797W        W30211   6.989  17.548  14.273 -0.1148 -0.1934 -0.3130
16798W        W30212  17.912   4.042   0.614  0.2271  0.0270 -0.0047
16799W        W30213  14.166   1.174  16.377  0.0556  0.2060 -0.0816
16800W        W30214  11.446   0.840  13.255  0.0433  0.0921  0.0607
16801W        W30215   3.506   5.526   4.339  0.2537 -0.2918  0.0070
16802W        W30216   3.475  11.155   4.337  0.3270  0.0425  0.0856
16803W        W30217  13.419   2.607   0.632 -0.1497  0.4718  0.1910
16804W        W30218   0.435   8.122   2.236  0.0280  0.0646  0.0597
16805W        W30219  10.876   8.060   1.956  0.1054  0.2061  0.0607
16806W        W30220   9.700  16.567   3.867  0.1731 -0.0227  0.0294
16807W        W30221  14.488   2.636  13.354  0.0446  0.3792  0.1774
16808W        W30222   8.355   4.661  14.171  0.0583 -0.4151  0.0626
16809W        W30223   2.505   8.778  12.752 -0.1497 -0.0744 -0.1655
16810W        W30224  17.444   5.496  14.765  0.0064 -0.2051 -0.0713
16811W        W30225   4.911   2.753  13.569  0.1933 -0.0963  0.1426
16812W        W30226   4.218  14.051  14.838 -0.2842 -0.3471  0.0263
16813W        W30227   8.036  16.694  13.267  0.4538 -0.3315 -0.0161
16814W        W30228   7.826  13.418  11.264  0.1310  0.3017 -0.1356
16815W        W30229  14.080  11.053  16.033 -0.2126  0.1969 -0.0885
16816W        W30230   9.216   3.489   2.593 -0.0731  0.1962  0.0995
16817W        W30231   1.857  16.797  13.958  0.1716 -0.2053 -0.2245
16818W        W30232  12.845   3.277  16.379  0.1841  0.0603 -0.2574
16819W        W30233   1.771  13.467  11.032 -0.0853 -0.0230  0.0775
16820W        W30234   7.412   8.373  13.760  0.1470 -0.0574  0.3901
16821W        W30235   0.211   3.299  12.609  0.0482 -0.2343  0.2698
16822W        W30236   5.962  12.835   5.465 -0.3108 -0.1165  0.0279
16823W        W30237   6.741   3.895   9.968  0.3499  0.1166  0.1899
16824W        W30238   7.515   2.716  10.495 -0.0443 -0.0088  0.0573
16825W        W30239  17.278  14.939   5.570 -0.1480  0.1476  0.2839
16826W        W30240   0.920   1.166   5.114  0.1478 -0.0055 -0.1061
16827W        W30241  13.355  13.001   4.076 -0.0119 -0.0668 -0.0841
16828W        W30242   8.827  13.068  16.560 -0.0162 -0.0455 -0.1541
16829W        W30243  16.982   9.310  10.185  0.0389  0.0862 -0.1131
16830W        W30244  11.055  11.822   0.140 -0.0933  0.0876 -0.0025
16831W        W30245  14.369  17.314  11.233 -0.1001  0.4233  0.1634
16832W        W30246   1.100   3.730   3.658 -0.1776 -0.2031  0.1144
16833W        W30247  14.216  14.960   1.157  0.1702  0.1266  0.1086
16834W        W30248   7.264   5.330  11.481  0.1954  0.0335  0.0243
16835W        W30249   0.668   3.560   2.577  0.2735 -0.0273  0.2061
16836W        W30250   4.573  15.384  11.934 -0.0523 -0.0086  0.0394
16837W        W30251   7.068   1.870  11.482  0.0759 -0.1985  0.4598
16838W        W30252  12.648   4.465  12.445  0.0280 -0.0051  0.1918
16839W        W30253   3.031   9.553  13.098  0.1009  0.2084 -0.0870
16840W        W30254   5.975   7.321   5.069  0.1909 -0.0544  0.0616
16841W        W30255   7.423   5.444   1.537  0.1206 -0.4939 -0.2866
16842W        W30256   9.548   0.485   3.809 -0.2288 -0.0429  0.0043
16843W        W30257   4.315   8.772   0.127  0.0284 -0.0159 -0.0041
16844W        W30258   5.453   8.899   1.933 -0.1755  0.1599 -0.2798
16845W        W30259  15.935   3.531  13.004 -0.0750  0.0410  0.0144
16846W        W30260  16.098   3.326  12.584 -0.0124 -0.3071  0.0067
16847W        W30261  10.490   2.169   2.691 -0.0513 -0.1796 -0.0432
16848W        W30262   9.397   3.110   2.900  0.0041 -0.2012 -0.0126
16849W        W30263   2.349   4.230   1.787  0.4387 -0.1915 -0.3104
16850W        W30264   1.506  16.772   3.064 -0.0181  0.4750  0.1178
16851W        W30265   0.330   9.111  11.391 -0.1555  0.2381  0.1552
16852W        W30266  16.241   8.038   0.655 -0.1785  0.2880  0.0509
16853W        W30267  15.709   2.269   2.841 -0.0874 -0.5824 -0.1363
16854W        W30268   5.051   6.218   3.114  0.4203  0.3037 -0.1122
16855W        W30269   8.343   1.286  14.492  0.3393 -0.0576  0.2618
16856W        W30270  12.473   5.537  15.850  0.2574 -0.1172  0.1470
16857W        W30271  16.611  10.995   0.361  0.0093 -0.0417  0.0224
16858W        W30272   1.967  15.700  14.760  0.1291  0.1862 -0.0955
16859W        W30273   6.637  13.566   2.242 -0.2245  0.4822  0.0596
16860W        W30274   2.373   5.071  13.741 -0.2274  0.0821 -0.1130
16861W        W30275   3.091   1.994   5.641 -0.0106 -0.3344 -0.0692
16862W        W30276  12.327  11.620  11.512  0.1981  0.1193 -0.0874
16863W        W30277   6.346   4.913  10.838 -0.3665  0.1761  0.2359
16864W        W30278   8.748   3.434  16.384  0.2898 -0.0531  0.0670
16865W        W30279  17.059   3.325   1.611  0.1840  0.2073 -0.1257
16866W        W30280  14.130   3.412   1.660 -0.0685 -0.0284 -0.0818
16867W        W30281  17.704  13.495  14.800  0.2091  0.1824  0.0277
16868W        W30282   0.991  14.769  14.611 -0.0311  0.0282 -0.1263
16869W        W30283   2.178   4.110  15.283  0.0327  0.0053  0.0025
16870W        W30284  17.989  12.442  14.211  0.2621 -0.2218 -0.1398
16871W        W30285  12.434   8.025  13.741 -0.1932 -0.0899  0.1310
16872W        W30286   0.289   6.678  16.278  0.1224  0.0539 -0.3815
16873W        W30287  14.054   6.914  13.695 -0.0795  0.1273  0.0771
16874W        W30288   9.209  13.842   1.433  0.0888 -0.0220  0.2082
16875W        W30289   7.948  12.929   5.266 -0.1737 -0.0777  0.0566
16876W        W30290  17.165  13.229   3.090  0.0299 -0.1988  0.1017
16877W        W30291   3.485   4.579   4.915  0.0402 -0.1025  0.0825
16878W        W30292   1.738  12.385   4.949  0.5794  0.0441  0.1599
16879W        W30293   0.909  16.521  13.785 -0.0425 -0.2475 -0.2297
16880W        W30294   3.083  17.202  15.828 -0.0791 -0.2260  0.0932
16881W        W30295  13.471   4.809  15.393  0.1492  0.0301  0.1411
16882W        W30296   2.869   1.895  13.317 -0.0861  0.3643 -0.0480
16883W        W30297   4.682  13.694   4.799 -0.1846  0.2856  0.1607
16884W        W30298  14.865  12.177   3.354  0.5608  0.0035 -0.0785
16885W        W30299  16.929   8.652  13.855 -0.0030 -0.1686 -0.0979
16886W        W30300   8.321  16.028   4.589  0.0621  0.1703  0.0149
16887W        W30301   3.823   4.534   3.933 -0.1699  0.1655 -0.1870
16888W        W30302  10.333   3.206   4.062  0.2583  0.3401  0.0545
16889W        W30303  14.243   6.829   1.787  0.0995 -0.3998  0.0244
16890W        W30304  13.296   1.549   2.869 -0.0370  0.0150 -0.1070
16891W        W30305   8.840   2.090   3.736 -0.1693 -0.0624 -0.0067
16892W        W30306  15.858   4.984  13.470 -0.2250  0.0100 -0.0820
16893W        W30307  14.089  14.449  15.426 -0.0682 -0.0897  0.1745
16894W        W30308   8.044  14.638  15.692  0.1562  0.2239  0.2919
16895W        W30309  10.974   0.683  11.788 -0.1192 -0.1406  0.3294
16896W        W30310   5.854   6.788  15.179 -0.1614  0.1223 -0.1846
16897W        W30311   5.435   5.607  14.691 -0.0279 -0.0606 -0.2632
16898W        W30312  10.023   7.808   2.606  0.1960  0.2195 -0.0597
16899W        W30313  14.153  16.366   1.026  0.1652 -0.2057 -0.1044
16900W        W30314  12.571  15.384  13.976 -0.0169  0.4483 -0.1200
16901W        W30315  11.468   3.910  14.504  0.1314 -0.1513 -0.2628
16902W        W30316   5.830   5.676  14.425 -0.0936  0.1515 -0.1364
16903W        W30317  11.805   7.742  11.899  0.2364 -0.1588  0.0210
16904W        W30318  15.463   2.453  13.216 -0.2170  0.0462 -0.1816
16905W        W30319   7.487  12.973   6.146 -0.5303  0.1237 -0.0292
16906W        W30320   3.466  14.410  13.196 -0.3523  0.0675 -0.0462
16907W        W30321  17.800  14.802  12.231 -0.0442 -0.1638 -0.2518
16908W        W30322  14.740   2.315  14.804 -0.0429  0.1575 -0.1100
16909W        W30323  13.274   7.523   4.665 -0.2440  0.3097  0.0367
16910W        W30324  13.751   8.038  14.066 -0.0784 -0.0658  0.1388
16911W        W30325   4.873  12.767   3.725 -0.2811  0.0638 -0.2191
16912W        W30326   8.515  12.868   0.744 -0.0416 -0.1395 -0.4464
16913W        W30327   8.376   0.119   4.868 -0.1143  0.3114 -0.1939
16914W        W30328  15.971   8.726   6.243  0.1081  0.1257  0.1825
16915W        W30329  11.038   8.462   0.035 -0.0932  0.3495 -0.0063
16916W        W30330   7.162   3.256   3.707  0.1907  0.0733 -0.2220
16917W        W30331  14.510  10.871   6.900 -0.2651  0.0093 -0.1735
16918W        W30332  15.221  15.023  12.942 -0.0711 -0.2682 -0.0050
16919W        W30333  12.031   9.305   0.316 -0.1220 -0.0891  0.2282
16920W        W30334   0.149   1.151   0.183  0.2506 -0.3019 -0.0867
16921W        W30335  12.095  13.368  12.798 -0.2376  0.2699  0.1283
16922W        W30336  17.531  14.793   4.166  0.1094  0.1522 -0.0591
16923W        W30337   2.476   1.675   4.326 -0.0369 -0.1671 -0.1551
16924W        W30338  11.286  14.490  11.318 -0.0939  0.1229  0.1621
16925W        W30339  13.168  11.899   0.985  0.0774 -0.1213  0.1839
16926W        W30340  17.982   1.726   0.025 -0.1288 -0.0919 -0.0030
16927W        W30341  13.251   7.288  11.392  0.1775  0.0547  0.1029
16928W        W30342   7.517   0.883   3.536 -0.0694  0.0361 -0.2567
16929W        W30343  10.178  14.305  12.058 -0.2400 -0.1112 -0.0527
16930W        W30344  11.741  15.439   3.677  0.0152  0.1321  0.0613
16931W        W30345  12.841   3.213  12.968 -0.3172 -0.1486  0.0978
16932W        W30346  13.077   3.359   0.033  0.0701 -0.1614  0.1399
16933W        W30347   4.454   9.236   1.244  0.0429 -0.1887  0.2722
16934W        W30348   8.274   1.818   4.393  0.0362  0.1030 -0.1474
16935W        W30349   7.557   0.655   1.765  0.0480  0.0247 -0.2300
16936W        W30350   7.076   3.610   4.860  0.1384 -0.3138 -0.1074
16937W        W30351   7.867   8.668  13.078  0.0011  0.1199  0.3316
16938W        W30352  10.641  17.299  14.758 -0.0822  0.0319 -0.0959
16939W        W30353   4.633   2.052   0.096  0.0311 -0.2687  0.1428
16940W        W30354   2.196   8.330  12.688 -0.2247 -0.0366 -0.1373
16941W        W30355   0.928  10.584   2.561  0.1840  0.1526 -0.2140
16942W        W30356   2.562   5.662   3.851 -0.2489  0.1236 -0.2170
16943W        W30357   8.362   5.939  11.045 -0.0360 -0.0320  0.1918
16944W        W30358   3.178   5.149   5.105 -0.1204  0.0181  0.1620
16945W        W30359   2.568   0.076  11.690  0.2942  0.2216  0.1335
16946W        W30360  11.479   6.539  13.284  0.1716 -0.0987 -0.0789
16947W        W30361   1.019  17.323  10.812  0.0468 -0.3398 -0.2113
16948W        W30362   9.548   4.044   4.342  0.0268  0.4518 -0.0669
16949W        W30363   5.221  17.830  12.841 -0.1575  0.2206  0.0053
16950W        W30364  17.907  17.693   0.089 -0.1824  0.0494 -0.0247
16951W        W30365   7.758  17.633  12.128  0.2402 -0.2416 -0.0329
16952W        W30366  17.160   1.318  16.595 -0.0300 -0.2261 -0.3256
16953W        W30367  12.912   0.421  13.888 -0.4094  0.0154  0.0755
16954W        W30368  11.140  12.006  12.764 -0.1168 -0.0586 -0.0540
16955W        W30369   1.509  11.593  12.285  0.1523  0.0585 -0.0584
16956W        W30370   5.235  11.299  11.605 -0.1808  0.0505  0.0418
16957W        W30371   8.447   9.674  10.741  0.1737 -0.0933 -0.1825
16958W        W30372  12.423  16.835  13.932 -0.0150  0.0739 -0.0142
16959W        W30373   0.812   2.052   0.684 -0.0823  0.0737 -0.0658
16960W        W30374   7.504   7.593  13.039 -0.2608 -0.2405  0.1761
16961W        W30375  13.652   8.997  15.124 -0.1384  0.0996 -0.1863
16962W        W30376  11.613  17.152   5.497 -0.0719  0.2465  0.2183
16963W        W30377  16.567   5.810  13.755 -0.2150  0.0148 -0.1120
16964W        W30378  15.168   5.511  10.289  0.0592 -0.0834 -0.2242
16965W        W30379   5.366   6.318  12.660 -0.0511  0.0756  0.0872
16966W        W30380   2.165   5.952   1.293  0.1286  0.1707  0.3904
16967W        W30381  13.965   6.433  16.598 -0.1516 -0.1268 -0.2213
16968W        W30382   4.481   1.322  11.893  0.2219 -0.2144  0.2959
16969W        W30383  12.957   2.016   1.262 -0.3107 -0.0185  0.0628
16970W        W30384   9.028  10.695  12.182 -0.0111 -0.3231 -0.1920
16971W        W30385   8.919   8.348   3.497  0.1361  0.2083  0.1542
16972W        W30386  10.078   8.637  12.577 -0.1766 -0.1696 -0.2056
16973W        W30387   8.410   0.098   3.386  0.0611 -0.4485  0.0866
16974W        W30388  11.923   5.393   1.533 -0.0432 -0.2285  0.2751
16975W        W30389   0.113   7.695  16.004 -0.2398  0.0901  0.0780
16976W        W30390   3.304  17.007   2.542  0.2124  0.2592  0.1332
16977W        W30391  10.196  16.553   1.269 -0.2288  0.1127  0.0983
16978W        W30392   3.335  10.862   2.912 -0.0929  0.2072 -0.0116
16979W        W30393  12.420   5.914   6.108  0.0218  0.1623  0.0169
16980W        W30394   1.772  10.614  16.533 -0.0721 -0.2016  0.2524
16981W        W30395  17.586  13.757   2.476  0.3409 -0.1407  0.1652
16982W        W30396  12.439  16.516   6.652  0.1210  0.2036 -0.2195
16983W        W30397  11.693  12.095   5.304 -0.3189 -0.0225  0.0607
16984W        W30398   9.071   3.896   2.971  0.3764 -0.0656 -0.1653
16985W        W30399  13.375  12.334   2.475  0.1117 -0.6183  0.2429
16986W        W30400   3.979  10.739   3.135 -0.3417  0.1439  0.0014
16987W        W30401  15.515  12.245  15.558  0.0269  0.0594 -0.4264
16988W        W30402  12.518   1.649   2.452 -0.2020  0.1049  0.1533
16989W        W30403   0.393  11.302   1.229 -0.0901  0.0393  0.0440
16990W        W30404   0.846   4.275  11.875  0.0210 -0.1633 -0.2389
16991W        W30405  11.210  17.721   0.326  0.0699 -0.1495  0.1699
16992W        W30406   2.593  17.221  13.713 -0.0099  0.2795  0.3758
16993W        W30407   5.177   7.056   5.298  0.0915 -0.1836 -0.0481
16994W        W30408  13.072   3.556   3.812 -0.2016  0.0840 -0.0448
16995W        W30409   4.316  12.408   6.116  0.1085  0.0038 -0.0070
16996W        W30410  12.015   8.768  11.468  0.0048  0.1531  0.0096
16997W        W30411   7.373  12.139  13.629 -0.0194  0.0912 -0.0696
16998W        W30412   4.172   3.952  12.258 -0.0724 -0.1649  0.1668
16999W        W30413   3.978   8.039  15.813  0.1343  0.0375  0.0275
17000W        W30414   5.036   6.252  13.906  0.1530  0.0141 -0.0696
17001W        W30415  13.173   5.387   3.157 -0.1611 -0.0124 -0.2013
17002W        W30416   9.496  11.915   3.916 -0.1081 -0.2273  0.0417
17003W        W30417   0.093   0.815  11.572 -0.3202  0.0744 -0.1131
17004W        W30418  13.401   5.020  14.336 -0.1378  0.0958  0.1539
17005W        W30419  12.230   3.017   1.901 -0.2811  0.2147 -0.0416
17006W        W30420   2.990   3.942   4.455  0.0451  0.1587 -0.0427
17007W        W30421  11.874   0.093   0.929  0.4566 -0.1333  0.0159
17008W        W30422   7.082  13.234   5.392 -0.1160  0.1982  0.0140
17009W        W30423   8.829   3.874   0.980  0.0077 -0.3601  0.0930
17010W        W30424   6.575   0.498   1.729 -0.0419  0.1146 -0.0446
17011W        W30425  15.569  10.356  11.697  0.0303  0.1770 -0.0682
17012W        W30426   8.726  13.250   1.809  0.2131  0.2066 -0.1656
17013W        W30427  12.460  12.457  12.918 -0.0447 -0.1079 -0.0634
17014W        W30428  14.539  16.152   2.530 -0.0512 -0.3591  0.2861
17015W        W30429  13.506  14.781  16.661  0.0537  0.0634  0.0149
17016W        W30430  12.804  11.839   2.899  0.0890 -0.1120  0.0225
17017W        W30431  13.415   4.118   4.852 -0.0582  0.0216 -0.2605
17018W        W30432   5.824   1.374  12.689 -0.3344 -0.0516 -0.0235
17019W        W30433   8.774   5.329   0.790  0.2558  0.0189 -0.2082
17020W        W30434   6.561  11.851   6.359 -0.0271 -0.0950  0.1102
17021W        W30435  14.518  16.903   4.243  0.0853  0.1820  0.0260
17022W        W30436   0.049   0.421  13.550  0.0589 -0.0129 -0.1228
17023W        W30437   3.695  17.202   0.332  0.2195 -0.1561  0.3009
17024W        W30438   4.425  13.581   3.640 -0.0623 -0.1501 -0.0446
17025W        W30439   2.282  16.834  15.954  0.0417  0.0502  0.0461
17026W        W30440  12.121  11.864   5.538 -0.0046  0.2605  0.1411
17027W        W30441   2.437   2.309   2.234  0.0474 -0.0180  0.1671
17028W        W30442  11.613  13.658   6.470  0.2847  0.0038 -0.2668
17029W        W30443   8.693   4.440   4.629  0.0939  0.1213  0.0015
17030W        W30444  15.273   7.867  12.097  0.1276 -0.0298 -0.0861
17031W        W30445  14.697  12.317  13.585 -0.2881  0.1014 -0.0240
17032W        W30446   9.528   6.436   1.180  0.3962  0.3185  0.0825
17033W        W30447  12.531  11.172  16.648  0.1925  0.2905 -0.0958
17034W        W30448  16.499  17.484  11.903 -0.1275  0.2509  0.1942
17035W        W30449   9.992  15.569  15.652  0.0439  0.2679  0.0929
17036W        W30450  15.495   4.981   2.120  0.1935  0.0469 -0.1650
17037W        W30451  14.817   9.737   6.031  0.0158 -0.2758 -0.0869
17038W        W30452  16.175   2.162  10.549  0.0166 -0.1527  0.1881
17039W        W30453   4.182   6.962  16.336 -0.1766  0.4497  0.1550
17040W        W30454   8.126   6.776   5.351 -0.2170  0.3144  0.0565
17041W        W30455  15.742  17.152   1.581  0.0113 -0.0813  0.2815
17042W        W30456  17.609   4.469  10.793 -0.1039 -0.1582  0.1457
17043W        W30457  14.172  15.301   2.631  0.0462 -0.0629 -0.0354
17044W        W30458   2.354  10.752  14.732  0.1998  0.1352 -0.1708
17045W        W30459  12.867  15.247   2.235  0.0715  0.1223 -0.1813
17046W        W30460   5.219  17.591  13.291 -0.5070 -0.1115 -0.2182
17047W        W30461  11.543  15.453  16.068  0.0011  0.0420 -0.3591
17048W        W30462   5.628  15.252   1.796  0.3007 -0.2622 -0.1804
17049W        W30463  15.999  10.436   1.883  0.0749  0.1528  0.0753
17050W        W30464   3.239   5.732   2.320 -0.1508 -0.1331  0.0757
17051W        W30465   6.568   3.758  10.414 -0.1650  0.2645 -0.0149
17052W        W30466  16.197  15.847  13.750  0.2024  0.0836  0.0204
17053W        W30467   7.235  12.528   4.982 -0.4798 -0.0422  0.2070
17054W        W30468   6.262   0.511   2.659  0.0621 -0.0146  0.2968
17055W        W30469  15.315  14.521  12.946  0.1467 -0.1428  0.2824
17056W        W30470   4.647   4.852   2.902 -0.0484  0.2343 -0.0212
17057W        W30471  11.934   9.288   3.975 -0.2446  0.0633 -0.1352
17058W        W30472  17.928   7.867  15.010 -0.0671 -0.0112 -0.1961
17059W        W30473   2.307   4.510  12.907 -0.1244  0.1884 -0.3304
17060W        W30474  17.482   2.507   1.647  0.1750 -0.0819 -0.3389
17061W        W30475  11.928  13.489  13.805 -0.1896 -0.1668  0.4091
17062W        W30476   7.841   1.739  15.359 -0.1521  0.1233 -0.2306
17063W        W30477   4.399  13.248   5.035 -0.0805 -0.1413 -0.2024
17064W        W30478  15.590   9.150   2.319 -0.0476 -0.0497  0.0262
17065W        W30479   7.045   1.631   3.379  0.0336 -0.0414 -0.1001
17066W        W30480  17.441  16.879  14.950 -0.0559 -0.1246  0.3112
17067W        W30481   8.587   6.079  15.074 -0.1069 -0.4344 -0.2159
17068W        W30482  14.797   5.027   1.333  0.1400  0.1614  0.1666
17069W        W30483  12.405  12.276   5.409 -0.0364 -0.0284  0.0533
17070W        W30484  17.068   8.446  16.634  0.0926  0.2435 -0.0911
17071W        W30485   4.943   4.026   1.117  0.1316  0.3386 -0.0301
17072W        W30486  16.693   9.950  14.162  0.3210 -0.1702  0.0622
17073W        W30487  13.836   5.858  11.119  0.1976 -0.0150  0.3001
17074W        W30488   4.303  16.660   5.351 -0.2097  0.0537 -0.0485
17075W        W30489  14.448   9.979   2.684  0.0812  0.2721 -0.3364
17076W        W30490  17.397   0.885   0.556  0.2612  0.1075  0.1906
17077W        W30491  10.077   8.566  11.567  0.2330  0.1932  0.0567
17078W        W30492  17.652   2.640   4.471  0.1202 -0.2656 -0.1265
17079W        W30493   9.253   2.703   5.406  0.1407  0.1607 -0.2226
17080W        W30494   6.352  13.807  15.395  0.0503 -0.0405  0.1855
17081W        W30495  16.196  17.769  12.152  0.3349 -0.0045 -0.3529
17082W        W30496   6.991   0.663  10.789 -0.3169 -0.0408  0.0119
17083W        W30497   4.178  17.885  11.053 -0.3834  0.1314  0.1681
17084W        W30498  15.418   9.005  11.792 -0.0660 -0.2723  0.1475
17085W        W30499   0.945  11.469   0.353 -0.1183  0.2197 -0.0324
17086W        W30500  11.444  11.388  15.888 -0.1105 -0.1301 -0.2097
17087W        W30501  15.140   4.511   3.297 -0.1498 -0.0236  0.0643
17088W        W30502   9.383  11.103   2.391  0.0778 -0.2268 -0.0020
17089W        W30503   7.090   4.944   1.916  0.0066  0.2382 -0.0224
17090W        W30504  10.383  12.112   1.514 -0.0630 -0.1413  0.0891
17091W        W30505  12.777  14.617  15.185  0.0929  0.3593 -0.1678
17092W        W30506  10.493   0.510   3.500 -0.0739  0.3077  0.0208
17093W        W30507   5.732   0.613   0.019  0.0033  0.0412 -0.1138
17094W        W30508  16.582   2.060  12.372 -0.2785  0.0838 -0.2119
17095W        W30509  11.455  17.247   4.943 -0.0676 -0.2114 -0.1208
17096W        W30510  12.743   1.668   5.586  0.3304 -0.1117 -0.1667
17097W        W30511  15.866   8.672   3.491  0.0429 -0.2119 -0.0019
17098W        W30512   7.567   2.301   3.444 -0.3132  0.1240 -0.1942
17099W        W30513  10.825  12.166  14.148 -0.1466  0.0733 -0.2220
17100W        W30514   3.571   2.430   2.316  0.3199  0.2107  0.3296
17101W        W30515   9.455   4.588  13.725 -0.1186 -0.1958 -0.0476
17102W        W30516   0.963   1.801  16.088 -0.0462  0.2381 -0.0401
17103W        W30517   9.532  10.174   0.383  0.0086  0.0550  0.0247
17104W        W30518  13.569  17.934   4.977 -0.0612  0.3741 -0.1911
17105W        W30519   0.041   6.430  13.809  0.6002  0.1576 -0.1182
17106W        W30520   3.335  12.605  16.089  0.0037  0.1606 -0.0060
17107W        W30521  15.229   1.005  13.711 -0.1883 -0.2477  0.0802
17108W        W30522   5.974  16.597   3.420 -0.0598 -0.0566 -0.1254
17109W        W30523   0.034   1.724  16.096  0.3170  0.0975  0.0759
17110W        W30524   9.477   5.287   3.553 -0.1140 -0.0109  0.0799
17111W        W30525  13.210   7.451  16.740  0.0649  0.1978  0.1097
17112W        W30526  10.900  14.941   2.295  0.0382 -0.2651  0.0829
17113W        W30527   5.420   1.057  15.647  0.0794 -0.3747  0.2183
17114W        W30528   4.335  15.726   1.157 -0.2523  0.1996 -0.0014
17115W        W30529   6.007  16.918   4.884  0.1917  0.1582  0.1437
17116W        W30530   0.168  13.977   3.389  0.1935 -0.1672  0.1696
17117W        W30531  17.385   9.603  13.324 -0.1249  0.4325 -0.2042
17118W        W30532   1.468  13.197  15.482 -0.0069 -0.1076  0.0926
17119W        W30533  11.363   2.922   5.544  0.0243  0.0252  0.0044
17120W        W30534  10.868   0.422   6.125  0.0117 -0.0783  0.0670
17121W        W30535   7.643  10.304   0.536  0.0221 -0.3006 -0.0975
17122W        W30536  13.344  11.379   4.074 -0.0107  0.1825 -0.1135
17123W        W30537  12.952   1.068   1.419  0.0804  0.2096 -0.1578
17124W        W30538  16.167   6.779   5.086 -0.0170  0.2664  0.2180
17125W        W30539   3.042  10.043  14.461  0.1145 -0.1465  0.0188
17126W        W30540  17.940   3.171   1.076 -0.0920  0.1229  0.3959
17127W        W30541   9.778   4.935  13.646 -0.0890 -0.0944  0.0113
17128W        W30542   7.335   2.602   1.764 -0.1837 -0.1104 -0.0244
17129W        W30543  15.126  10.182  11.603  0.0803  0.1505  0.2483
17130W        W30544   4.334  17.319   4.226  0.0135  0.0341  0.1126
17131W        W30545   7.284  13.626   1.100 -0.0130  0.2182  0.1279
17132W        W30546   1.918   6.540  11.031 -0.1078 -0.0605  0.0358
17133W        W30547   0.148   6.901   1.379 -0.0466 -0.1685  0.0141
17134W        W30548  15.459   5.224   4.186  0.2319  0.0298 -0.0986
17135W        W30549  14.873  11.145  15.844 -0.1041  0.1640  0.1533
17136W        W30550  13.961  16.401   5.628 -0.1647  0.0797 -0.2529
17137W        W30551  12.308  12.704  15.354 -0.1940  0.1037 -0.1551
17138W        W30552   8.991  15.664  14.717  0.0049  0.0613  0.1292
17139W        W30553  15.977  10.984   4.448  0.0096  0.0537 -0.1007
17140W        W30554  12.732  10.402   1.566 -0.3317  0.1991 -0.1187
17141W        W30555   9.386  14.760   0.003 -0.1424  0.1010  0.1630
17142W        W30556   4.368  11.013   5.649  0.1368  0.1557  0.1460
17143W        W30557  11.387  12.694   0.295 -0.0338  0.0937  0.2792
17144W        W30558   6.327  13.637   2.845  0.0538 -0.2417  0.1430
17145W        W30559  14.617   3.002  14.155  0.0045  0.0702  0.0265
17146W        W30560   0.689   4.743  13.683 -0.2966  0.0846 -0.2430
17147W        W30561   0.084   9.842   2.282  0.2509  0.1050 -0.0708
17148W        W30562   3.638   7.559   1.158 -0.1509 -0.1373  0.0442
17149W        W30563   7.616   1.492  14.069 -0.0263  0.2888  0.2153
17150W        W30564  15.817   7.950   0.878  0.2113  0.1293 -0.3292
17151W        W30565   9.357  15.425   0.845  0.2414  0.2266  0.2853
17152W        W30566  15.341   2.222   1.386 -0.4713 -0.0915 -0.1168
17153W        W30567  16.174   7.156  16.522  0.0636  0.0060 -0.3566
17154W        W30568  10.143  10.849  14.367  0.1688  0.1982 -0.2206
17155W        W30569  17.894   9.852  15.457  0.0506 -0.0586 -0.3895
17156W        W30570  17.834   5.223   4.759 -0.2994  0.1313  0.0760
17157W        W30571   9.171   7.384   1.146 -0.1716 -0.1283  0.1361
17158W        W30572  16.033  12.490  15.860 -0.1171 -0.1987  0.2313
17159W        W30573   8.664  12.243   1.236  0.2110 -0.1195  0.0841
17160W        W30574   5.093   7.337   5.828  0.0728 -0.1651 -0.1919
17161W        W30575   6.620   3.506  13.924  0.1241 -0.2400 -0.0579
17162W        W30576   0.505  15.947   4.034 -0.0593  0.0074  0.2172
17163W        W30577   4.546   8.039  15.784 -0.2237  0.0172  0.0199
17164W        W30578  15.890   6.549   1.153  0.0146 -0.0426  0.0544
17165W        W30579  15.812  11.703   1.331  0.0114  0.2761 -0.0161
17166W        W30580   7.781  12.288  16.079 -0.0845 -0.1036  0.3583
17167W        W30581   9.477  15.385   3.698 -0.1734  0.2242 -0.0511
17168W        W30582  17.250   0.083   1.866 -0.0808  0.0443 -0.0850
17169W        W30583   6.150  15.925   1.613 -0.3193 -0.3194 -0.2718
17170W        W30584  10.723   6.481  15.233 -0.1207  0.0371  0.1270
17171W        W30585  17.747  11.988  15.847  0.2858  0.0018 -0.0454
17172W        W30586   8.579  11.110   4.475 -0.1052 -0.2359 -0.2107
17173W        W30587  16.574   3.109   2.973 -0.2624  0.2564 -0.1603
17174W        W30588  10.238  12.429   6.774  0.0222 -0.1018 -0.0116
17175W        W30589   9.900   2.785   4.014 -0.0358  0.1078  0.1142
17176W        W30590   8.052   3.968   5.173 -0.1009 -0.0371 -0.2777
17177W        W30591   6.823   2.478   1.479  0.2364  0.1472 -0.0472
17178W        W30592   0.647   9.045   0.805 -0.1493 -0.0049 -0.2243
17179W        W30593   7.963   4.473   3.557 -0.0998  0.1211  0.1521
17180W        W30594  17.578   3.021  15.219 -0.2220  0.0081 -0.0593
17181W        W30595   9.636  15.267   1.213 -0.0178  0.3610 -0.0203
17182W        W30596  14.378   5.609  11.037  0.0323  0.4514 -0.0334
17183W        W30597   2.581  11.410   9.967  0.0128  0.1590 -0.2014
17184W        W30598  16.876   5.205  11.712 -0.1981 -0.0906  0.1155
17185W        W30599  14.488   1.881   1.098 -0.0545  0.1895  0.3460
17186W        W30600  10.580  17.144   3.056  0.0785  0.1915  0.1269
17187W        W30601   6.835   4.694  10.926 -0.1286  0.1306  0.1179
17188W        W30602   3.197  14.845   0.176 -0.2620  0.2000 -0.0731
17189W        W30603  17.815   7.750   2.528  0.0382  0.0994  0.1707
17190W        W30604  12.228   7.568  11.587 -0.4001  0.2223 -0.0279
17191W        W30605   8.589  11.482  11.641 -0.1259  0.0642 -0.1637
17192W        W30606   9.625  11.427   0.427 -0.0257  0.0031  0.3152
17193W        W30607  13.744  10.719  12.610 -0.0522  0.4313  0.0910
17194W        W30608  16.354  17.039   1.549 -0.1590 -0.0496 -0.1186
17195W        W30609   1.006  13.319   1.161  0.0500 -0.2594 -0.1508
17196W        W30610   3.811   6.667  11.564  0.3610  0.3351 -0.0448
17197W        W30611   1.413  12.553  13.951  0.0421  0.0335 -0.2534
17198W        W30612  12.562   1.495  16.135 -0.1539  0.2108  0.0988
17199W        W30613  13.723   6.081  14.352  0.0427 -0.2382 -0.0227
17200W        W30614  16.679   4.144  14.283  0.3323  0.0151  0.0570
17201W        W30615   8.753   8.960  13.106  0.0530  0.0612 -0.1856
17202W        W30616   8.184   4.103   4.734 -0.0632 -0.4180 -0.0621
17203W        W30617   9.327  11.493   5.015  0.2770  0.2403  0.3329
17204W        W30618   1.274  11.772   0.588  0.1017 -0.1603 -0.1080
17205W        W30619  10.613   5.976   5.348  0.1267 -0.0183  0.1642
17206W        W30620  12.226   6.040   0.342  0.1654 -0.1657  0.0343
17207W        W30621   0.116  10.464   6.021 -0.1256 -0.1266 -0.0072
17208W        W30622  17.925   9.507  12.308 -0.1140  0.0417 -0.1361
17209W        W30623  15.504   9.430  12.352  0.2034  0.2791 -0.0087
17210W        W30624   6.958  17.017  16.024  0.1372 -0.0752 -0.2105
17211W        W30625  12.614  16.174  13.207  0.0112  0.2502 -0.0512
17212W        W30626  10.394   8.357  13.534 -0.2613 -0.1948  0.0772
17213W        W30627   4.324   8.687   2.057 -0.0865  0.2822  0.2291
17214W        W30628  15.318   0.142  14.113 -0.0577  0.0263 -0.0174
17215W        W30629   8.964  10.557  12.860 -0.1601 -0.0891 -0.1010
17216W        W30630   6.375  11.622   1.127 -0.2640  0.2936  0.0792
17217W        W30631   8.108  13.469   0.019  0.0710 -0.0535  0.1297
17218W        W30632  11.167   8.102  13.391 -0.0314  0.0590  0.0846
17219W        W30633   7.057  16.270  12.130  0.0487 -0.0057  0.4913
17220W        W30634   1.530   0.177   4.578  0.1342  0.2729 -0.0545
17221W        W30635  13.834  17.426  16.087 -0.0980  0.1423 -0.0979
17222W        W30636   0.972  14.772   1.012  0.1903  0.1427 -0.3797
17223W        W30637  15.150   6.301   1.830  0.3865 -0.1355  0.1947
17224W        W30638   7.694   2.629   2.129 -0.0087  0.3769 -0.1268
17225W        W30639   5.958   7.091   0.784 -0.1501 -0.0963  0.1845
17226W        W30640  14.635   9.431   1.498 -0.2213  0.0604  0.2177
17227W        W30641   9.570  13.831   1.819  0.0636  0.1551 -0.2143
17228W        W30642   3.054   9.209  14.083 -0.0930 -0.0237 -0.1901
17229W        W30643   3.694   6.291   0.606 -0.1974  0.4557 -0.0878
17230W        W30644  14.160  11.204   2.440  0.2548 -0.3896  0.1842
17231W        W30645  17.733   6.811   0.191 -0.2875  0.0190  0.4026
17232W        W30646  17.423   0.782  14.789  0.0500 -0.3511 -0.1339
17233W        W30647   2.305   3.493   9.928 -0.1919 -0.0385  0.1031
17234W        W30648   2.779   8.239   6.338  0.2423 -0.0147  0.1229
17235W        W30649   0.156   6.566   2.533 -0.0910  0.1054  0.1199
17236W        W30650  11.238   8.735  13.922  0.0664  0.2031 -0.0111
17237W        W30651   3.546  12.452  10.201  0.1154  0.1664  0.1638
17238W        W30652  10.454   2.712   3.479  0.2851  0.1024  0.0371
17239W        W30653  14.565   5.713   2.168 -0.3885 -0.0859  0.2520
17240W        W30654   7.058   2.038   4.870  0.0820 -0.0374 -0.0671
17241W        W30655  17.650   9.616   0.023 -0.2730 -0.1147 -0.1115
17242W        W30656  13.383   9.061   4.271  0.0859 -0.0548 -0.0889
17243W        W30657   4.612   9.440  11.415  0.0875 -0.0078 -0.1746
17244W        W30658  13.821   6.064   0.197  0.1181 -0.0647 -0.2416
17245W        W30659  10.662  11.757   5.184  0.1111 -0.0663 -0.2116
17246W        W30660  11.890   4.603  12.908  0.0850  0.1737  0.0278
17247W        W30661   6.972  14.342   2.581 -0.1680  0.0662  0.1550
17248W        W30662   7.486   1.987   4.021  0.2049 -0.0984 -0.1392
17249W        W30663  12.890  14.740   0.088 -0.1224 -0.1031 -0.5732
17250W        W30664  13.341  11.658  16.471  0.1242 -0.1055  0.1680
17251W        W30665  15.606  15.633  16.633  0.0985  0.1242 -0.0532
17252W        W30666   2.196   2.928   4.624 -0.0038  0.4050 -0.0198
17253W        W30667   9.990   2.147  15.478  0.2376  0.0815  0.3365
17254W        W30668  15.412   9.884   3.601 -0.1918  0.4055 -0.0121
17255W        W30669   5.436   6.199   2.730  0.1237 -0.2151 -0.1235
17256W        W30670   4.607   7.140   1.177 -0.2058  0.1811  0.2218
17257W        W30671  12.814   4.197  15.591 -0.0628 -0.0558 -0.1522
17258W        W30672  11.711  10.175  14.403 -0.3092 -0.1608 -0.0862
17259W        W30673   4.922  11.468   2.170 -0.0308 -0.0874 -0.1175
17260W        W30674  14.991   4.389   0.676  0.0058  0.2135 -0.1062
17261W        W30675   0.329  13.323  14.136 -0.0515 -0.0003 -0.0349
17262W        W30676  10.359   7.760   0.643 -0.0654 -0.2318  0.1327
17263W        W30677  16.121  10.204  16.417  0.0094 -0.0888  0.0416
17264W        W30678   3.579   0.300  13.530 -0.0456 -0.1927  0.0672
17265W        W30679  15.612  10.813   1.181 -0.2183 -0.1035  0.3968
17266W        W30680  15.979   2.006   1.745 -0.1931 -0.0501  0.1793
17267W        W30681  14.050   9.235   1.762 -0.0991  0.1562  0.0845
17268W        W30682  14.318  11.814   6.430 -0.1988  0.0386 -0.4087
17269W        W30683  11.556   9.627   5.695 -0.0737  0.2245 -0.1940
17270W        W30684  14.871  14.221  12.780  0.1555  0.0396  0.0693
17271W        W30685  15.418   9.031   5.107  0.1169 -0.2287  0.0243
17272W        W30686  16.756   5.914  12.061  0.0422  0.0422 -0.1129
17273W        W30687  10.869  16.169   2.668 -0.0130  0.0171  0.1222
17274W        W30688  17.948   0.527   1.795  0.3674 -0.1574  0.0644
17275W        W30689  12.753  15.678  13.103 -0.1383  0.3341  0.3199
17276W        W30690  17.946   2.248   4.292  0.3160 -0.0058 -0.1853
17277W        W30691   9.620   4.111   0.146 -0.0293 -0.1076 -0.0769
17278W        W30692  11.388   4.478  10.371 -0.2459 -0.2458  0.1199
17279W        W30693  15.503   8.768   5.909 -0.1193  0.0443  0.3073
17280W        W30694  11.410  14.044  11.769 -0.1489 -0.1999  0.1545
17281W        W30695  16.616  16.562  12.319 -0.0308 -0.2167 -0.1912
17282W        W30696  16.050  14.072  16.516 -0.2502 -0.5723  0.0571
17283W        W30697  13.534   1.991   0.011 -0.0825  0.0554 -0.0329
17284W        W30698   3.272   5.989   1.418 -0.0463  0.3114 -0.0076
17285W        W30699   0.405   8.489  14.213 -0.2347  0.0468 -0.3099
17286W        W30700  16.342  17.726   0.968 -0.0493  0.0019  0.0887
17287W        W30701   5.373  14.420   4.963  0.1976  0.2954 -0.1217
17288W        W30702   2.092  17.118   5.203 -0.2697  0.2416  0.0179
17289W        W30703   6.704   7.913  10.953  0.0533  0.0601 -0.1817
17290W        W30704   1.145   9.753  13.410 -0.0110 -0.0340 -0.0461
17291W        W30705  14.633   4.884  10.563 -0.0369 -0.0860  0.0147
17292W        W30706   8.161  15.032   5.622 -0.1904 -0.1507 -0.0299
17293W        W30707  12.104   0.602  15.069 -0.1999 -0.1143 -0.0226
17294W        W30708   7.554  15.250  13.952  0.2599 -0.0729  0.1248
17295W        W30709  14.272  15.271  14.377 -0.1168  0.1327  0.0341
17296W        W30710  15.623  16.012  15.454  0.0273  0.2891 -0.1197
17297W        W30711   6.143   7.942  13.105 -0.2487  0.0037  0.2201
17298W        W30712   6.137   1.637  13.027 -0.1652  0.1519 -0.3807
17299W        W30713   5.299   6.665  16.528 -0.0594 -0.2012 -0.1422
17300W        W30714   4.100   5.718   5.414  0.0725 -0.0472  0.1391
17301W        W30715   7.422  15.468  11.128  0.0532  0.3456 -0.2829
17302W        W30716  13.569   7.318   1.324  0.1513 -0.0378 -0.0304
17303W        W30717  15.259  14.556  16.233 -0.0803 -0.0152 -0.0891
17304W        W30718   1.019   0.740   4.062  0.1365 -0.1694 -0.0692
17305W        W30719   0.110  16.977   0.217 -0.1666  0.0705 -0.3377
17306W        W30720  17.161  12.850  13.500 -0.1924 -0.0616  0.1084
17307W        W30721   4.373  13.450  11.539  0.1660 -0.2037 -0.1028
17308W        W30722   3.748   1.218   0.139 -0.0033 -0.1120 -0.1310
17309W        W30723   8.000  12.621  12.418 -0.0696  0.0080 -0.1476
17310W        W30724  13.158   9.782  12.599 -0.1186 -0.1831 -0.1378
17311W        W30725   9.877   8.601   2.494 -0.0141  0.1309  0.0119
17312W        W30726   6.397  15.337   4.473  0.0469 -0.0631 -0.0656
17313W        W30727   7.263   4.100  16.005  0.0791 -0.0310  0.3717
17314W        W30728  14.418  12.180   3.548  0.1965  0.1277  0.0562
17315W        W30729  16.229  10.309   0.946  0.3969  0.0797  0.2314
17316W        W30730  13.447  15.835   5.314 -0.0593 -0.1855  0.0032
17317W        W30731   5.211   9.269   0.015  0.1187 -0.1512 -0.4371
17318W        W30732   7.308  15.862   4.160  0.2529  0.1119  0.1302
17319W        W30733   9.396   2.408  15.569 -0.0721 -0.1310 -0.3492
17320W        W30734  14.465   4.283  12.013  0.2228 -0.0022 -0.0244
17321W        W30735   4.018  15.566  14.435  0.1242  0.0333 -0.0668
17322W        W30736   6.327   7.702  14.809 -0.1594  0.2796  0.0053
17323W        W30737  11.569   4.789   3.607  0.4167  0.2212  0.0020
17324W        W30738  12.405  10.414  10.931 -0.1123 -0.0373 -0.0104
17325W        W30739  15.832  11.366   4.071  0.1774 -0.1250 -0.2511
17326W        W30740  17.442  16.095   1.522 -0.2713 -0.3189  0.2235
17327W        W30741  12.359   8.062  12.459 -0.2038  0.0148 -0.2537
17328W        W30742   8.127   4.373  11.595 -0.0985  0.1893  0.3058
17329W        W30743  17.025   6.513  16.699  0.0405  0.2044  0.0697
17330W        W30744   4.726  10.521  15.493 -0.3413 -0.0901  0.0664
17331W        W30745  11.179   6.011  14.473 -0.0324 -0.0591 -0.0802
17332W        W30746  13.440  13.384   3.387 -0.2848  0.1842  0.1207
17333W        W30747   7.654   9.325   6.306  0.2108 -0.0498 -0.2006
17334W        W30748  15.493  13.985   2.797  0.0568 -0.0902 -0.0107
17335W        W30749   2.627  14.979   3.526 -0.0400  0.0281  0.0919
17336W        W30750  16.985   0.908   4.597 -0.3320 -0.2648  0.0091
17337W        W30751   5.003   1.330   3.693  0.3652  0.2036 -0.3031
17338W        W30752   9.484  12.037   0.200 -0.0183  0.0520  0.1828
17339W        W30753  16.072  10.478  14.102  0.0203 -0.0306  0.0784
17340W        W30754  12.392  11.745   3.204  0.1752 -0.0201 -0.0054
17341W        W30755   5.559   5.113   4.949 -0.1582  0.1613  0.2892
17342W        W30756  17.423  11.859   5.950  0.0321 -0.0206  0.1104
17343W        W30757   2.964   1.202  12.095 -0.1788 -0.2413  0.1127
17344W        W30758   4.289  14.550   2.500  0.1033  0.2071 -0.1239
17345W        W30759  11.727   3.903  15.906  0.1807  0.0440  0.1385
17346W        W30760   8.532   5.654   0.245 -0.0370 -0.0999  0.0398
17347W        W30761  15.717   5.339  13.127  0.3032 -0.0932  0.1652
17348W        W30762   4.873  14.330  10.608  0.2278 -0.0906  0.0797
17349W        W30763   3.195  15.182  15.613  0.1267  0.1061 -0.1767
17350W        W30764  17.460   6.707  16.593 -0.4057 -0.0381  0.1420
17351W        W30765   8.587  13.016  11.908  0.0226 -0.3603  0.0729
17352W        W30766   3.151   5.734   2.868 -0.1314  0.3596 -0.1715
17353W        W30767   5.806  10.946  14.566  0.2923 -0.6055 -0.3350
17354W        W30768  13.141  10.433  13.343  0.1390  0.0599 -0.1366
17355W        W30769   0.064   7.425  16.514  0.0620 -0.0891 -0.0928
17356W        W30770  14.220  13.600   6.476 -0.2775 -0.0503  0.1899
17357W        W30771  12.521   5.170   4.579 -0.1329 -0.0456  0.1001
17358W        W30772   6.835  11.839  14.318 -0.3610 -0.1696 -0.1035
17359W        W30773  11.498   4.655   4.603 -0.0842  0.1451  0.0985
17360W        W30774  13.564   4.066  13.105  0.2454 -0.3590  0.0123
17361W        W30775  11.441  15.831   0.350  0.2633 -0.0302 -0.0037
17362W        W30776   1.749   2.838   4.794 -0.2725 -0.0565  0.1700
17363W        W30777   9.672  13.485   4.635 -0.0629  0.1081  0.0783
17364W        W30778  15.242  15.059   5.315 -0.0306 -0.0257 -0.0702
17365W        W30779  14.944   7.318  13.443  0.1196 -0.2276  0.2982
17366W        W30780   2.936   3.160  11.144 -0.1321 -0.1928 -0.0869
17367W        W30781  17.587  17.153  11.098  0.2573 -0.1589  0.0695
17368W        W30782   5.268  16.936   5.322 -0.1174  0.2082 -0.2269
17369W        W30783  11.734   3.348   3.923 -0.0360 -0.1022  0.2261
17370W        W30784   2.306   3.975   6.154 -0.0805 -0.0502 -0.3513
17371W        W30785   1.823   3.857   0.211 -0.2388 -0.1396 -0.1712
17372W        W30786   7.654  14.075   1.348  0.1621  0.0515 -0.0443
17373W        W30787  15.847  11.334   5.108  0.4762  0.1793 -0.0653
17374W        W30788   6.826  14.898   1.927 -0.0130  0.1950  0.0344
17375W        W30789   8.173  16.170   5.355 -0.0093 -0.3246 -0.2912
17376W        W30790  17.151  11.434  16.613 -0.0704 -0.0186 -0.1031
17377W        W30791  10.553   1.763   0.036  0.1645 -0.0029  0.2994
17378W        W30792   2.147  12.602   0.138  0.1434  0.1928  0.2666
17379W        W30793  10.989   6.566   3.536 -0.2084 -0.0895 -0.0230
17380W        W30794   1.365  14.823   2.971 -0.1016  0.1949 -0.0559
17381W        W30795   2.647  12.571   4.048 -0.2998 -0.0507  0.1535
17382W        W30796   2.326  16.827   0.002  0.1179  0.2924  0.0808
17383W        W30797  11.485  14.567  15.703  0.2261  0.3957 -0.1277
17384W        W30798  17.785  10.201   1.157 -0.1867 -0.5455 -0.1321
17385W        W30799  14.796  15.709  14.979 -0.0369  0.1911  0.1901
17386W        W30800  11.018   8.178  15.165  0.2282  0.2840 -0.0311
17387W        W30801   6.223  15.192  14.659  0.0493 -0.2444 -0.1215
17388W        W30802   2.075   1.987   2.323  0.1675 -0.1792  0.0386
17389W        W30803  14.545   8.090   1.678  0.1792  0.0282  0.0572
17390W        W30804   4.229  13.806   9.836 -0.2054 -0.1629  0.1601
17391W        W30805  14.494  17.588   5.327  0.1042 -0.2665  0.2531
17392W        W30806  14.408  17.228  14.446  0.0700 -0.2080 -0.0161
17393W        W30807  12.597  16.607   0.698  0.3546  0.0183 -0.1967
17394W        W30808   6.660  17.688   2.980 -0.1198 -0.3800  0.0241
17395W        W30809   1.191  17.149  16.670  0.2007  0.0911 -0.2757
17396W        W30810   1.457   1.273   1.606  0.0589 -0.0914 -0.0543
17397W        W30811  13.473   4.616  11.247 -0.0559 -0.2113 -0.0119
17398W        W30812  14.973   6.452  14.833  0.0303 -0.2622  0.0663
17399W        W30813  12.161  17.203  15.386 -0.0466  0.3482 -0.0801
17400W        W30814  14.626   5.152   4.664  0.1352  0.0849 -0.2059
17401W        W30815  12.149  11.699  12.880  0.1116  0.0665 -0.0245
17402W        W30816   6.782   0.865  14.010  0.0770 -0.0181  0.0617
17403W        W30817   0.725   8.008  11.592  0.0514 -0.0724  0.1207
17404W        W30818  10.248   0.312  11.558 -0.2221 -0.0354 -0.0663
17405W        W30819   7.406  13.885  13.224 -0.1423  0.0405  0.1022
17406W        W30820  13.735  11.996   2.666 -0.3449 -0.1562 -0.0599
17407W        W30821   8.397  15.989  16.653  0.3513 -0.3272 -0.2683
17408W        W30822   4.736   4.940   5.471  0.3015  0.3609 -0.0797
17409W        W30823   9.739  16.255   0.141  0.0889 -0.0931  0.1838
17410W        W30824  13.091   4.321  16.235  0.1336  0.1156 -0.3096
17411W        W30825   9.810  16.971  14.678 -0.0305  0.1592  0.2149
17412W        W30826   3.328   1.316   3.851  0.2294  0.1064 -0.1254
17413W        W30827   0.290  12.414  11.574 -0.0169  0.0237  0.3025
17414W        W30828   3.738  16.049   4.093  0.0750  0.2782  0.0308
17415W        W30829   5.621   7.732  14.037 -0.1428 -0.1593  0.1105
17416W        W30830   0.422   5.781  15.720  0.1096  0.1765  0.0340
17417W        W30831  12.072   4.271   3.859  0.0499  0.0118  0.2281
17418W        W30832  14.165  11.006  10.934 -0.2266 -0.0444 -0.2931
17419W        W30833  15.922   1.987  13.323 -0.1810 -0.0447  0.1773
17420W        W30834  12.949   9.108  16.037 -0.3331 -0.0230  0.0629
17421W        W30835   3.375   8.960  14.434 -0.0194 -0.1664 -0.0026
17422W        W30836   8.974   2.343   0.468  0.1663  0.1975  0.2630
17423W        W30837  10.353   9.917  16.564 -0.1594 -0.1363  0.0195
17424W        W30838  13.287   4.209  13.502 -0.0476  0.1810  0.0143
17425W        W30839  13.993   6.143  16.194  0.1851 -0.2307 -0.0794
17426W        W30840   4.597   7.079   3.028  0.0432 -0.1321  0.2930
17427W        W30841   5.240   9.720   5.730  0.0066  0.1309  0.0288
17428W        W30842   4.301   8.805   1.051  0.2010  0.2833  0.2973
17429W        W30843   8.607   8.255   2.587  0.2328 -0.2559  0.0238
17430W        W30844   6.582  10.477  14.639  0.1514 -0.0142  0.0362
17431W        W30845  13.782  12.783   4.299  0.0241  0.0887  0.0571
17432W        W30846   1.489   6.649  11.803  0.2018  0.2460  0.0167
17433W        W30847  11.117   4.118   0.825 -0.2635 -0.2352  0.1839
17434W        W30848  15.295   9.551   0.217  0.1316  0.1834  0.1129
17435W        W30849  14.260   1.953   5.500 -0.2179 -0.0340  0.0200
17436W        W30850   8.395   2.379   0.410  0.0540  0.0443 -0.1658
17437W        W30851  14.461  15.423   6.199  0.1337 -0.0505  0.1763
17438W        W30852   5.636   5.672  16.303 -0.0665 -0.2891 -0.0271
17439W        W30853   9.811  12.339   0.666 -0.0730  0.2751  0.0541
17440W        W30854   3.060  10.052  12.154 -0.0978  0.1346  0.0422
17441W        W30855  17.821  15.063   2.450  0.0188 -0.0719  0.1455
17442W        W30856   3.545  14.843   3.156 -0.1412 -0.0274  0.1095
17443W        W30857   3.752   1.376   4.092 -0.0520  0.1059 -0.2970
17444W        W30858   2.374  13.302   3.675  0.1695  0.0473  0.0582
17445W        W30859   2.690   8.090   2.668  0.0143 -0.2468 -0.1304
17446W        W30860   8.349   9.042   6.122  0.0801 -0.0300 -0.0789
17447W        W30861  14.166  17.381  12.948 -0.2768 -0.1078  0.0176
17448W        W30862   9.148   1.870  16.517  0.0445 -0.2142 -0.0485
17449W        W30863  11.207   3.353   4.167  0.1078  0.1767  0.0603
17450W        W30864   3.129   1.583  12.349  0.0297  0.2155  0.1033
17451W        W30865  12.633   8.362   1.194  0.1306  0.0372 -0.0992
17452W        W30866   5.316   8.400   3.402 -0.2448 -0.0013 -0.1736
17453W        W30867  12.623   1.540  15.104  0.2773 -0.1289  0.1042
17454W        W30868  13.203   5.993  13.569  0.1309  0.0301  0.1469
17455W        W30869   9.263  17.285   4.160  0.3775  0.1055  0.0004
17456W        W30870   8.993   3.948  15.575  0.0684 -0.1815 -0.0921
17457W        W30871   9.986  11.989   0.175  0.0041  0.0088  0.1272
17458W        W30872   4.857   2.841   2.770 -0.0225  0.0330  0.2505
17459W        W30873  11.212  14.391  15.108 -0.0181 -0.0955  0.0445
17460W        W30874  16.134  10.785  11.220  0.3380 -0.0193 -0.3236
17461W        W30875  17.084   1.999  12.019  0.1246 -0.0475  0.1763
17462W        W30876  16.987  16.996   5.922 -0.2372  0.0679 -0.1958
17463W        W30877   2.789  10.118  14.912 -0.1676  0.3497  0.0672
17464W        W30878   0.909   8.977   2.561 -0.0490  0.0601 -0.1867
17465W        W30879   8.169   8.494   2.211  0.2700  0.0959 -0.0328
17466W        W30880  16.044   3.874  15.072  0.1617  0.0246 -0.0426
17467W        W30881  15.321   4.050  12.412 -0.1767  0.0846 -0.1391
17468W        W30882  17.497  17.206   3.278 -0.1846  0.2909 -0.0788
17469W        W30883   6.025   2.148  14.382  0.1423 -0.0049 -0.1746
17470W        W30884  10.469  17.872   1.678 -0.2563 -0.3352  0.0313
17471W        W30885   5.430  16.478   6.176 -0.1334  0.0238 -0.1373
17472W        W30886  10.707  15.876   3.370  0.1071 -0.0032 -0.1607
17473W        W30887   0.659   9.186   4.959 -0.1632  0.2753  0.2483
17474W        W30888  10.698   2.773  14.313 -0.2017 -0.0330 -0.2424
17475W        W30889  11.011  16.630  13.306  0.1758  0.0370 -0.2247
17476W        W30890   6.375  12.514  12.010  0.1355 -0.2809 -0.1863
17477W        W30891  10.574  14.569   0.508  0.1535  0.1482  0.0407
17478W        W30892  10.398  15.307  13.400  0.0030  0.0204 -0.0706
17479W        W30893  10.348   5.940   3.201 -0.0767 -0.0625  0.0406
17480W        W30894  17.436  11.826   3.855 -0.2579 -0.0910  0.0455
17481W        W30895   1.619   3.055  12.718  0.1050  0.0402 -0.0159
17482W        W30896  14.429  12.830   4.894  0.2014  0.1580 -0.1030
17483W        W30897   3.585  15.211  11.550  0.3083  0.1551 -0.1874
17484W        W30898   2.172   5.531   0.636  0.2066 -0.1606 -0.1863
17485W        W30899   8.490  14.630  11.512  0.1611 -0.0362 -0.0410
17486W        W30900  12.907  11.133   4.694  0.0063 -0.0218  0.2804
17487W        W30901   3.205  17.864  12.300 -0.0909 -0.1907  0.1516
17488W        W30902   1.947  13.950  12.283  0.0882 -0.2575 -0.2232
17489W        W30903   2.255  11.532  15.664  0.0026 -0.1388 -0.0724
17490W        W30904   6.546   3.563  16.197  0.1206  0.1975 -0.0514
17491W        W30905  11.536  13.413   3.879  0.0597 -0.1520 -0.1284
17492W        W30906   5.038  14.288   3.800 -0.1187 -0.4963  0.0347
17493W        W30907   4.780  12.121  16.503  0.0088 -0.0064  0.2381
17494W        W30908  10.272   2.798  15.555 -0.0486 -0.1197  0.2416
17495W        W30909  16.681   1.019   1.849  0.0355  0.0684 -0.0672
17496W        W30910   6.410  11.507   3.957 -0.2063 -0.2545  0.1199
17497W        W30911  17.205  14.482  15.328  0.1867 -0.2089  0.2691
17498W        W30912  15.541  12.535   3.900 -0.1546  0.1104  0.0802
17499W        W30913  12.862  15.051   5.751  0.1056  0.0289  0.2156
17500W        W30914   5.003   9.771   5.304 -0.0228  0.0836 -0.1186
17501W        W30915  15.083   1.649  10.968  0.2335  0.0439  0.0432
17502W        W30916  13.149   5.284  15.336 -0.0141 -0.1280 -0.1407
17503W        W30917   8.914  11.484   0.802 -0.0557 -0.2135 -0.2119
17504W        W30918   7.457  14.288   5.539  0.1025  0.3716 -0.0029
17505W        W30919   4.720   7.468   1.519  0.0504 -0.0726  0.0756
17506W        W30920  17.128   2.487   5.168  0.1843 -0.1668 -0.1737
17507W        W30921  12.329  16.321  11.594  0.2025  0.1078 -0.1114
17508W        W30922  15.181   6.352   3.387 -0.2224  0.0601  0.1340
17509W        W30923  17.486  17.883  14.907  0.3140  0.1119 -0.2688
17510W        W30924   6.107   9.688   4.164  0.2805 -0.0747  0.0684
17511W        W30925   2.989   2.704   2.424  0.2695  0.0331 -0.1515
17512W        W30926  15.059   1.684   4.016 -0.0117  0.0822  0.0603
17513W        W30927   8.334  10.679  10.986  0.1429  0.0394 -0.0732
17514W        W30928   4.157  16.868  14.188 -0.1322 -0.2768 -0.0214
17515W        W30929  12.095  10.036   1.829 -0.0418 -0.3474 -0.0521
17516W        W30930  10.231  16.938  13.074 -0.0432 -0.0926  0.1686
17517W        W30931   1.501   7.558  11.669 -0.1876  0.2320  0.1121
17518W        W30932   6.444   5.292   5.863  0.1929  0.2032 -0.0283
17519W        W30933  17.932  12.897   5.404  0.3866 -0.2238 -0.0796
17520W        W30934   5.606  11.586  16.278  0.2223 -0.0463 -0.0902
17521W        W30935   3.014   9.745  11.525  0.2185 -0.1935 -0.0135
17522W        W30936   7.113   2.648  11.830  0.2235  0.2352 -0.0669
17523W        W30937  17.148   9.978  14.924  0.3640 -0.0678 -0.3113
17524W        W30938   5.595   6.999   1.214 -0.0074 -0.1486  0.2329
17525W        W30939  11.806   1.782   3.209 -0.1945 -0.0022  0.0436
17526W        W30940   0.883  12.308  13.457  0.0280 -0.3584 -0.1510
17527W        W30941   0.231   8.659   0.851 -0.0024  0.3058  0.2577
17528W        W30942   3.680  13.319  10.385  0.1187  0.2526  0.3248
17529W        W30943  17.396  16.521  14.214 -0.2946  0.1252 -0.2203
17530W        W30944  15.237   4.872   5.481  0.0585 -0.2300 -0.1008
17531W        W30945   8.067   5.913   6.515 -0.0861 -0.2203  0.0624
17532W        W30946  11.724   1.807  10.336 -0.0627  0.0852  0.0283
17533W        W30947   0.365  17.307  12.001 -0.0228  0.1158 -0.0197
17534W        W30948   7.888   9.555  14.720  0.2633 -0.0872 -0.1030
17535W        W30949   3.782  11.219   3.026 -0.1267 -0.2912 -0.0444
17536W        W30950   0.861   9.065  15.905  0.0967 -0.0586 -0.0688
17537W        W30951   3.228  10.608   0.222 -0.2894 -0.1518 -0.0977
17538W        W30952   2.845   6.890  16.738  0.0842  0.1683 -0.1763
17539W        W30953  14.327  17.952  14.901  0.1691  0.4367 -0.0032
17540W        W30954   5.872   5.420  13.466 -0.1390 -0.0679 -0.2971
17541W        W30955  15.309   3.393   2.311 -0.0305 -0.2682 -0.0952
17542W        W30956  14.235   3.286   5.586  0.1291 -0.4475  0.0127
17543W        W30957  14.976   7.052  12.639  0.3136 -0.1206  0.0402
17544W        W30958  14.559   6.978   3.435  0.0957  0.2341 -0.0746
17545W        W30959   9.557  10.149   3.951  0.0591  0.1091 -0.0766
17546W        W30960   7.255  17.520  10.374 -0.1162 -0.1677 -0.0169
17547W        W30961  15.263  17.293   5.394 -0.1668 -0.3536  0.1910
17548W        W30962   6.672   7.859  11.445 -0.2270  0.1353 -0.2283
17549W        W30963   2.961  12.152   4.067 -0.3352  0.1971 -0.3680
17550W        W30964  13.454  13.970   1.780 -0.0084  0.3097  0.2062
17551W        W30965  12.329   7.700   5.272  0.3267 -0.1656  0.1346
17552W        W30966   3.102   8.653  11.691  0.1858 -0.1159 -0.2415
17553W        W30967  11.603  17.738   0.069 -0.2225  0.0569 -0.1324
17554W        W30968   5.313   3.340   1.213  0.0841 -0.1469  0.1743
17555W        W30969  14.256   8.323  11.768 -0.4550 -0.1909 -0.0721
17556W        W30970  11.086   0.375  11.004  0.0034 -0.1860  0.0919
17557W        W30971   9.118   7.514  12.672 -0.2630 -0.1080 -0.1350
17558W        W30972  14.848  13.221  15.235 -0.1957  0.0539 -0.0658
17559W        W30973   6.525  16.169  12.917 -0.0958 -0.3355  0.2195
17560W        W30974   1.194   7.323   0.084  0.2847  0.2631  0.2455
17561W        W30975   5.105   6.718  13.673 -0.2000 -0.1092 -0.2455
17562W        W30976   0.798   2.111  16.503  0.2014 -0.2974  0.0649
17563W        W30977   5.915  17.389   1.256  0.0968 -0.2472 -0.1152
17564W        W30978   0.281   7.357   1.017 -0.0887  0.2266 -0.1176
17565W        W30979   1.997   5.433   5.059  0.2424  0.3297 -0.2115
17566W        W30980   4.322  13.363   4.167  0.0007  0.2458 -0.1696
17567W        W30981  16.661  13.950  14.017  0.3416 -0.3228  0.1532
17568W        W30982   3.252  13.296  14.541  0.0153  0.2123 -0.0108
17569W        W30983  16.328  11.053  12.511  0.1639  0.2042 -0.2278
17570W        W30984   5.040  10.631   2.528 -0.0320 -0.1382 -0.2878
17571W        W30985   6.796  14.298   6.677 -0.0685  0.2398  0.1302
17572W        W30986   0.607   3.281  14.335  0.2519  0.3281  0.1894
17573W        W30987   5.194  17.266  10.287  0.0127 -0.2527 -0.1642
17574W        W30988   5.751   3.471  14.363  0.2637  0.3172  0.2635
17575W        W30989   8.541  14.315   0.033 -0.0621 -0.4625 -0.0225
17576W        W30990   8.081  11.277   2.932  0.1012  0.0385  0.4150
17577W        W30991  16.914   2.904  11.344 -0.1236  0.2158  0.3451
17578W        W30992   5.866  14.803  12.873 -0.0724  0.2979  0.0500
17579W        W30993  15.882  15.851  16.319  0.2108  0.0021 -0.0553
17580W        W30994   3.658   0.445   5.372 -0.1084  0.1845  0.1423
17581W        W30995   0.729  17.024   2.039  0.2006  0.2488 -0.1069
17582W        W30996  11.427   5.547   6.369 -0.1818 -0.2138  0.0848
17583W        W30997   1.591  14.396  10.900  0.0721  0.0793 -0.2271
17584W        W30998   9.076  15.539   2.469 -0.0803  0.0725 -0.1244
17585W        W30999   5.183   0.829   1.915 -0.0112 -0.0727 -0.0008
17586W        W31000   7.782   7.412   1.419 -0.0918  0.1337 -0.1473
17587W        W31001   3.580   1.536  13.610 -0.0069  0.1045  0.1166
17588W        W31002   1.434   2.541   4.044 -0.0709 -0.0255 -0.0360
17589W        W31003   7.788   5.970   5.095  0.4075  0.1457 -0.0062
17590W        W31004   7.317  15.928  13.328 -0.0751  0.0435 -0.1641
17591W        W31005  15.488   1.298  16.018 -0.1233 -0.1358  0.1590
17592W        W31006   8.510  12.632   5.243 -0.2297 -0.2346  0.0592
17593W        W31007   0.736  16.098  12.087  0.1012  0.1380  0.1387
17594W        W31008  14.226   7.347  11.532 -0.0159 -0.0846 -0.1247
17595W        W31009   1.077  16.902   0.363 -0.1764 -0.0774 -0.1458
17596W        W31010   6.041  13.755   2.461  0.0443  0.2448  0.1733
17597W        W31011   4.232   5.909  13.150 -0.1025  0.2006  0.1195
17598W        W31012   1.228   6.179  15.314  0.0445  0.1293  0.1227
17599W        W31013   1.768   2.815   4.304  0.0246 -0.0765 -0.0828
17600W        W31014  13.920  13.754   6.028  0.0005 -0.0340  0.0790
17601W        W31015   4.269   3.034   1.097 -0.0083  0.0074 -0.3850
17602W        W31016   1.025   0.567  12.551  0.0257  0.4249  0.0638
17603W        W31017  17.553   8.755   5.561  0.1331 -0.1391  0.0484
17604W        W31018   9.919  10.438  11.453  0.1866  0.4305  0.3005
17605W        W31019   9.490  15.451  15.796 -0.0780  0.1244  0.0119
17606W        W31020  13.988  16.227   2.384  0.0134 -0.0642 -0.2142
17607W        W31021  14.328   1.359  13.179  0.0518  0.1722  0.0102
17608W        W31022   2.696  12.783   0.136  0.0870 -0.3448  0.1898
17609W        W31023  12.092  17.366   4.243 -0.0827 -0.0749  0.0296
17610W        W31024  16.502  12.513   4.285 -0.3816  0.2288 -0.1219
17611W        W31025   0.242   4.784  14.436 -0.5444 -0.1337 -0.0911
17612W        W31026   6.812   2.539   3.707 -0.0352 -0.1852 -0.1959
17613W        W31027  17.128  17.218  15.869 -0.0361 -0.1449 -0.1689
17614W        W31028  16.658  15.114   5.865 -0.0325  0.3442  0.2991
17615W        W31029  17.487   8.174   3.632  0.0093  0.1784 -0.2149
17616W        W31030   1.277   0.403  13.039  0.2403 -0.1195  0.0085
17617W        W31031  15.606  11.758   3.366 -0.0348  0.1595 -0.0899
17618W        W31032  16.634   7.918  10.057 -0.0455  0.0471 -0.1222
17619W        W31033   1.849   7.514  13.704  0.0543  0.1540  0.0268
17620W        W31034   4.367   4.981  10.997  0.1821  0.0455 -0.1617
17621W        W31035  15.593   2.263   1.920  0.1610  0.2152  0.1034
17622W        W31036   0.692   1.567   1.542  0.0289 -0.0235  0.3139
17623W        W31037   6.862  14.547   1.471  0.1472  0.0240  0.1777
17624W        W31038  13.850  15.899   4.959 -0.1046 -0.0151 -0.0905
17625W        W31039   1.526   6.902   1.636 -0.0465  0.1674  0.2638
17626W        W31040   4.869   4.809  15.505  0.0517 -0.2458 -0.0531
17627W        W31041  16.747  17.422   5.895  0.0004  0.0914 -0.0067
17628W        W31042  11.651   9.309  10.745  0.2939 -0.0146 -0.2829
17629W        W31043  11.355  15.399   2.958  0.1404 -0.0946 -0.0401
17630W        W31044   0.752  10.384   1.839  0.1043 -0.0300  0.0449
17631W        W31045   2.194  15.087  11.150  0.0000  0.1023 -0.1641
17632W        W31046   5.369   3.098  15.749  0.1757  0.0506 -0.0015
17633W        W31047  16.259   6.537  16.082  0.4012  0.1863  0.2335
17634W        W31048   7.598   7.289   4.596  0.0198  0.3371 -0.0510
17635W        W31049   0.814   5.498  14.662 -0.0218  0.1801  0.0458
17636W        W31050  11.869   6.367   2.715  0.2469  0.2129 -0.2177
17637W        W31051   0.773   3.747  12.579 -0.0931  0.1211 -0.0135
17638W        W31052   0.370   1.297   0.619 -0.0951  0.2875 -0.0605
17639W        W31053   1.597   1.974   0.154  0.0065  0.2890 -0.2392
17640W        W31054   7.828   9.803  12.689 -0.1540 -0.3522  0.1171
17641W        W31055   5.731   1.642   6.013 -0.0241 -0.2512  0.3931
17642W        W31056   2.445   7.900  12.595  0.0920  0.4129 -0.1410
17643W        W31057   0.956   1.104   4.527 -0.4337  0.1352  0.3832
17644W        W31058   4.998   9.990   1.744 -0.0271  0.2794  0.2799
17645W        W31059  14.885   8.148  12.172 -0.3416  0.0534 -0.0844
17646W        W31060  12.262   6.097  13.318 -0.2446 -0.1929 -0.2483
17647W        W31061  14.742   6.190   4.448  0.0717 -0.1119 -0.0223
17648W        W31062  12.388   8.553   5.273 -0.0847  0.0089  0.3907
17649W        W31063  15.554   7.060  14.619 -0.2557  0.2050 -0.1596
17650W        W31064  16.874   1.763   3.419 -0.1325  0.2648  0.0314
17651W        W31065  15.795  13.525   1.507  0.0484 -0.1471  0.3093
17652W        W31066   0.982  10.665  14.488  0.0384 -0.1034 -0.2797
17653W        W31067  12.930   4.758   1.010 -0.0063  0.0776  0.0433
17654W        W31068   8.825  10.030   5.138 -0.2540  0.0073 -0.1049
17655W        W31069   5.850   9.281  15.662  0.1463  0.0402  0.2004
17656W        W31070   6.144   3.286  13.912 -0.0169  0.0188  0.0040
17657W        W31071   9.087  11.761  11.370 -0.0185  0.2082  0.2914
17658W        W31072   9.480   5.312  12.524 -0.1303  0.1803 -0.2274
17659W        W31073   6.091   3.920  10.536  0.0116 -0.2757 -0.1139
17660W        W31074   0.941   9.127   5.778  0.1003 -0.1007  0.1054
17661W        W31075   8.601   4.236   4.179  0.0146  0.2995 -0.0151
17662W        W31076   8.594  14.485   3.739  0.2189  0.0884 -0.2184
17663W        W31077  11.958   0.513  10.998 -0.0941  0.2364  0.1154
17664W        W31078   6.595   7.726  11.920 -0.1419  0.1183  0.2115
17665W        W31079   6.707   9.936  16.408 -0.3410  0.2858 -0.1561
17666W        W31080  17.849   0.133   3.414 -0.0816 -0.2791 -0.0650
17667W        W31081   5.211  14.928  16.694  0.3858  0.0704  0.1157
17668W        W31082   8.289   8.009   4.732  0.1245  0.3508  0.2312
17669W        W31083   6.305   7.446   1.476  0.1283  0.0078  0.1099
17670W        W31084  12.412   5.789   0.826 -0.1462  0.1403  0.0054
17671W        W31085  10.978  13.244  14.070  0.0694 -0.2900 -0.0991
17672W        W31086   0.773  16.392  14.910 -0.1385  0.0643 -0.0902
17673W        W31087  13.466  16.532  11.455 -0.1453  0.0441  0.0931
17674W        W31088   8.852  15.106   4.964  0.2154  0.1801 -0.3020
17675W        W31089   2.343  14.276   3.540 -0.0481 -0.0753  0.2488
17676W        W31090  10.954   7.438  16.740 -0.2021  0.2468  0.0565
17677W        W31091  17.478  15.346  11.260 -0.0603  0.0739 -0.1660
17678W        W31092   3.969  15.412   4.601 -0.1435 -0.1947 -0.0468
17679W        W31093   4.407  11.316  11.800  0.0945  0.2416 -0.0356
17680W        W31094   2.189   3.970   2.799 -0.0034  0.1794 -0.0867
17681W        W31095  15.304  12.308   1.734  0.2660  0.3153  0.3277
17682W        W31096   3.828   5.382  11.908  0.0586 -0.2494  0.2814
17683W        W31097   0.862   9.125  12.792 -0.0501  0.0803  0.2481
17684W        W31098  10.338   9.180   0.960 -0.0202  0.0030  0.3741
17685W        W31099  10.957   6.990  11.031 -0.0480 -0.1646 -0.0559
17686W        W31100   6.893   8.678  16.044  0.0222  0.2047  0.0474
17687W        W31101   1.623   5.212   1.652  0.0373  0.0814  0.1064
17688W        W31102   2.094  15.089   3.735 -0.0423  0.1482 -0.2309
17689W        W31103  11.595  16.332  15.233  0.0897  0.0992  0.1025
17690W        W31104   3.210  16.927  11.722 -0.1254  0.0631  0.4807
17691W        W31105  17.927  12.101   3.288  0.1744 -0.0089 -0.1838
17692W        W31106  15.804  16.658   0.325  0.2214 -0.0452 -0.0693
17693W        W31107   9.195   3.332   3.786  0.0984  0.1388 -0.0143
17694W        W31108  10.075   8.504   3.600  0.1375  0.1739 -0.0891
17695W        W31109   2.857  15.212   2.063  0.0801 -0.1768  0.4321
17696W        W31110  17.469   0.979   4.729 -0.1646  0.0152  0.0120
17697W        W31111  12.980  17.737   3.899  0.2627 -0.1141 -0.0231
17698W        W31112  17.480   8.636  12.765  0.2561  0.2345  0.1656
17699W        W31113   9.936  15.462   5.026  0.2903 -0.0627  0.1529
17700W        W31114  14.849  14.466   5.147 -0.1314 -0.1783  0.2097
17701W        W31115  14.099   5.398  11.366  0.3352 -0.3474  0.0352
17702W        W31116  10.976   4.143   5.944  0.0866 -0.1541  0.1146
17703W        W31117  11.952  10.629   2.716  0.2316  0.0523  0.0320
17704W        W31118  11.807   2.769  13.719  0.3713  0.0938  0.0824
17705W        W31119  17.920   4.095   2.844  0.1407  0.1606 -0.3584
17706W        W31120   1.177   8.897   0.668 -0.1386  0.1154  0.0718
17707W        W31121   8.675  10.608   4.363 -0.1575  0.3882 -0.2121
17708W        W31122   8.525   9.505   5.803  0.0430 -0.3196  0.0576
17709W        W31123   4.609   2.974  15.729  0.2627  0.0467  0.0667
17710W        W31124   3.205  17.896   0.282 -0.0376 -0.2864 -0.2322
17711W        W31125   9.828   2.603   1.042 -0.3709 -0.1185  0.2720
17712W        W31126   0.252   7.720   1.626  0.2310 -0.0942 -0.2058
17713W        W31127   0.373   4.291   4.517  0.0526  0.0958 -0.2234
17714W        W31128   5.265   4.786   9.875  0.2739 -0.2205  0.1444
17715W        W31129  15.995   3.186  16.743  0.2346 -0.3308  0.1644
17716W        W31130  13.066   6.330   6.653  0.0787 -0.2708 -0.1560
17717W        W31131  17.670  11.938   4.281  0.0334 -0.1782  0.1476
17718W        W31132   4.071   6.168  11.572  0.2959 -0.1331 -0.1786
17719W        W31133  12.982   5.896   3.114 -0.2869  0.1307  0.0264
17720W        W31134   5.422   1.108  16.165  0.3887 -0.1919 -0.3243
17721W        W31135  14.211   6.320   1.952  0.0260 -0.1805  0.1611
17722W        W31136   7.601  14.320  14.641  0.1246 -0.1642  0.3052
17723W        W31137   1.467  16.508  13.707  0.0820  0.2759  0.0959
17724W        W31138   2.921  15.548  15.087  0.0206 -0.0590 -0.1178
17725W        W31139   6.107   2.162  10.689  0.0334  0.2300 -0.1360
17726W        W31140  17.951  17.181  12.904 -0.3272 -0.0625  0.2724
17727W        W31141   5.222   0.660  13.274  0.0312 -0.2567  0.1359
17728W        W31142  15.939   6.629   2.806 -0.0436  0.1161  0.1684
17729W        W31143  12.807   6.049   0.858 -0.1572  0.2521  0.0958
17730W        W31144   5.530  17.445   3.775 -0.3217 -0.1499  0.1813
17731W        W31145  13.344  10.150   3.747 -0.2626  0.1264  0.0624
17732W        W31146   9.997   0.028   1.816  0.0962 -0.1151 -0.1513
17733W        W31147   5.824  10.733  12.009  0.0734 -0.2648  0.1672
17734W        W31148  12.318   3.582   1.924  0.2011 -0.2333  0.0154
17735W        W31149  10.619   4.114  12.879 -0.1712  0.1608 -0.0412
17736W        W31150   4.459   0.140   3.069 -0.0377 -0.1502 -0.0565
17737W        W31151   7.812  11.897  14.146  0.0593 -0.2746 -0.0934
17738W        W31152  10.272  16.178  13.989 -0.0109 -0.2054  0.2362
17739W        W31153  12.719   1.511  15.603  0.1839  0.0451 -0.0262
17740W        W31154   9.236  13.314  16.262  0.2753 -0.1211 -0.2248
17741W        W31155   0.360  14.034   4.120  0.1888  0.3177  0.0035
17742W        W31156  11.927   0.865   0.381  0.0693  0.0873 -0.0458
17743W        W31157   7.372   1.816  15.614  0.0465  0.0100 -0.1628
17744W        W31158  14.320   5.547   1.777 -0.0446  0.0431  0.0978
17745W        W31159   4.443  17.209   1.046  0.4092 -0.0197  0.1672
17746W        W31160   0.524   6.571  13.649 -0.3525 -0.1030 -0.2433
17747W        W31161  11.165   4.076  12.804 -0.3272 -0.2263 -0.0259
17748W        W31162   5.053  11.054  14.573 -0.1234  0.0293 -0.1114
17749W        W31163  10.906   1.798  16.462 -0.0477 -0.3021 -0.3331
17750W        W31164   1.475  10.481   3.472  0.1196 -0.0053  0.1299
17751W        W31165  15.288  16.391   5.718  0.0543  0.1891  0.1387
17752W        W31166   1.887  13.991   0.707  0.0973 -0.0751 -0.0783
17753W        W31167  17.896   4.737   5.157  0.0527 -0.0601 -0.3751
17754W        W31168   1.472  15.329  15.409 -0.0497 -0.0460 -0.1950
17755W        W31169   3.326  10.818  10.944 -0.1705  0.0122  0.2565
17756W        W31170   8.645   5.109  12.187  0.1000 -0.0217  0.1035
17757W        W31171   7.270   4.099   4.756 -0.2302 -0.2132 -0.3308
17758W        W31172   4.361   6.344   6.525 -0.0978  0.0474 -0.0860
17759W        W31173  15.222   2.108  14.584 -0.4556  0.1113 -0.0500
17760W        W31174  16.153   7.094  11.261  0.1630  0.2936  0.1487
17761W        W31175   0.151  17.717  12.894  0.0520 -0.3124  0.0026
17762W        W31176   5.779  14.845  15.364  0.0357  0.1583  0.1915
17763W        W31177   8.756   8.802   1.718 -0.1475  0.0428 -0.0608
17764W        W31178  12.597   8.041   5.505 -0.2995  0.1398  0.0166
17765W        W31179   0.546   7.883  15.869 -0.0362  0.0403 -0.2369
17766W        W31180   2.375  17.196  14.210 -0.0120  0.2190  0.2878
17767W        W31181   7.783   3.960   3.410  0.1867  0.0290  0.0134
17768W        W31182  15.341   2.058   2.563 -0.3090 -0.1086  0.1432
17769W        W31183   3.983   4.443  12.299  0.0091 -0.0047 -0.1792
17770W        W31184   3.583   9.881   0.114 -0.0361  0.1812 -0.2307
17771W        W31185  12.740   3.926  12.346 -0.3124 -0.3035 -0.1275
17772W        W31186  15.200  10.875   5.617  0.0995  0.2229 -0.1787
17773W        W31187  15.325  12.244   3.567 -0.2583 -0.0590  0.0433
17774W        W31188  16.293  14.323  10.832 -0.3238  0.1982 -0.1337
17775W        W31189  13.156   9.129   5.538  0.3180 -0.1888  0.2471
17776W        W31190   2.669   0.318  14.951  0.0357  0.3768  0.2321
17777W        W31191  16.392   3.206  14.404  0.2879  0.3471  0.1464
17778W        W31192  16.172   7.846  10.231 -0.2542  0.3987 -0.0179
17779W        W31193  12.783  15.768  14.228 -0.1554 -0.0006 -0.0400
17780W        W31194   3.108  12.968  13.242  0.2936  0.0455 -0.0518
17781W        W31195  12.624  12.956   2.503  0.0096  0.0964 -0.0839
17782W        W31196   6.912   2.656  12.364  0.1559  0.0174 -0.1059
17783W        W31197  15.178  12.847   1.117  0.0367  0.2466  0.2890
17784W        W31198  11.970  17.390  13.363  0.0901 -0.0949 -0.1486
17785W        W31199   7.091  17.923   4.223 -0.1389 -0.1469  0.1607
17786W        W31200  12.821  15.221  12.732 -0.0349 -0.0135  0.1463
17787W        W31201   7.038  17.287   3.724  0.1556 -0.2064 -0.1146
17788W        W31202  17.774   3.878  12.754  0.3798  0.0539 -0.2303
17789W        W31203  12.885  13.374   5.069  0.0881 -0.5563 -0.2335
17790W        W31204   1.209   2.294  16.186 -0.2469  0.1754  0.0851
17791W        W31205   3.216   6.286  13.570  0.1732 -0.1933 -0.0993
17792W        W31206   0.615  11.043   1.625  0.1522 -0.2926 -0.0594
17793W        W31207  14.038   4.130   2.347  0.2841 -0.1080 -0.4348
17794W        W31208   4.740   8.686   6.569 -0.0684  0.0782 -0.0812
17795W        W31209  12.593  14.211   1.300 -0.3038 -0.1283 -0.0753
17796W        W31210   8.020  14.215  16.104 -0.0478 -0.0763 -0.1604
17797W        W31211  15.679  16.765  14.664  0.0805 -0.2500  0.0919
17798W        W31212  14.525   9.890   5.145 -0.3471  0.1662 -0.2261
17799W        W31213   4.773  17.368  15.706  0.0312 -0.3365 -0.2731
17800W        W31214  15.666   6.925  15.707  0.3506 -0.1115  0.3059
17801W        W31215   3.251   6.246  14.139 -0.1698  0.1384 -0.1331
17802W        W31216   7.486  17.296  13.579 -0.3093  0.1343 -0.0615
17803W        W31217  11.203  14.984  13.842  0.1710 -0.1420  0.1397
17804W        W31218   5.260   3.937   1.967 -0.0528 -0.4184  0.1218
17805W        W31219  15.177   2.905  16.508 -0.0548 -0.0361 -0.1359
17806W        W31220  13.851  17.691  15.258  0.2783  0.1688  0.0237
17807W        W31221   9.931  15.883   0.366 -0.2960 -0.1276 -0.1893
17808W        W31222  15.935   1.846  10.935 -0.1385  0.0187  0.0984
17809W        W31223   0.571   7.882  12.052  0.0735  0.0303 -0.1081
17810W        W31224  18.004   8.476   2.051  0.0296 -0.2524 -0.2702
17811W        W31225  15.596   1.845   0.069  0.2794  0.0878 -0.2776
17812W        W31226   1.867  14.798  12.482  0.2167 -0.1228  0.3730
17813W        W31227   7.562  14.448   2.487  0.3088 -0.2084 -0.0927
17814W        W31228   5.928  11.094   5.244  0.1776 -0.1681  0.0900
17815W        W31229   2.437  17.732   5.872  0.3257  0.0701  0.0632
17816W        W31230   9.418   0.175   4.698  0.0682  0.3294  0.1776
17817W        W31231   8.678   5.423   4.581  0.0881  0.0639 -0.1691
17818W        W31232  12.480   3.585   3.175 -0.0611  0.1946 -0.1777
17819W        W31233  12.226   2.641  12.350 -0.2780  0.0065  0.0427
17820W        W31234   1.140  15.774   9.613  0.2624 -0.1456  0.2742
17821W        W31235  13.727  15.619   3.341  0.3876 -0.0745 -0.0582
17822W        W31236  17.602   8.572  13.255 -0.2212 -0.0294 -0.2144
17823W        W31237   0.488  11.567   5.432 -0.1639 -0.0673  0.2466
17824W        W31238  17.452  13.290   0.115  0.0926  0.4765  0.0368
17825W        W31239   5.907   8.121  13.485  0.0855  0.2454 -0.0267
17826W        W31240   0.457  12.361   1.948  0.4545  0.3079 -0.1475
17827W        W31241   7.079   0.885   2.575 -0.0565  0.1650 -0.2328
17828W        W31242  15.568  11.377  13.776 -0.1843  0.0946  0.2980
17829W        W31243  10.824  17.437  11.608 -0.1316 -0.2230 -0.1820
17830W        W31244  15.720   7.168   4.123  0.1455 -0.5345  0.0705
17831W        W31245  15.738   4.608   1.831  0.1569  0.1628 -0.0572
17832W        W31246   6.972   1.909  12.980 -0.0563 -0.1192  0.1364
17833W        W31247   1.258  12.472   4.816 -0.0808  0.0350  0.1004
17834W        W31248  11.656   6.707   0.069  0.1890  0.0255  0.2877
17835W        W31249   1.800  11.386   3.993  0.1169  0.3106  0.1383
17836W        W31250   2.881   8.037  11.132  0.1298 -0.0564 -0.1949
17837W        W31251  10.915   0.615  15.441  0.0521  0.1856 -0.0176
17838W        W31252   4.251  10.269  15.346  0.0979 -0.1293 -0.1952
17839W        W31253   8.562  16.982  15.010  0.1577  0.0681  0.1705
17840W        W31254   4.910   8.557   3.586 -0.0833 -0.1298  0.0863
17841W        W31255  17.643   7.211   4.284 -0.1347 -0.2826  0.0287
17842W        W31256  14.135   3.771  10.225 -0.0393  0.3734  0.0257
17843W        W31257   1.133  11.942   3.962  0.1663 -0.0697 -0.0957
17844W        W31258   9.663  12.093  14.478 -0.1693 -0.3703 -0.2576
17845W        W31259  16.385  16.378  15.845 -0.3326 -0.0699 -0.3095
17846W        W31260   7.770  12.431   5.231  0.2056  0.1449  0.0943
17847W        W31261  16.597  13.930   1.782 -0.0987 -0.2606 -0.3306
17848W        W31262  16.718  10.534  15.706 -0.1265  0.0724  0.0348
17849W        W31263   2.646   5.060  14.708 -0.0320 -0.3571 -0.1566
17850W        W31264   8.204  13.593   1.573 -0.0888 -0.3711 -0.3206
17851W        W31265   1.872   9.191   5.921 -0.2665  0.1880  0.2427
17852W        W31266   2.292   8.651  11.160  0.1432 -0.1809  0.5065
17853W        W31267  15.770  13.901  14.395  0.0312  0.1506  0.1155
17854W        W31268   8.925  14.865  11.349 -0.0735 -0.2275 -0.1807
17855W        W31269  10.349  13.171   2.460 -0.0058  0.1270 -0.0237
17856W        W31270   0.636  10.684   4.825 -0.2718  0.0788 -0.2967
17857W        W31271   3.324  11.156   1.302 -0.2993 -0.2387  0.4119
17858W        W31272   2.696   7.290  14.568 -0.0786  0.0808 -0.1999
17859W        W31273  11.568   4.256   2.096 -0.0751 -0.1599 -0.1152
17860W        W31274   7.535   1.974  12.561 -0.1890  0.4443  0.1026
17861W        W31275  17.196   2.182  10.754  0.0896 -0.0140  0.0480
17862W        W31276   0.792  17.364   0.172 -0.0936  0.0384  0.0297
17863W        W31277   7.563  11.167   4.369 -0.0767 -0.0515  0.2213
17864W        W31278   3.155   8.763   2.707  0.0448 -0.0997 -0.1349
17865W        W31279   4.776  15.379   1.983  0.1108 -0.3052 -0.0439
17866W        W31280   2.685   3.111   4.928  0.3307 -0.1004 -0.2635
17867W        W31281  13.466   2.034  12.020 -0.0257  0.1481  0.1047
17868W        W31282   0.327   9.804   5.559 -0.2703  0.1803 -0.0870
17869W        W31283   3.970  14.899  11.544 -0.0784 -0.0523 -0.0868
17870W        W31284  13.985  14.924  15.285 -0.0715 -0.5492 -0.0670
17871W        W31285  12.914  11.320  16.332 -0.3336  0.2004  0.0160
17872W        W31286   4.596  12.363   4.893  0.0622  0.0038  0.0977
17873W        W31287  14.307  16.207  16.067  0.1000 -0.1728  0.0529
17874W        W31288   5.762  16.242   0.682 -0.1118 -0.1257  0.0632
17875W        W31289  11.081  10.221  11.433 -0.0071  0.1136 -0.2564
17876W        W31290  10.463   3.004  11.192 -0.0119  0.1120 -0.0172
17877W        W31291  11.687  11.585   5.125 -0.2574  0.2376  0.1997
17878W        W31292  16.273  15.748   1.175  0.2179 -0.1584 -0.1847
17879W        W31293   6.826  14.613   4.924  0.1185  0.2828  0.2763
17880W        W31294  14.464   1.619   4.468 -0.2285 -0.0825 -0.1756
17881W        W31295   3.907   2.411   5.082 -0.0916  0.3758  0.1304
17882W        W31296   2.585  10.015  12.633 -0.3795 -0.3152  0.0066
17883W        W31297   9.216  10.118   2.574  0.0493 -0.0688  0.2223
17884W        W31298   8.259   6.313  15.533  0.0335  0.1534  0.4771
17885W        W31299  14.501   3.711  11.953  0.0657 -0.1642 -0.0688
17886W        W31300  12.444   0.764  13.620 -0.1500 -0.0483 -0.3239
17887W        W31301  16.041  14.071   5.490 -0.2280 -0.2556  0.0323
17888W        W31302   3.651  12.256   5.287  0.1374 -0.2735 -0.1917
17889W        W31303   3.022   4.988   4.222 -0.1595 -0.0895 -0.3205
17890W        W31304  16.495   1.749  13.212  0.2297 -0.2734  0.2087
17891W        W31305   9.929   7.773  11.506 -0.1426 -0.1765 -0.1390
17892W        W31306  12.348  12.428  16.435  0.2198  0.0928 -0.0615
17893W        W31307  17.401   3.536  16.274  0.1262  0.0059 -0.1335
17894W        W31308  15.466   6.755   3.402 -0.2410  0.3033 -0.4202
17895W        W31309   9.722  11.473   2.618  0.4390 -0.0772 -0.4660
17896W        W31310  16.783  14.359   4.592 -0.1060  0.0171 -0.0037
17897W        W31311  17.404  14.233   2.738  0.0412  0.1064  0.1862
17898W        W31312   4.006   9.095   4.940 -0.0740 -0.0106  0.0502
17899W        W31313  10.825   0.190  14.866 -0.1206  0.1048  0.1465
17900W        W31314  12.461   8.235   2.522  0.0345  0.4066  0.0376
17901W        W31315  15.108   6.591  16.517  0.1100 -0.1749 -0.1581
17902W        W31316   4.106  10.963  11.213 -0.0533 -0.0947 -0.1293
17903W        W31317  10.820  12.568  16.126  0.3454  0.0772  0.1484
17904W        W31318  11.403   8.311  12.390  0.0091 -0.1260  0.1621
17905W        W31319  17.726  13.007   4.530  0.0425  0.0912 -0.1060
17906W        W31320   6.060   3.446  11.272 -0.0270 -0.3848  0.2239
17907W        W31321   8.106  11.589  16.547  0.0714 -0.1697  0.1671
17908W        W31322   0.737  11.268   3.296 -0.0520 -0.2967  0.2165
17909W        W31323   3.835   3.002  16.449 -0.0947  0.1816  0.2873
17910W        W31324  16.755   0.110   4.858 -0.1751 -0.1397  0.1334
17911W        W31325  11.103  17.447   2.373  0.3815 -0.0749 -0.0465
17912W        W31326  10.708  10.080  14.190  0.0908 -0.1157 -0.0848
17913W        W31327   3.375   1.952  14.241  0.3252 -0.1375 -0.0678
17914W        W31328  14.929  12.896  16.703 -0.0290  0.0943 -0.1987
17915W        W31329  10.256   7.183   6.716 -0.0986 -0.1362 -0.1427
17916W        W31330  15.500   9.369  13.873 -0.0041 -0.0531 -0.0300
17917W        W31331  12.469  13.243   4.331  0.1120  0.2075  0.0981
17918W        W31332   9.321   3.568  16.382 -0.0071  0.4107 -0.2674
17919W        W31333  12.327   3.441  11.187 -0.0989 -0.0372  0.0832
17920W        W31334  13.322  17.176   0.492  0.2062  0.2074  0.1222
17921W        W31335  15.563   4.471   5.533 -0.4950  0.0515  0.0564
17922W        W31336  16.349  17.753  10.569 -0.0929 -0.0597  0.2569
17923W        W31337  14.835  14.708   2.814  0.1456  0.1218  0.2257
17924W        W31338   4.278   5.741   1.406 -0.0670 -0.1948  0.0281
17925W        W31339   6.484  17.549  13.914 -0.2304  0.2107 -0.1161
17926W        W31340  14.566   2.279  11.191 -0.2984 -0.1066  0.0724
17927W        W31341  14.628   3.494   0.889 -0.2570  0.0002 -0.0574
17928W        W31342   3.946   6.184   5.228 -0.0539  0.4948 -0.2084
17929W        W31343   3.381  12.004   1.682 -0.2879  0.1557  0.1138
17930W        W31344   7.353  10.602   0.759  0.1534  0.1344 -0.1180
17931W        W31345   3.456   5.902   1.874 -0.0547 -0.1457  0.1201
17932W        W31346  10.224   0.584   0.997  0.1509  0.2238  0.1293
17933W        W31347  17.765   5.644  13.381 -0.1772  0.3076  0.1164
17934W        W31348  12.645   5.203   1.959 -0.0167 -0.0392 -0.1535
17935W        W31349  15.371   7.487   2.621  0.1517  0.4356 -0.1399
17936W        W31350   4.045  12.453   3.480 -0.1082 -0.0281  0.5158
17937W        W31351   5.189   8.722   4.311  0.3021 -0.0670  0.2402
17938W        W31352  16.836  17.705   0.416  0.0180  0.0797  0.2525
17939W        W31353  14.132   9.447   3.991 -0.1304 -0.0434 -0.0984
17940W        W31354   4.655   5.108  11.595  0.3435 -0.1087 -0.2466
17941W        W31355  12.650   4.949  12.694 -0.0375  0.2120 -0.0802
17942W        W31356   3.813  12.720   0.980 -0.0513 -0.2214  0.1208
17943W        W31357  12.325   9.525  10.823  0.1483 -0.1893  0.0487
17944W        W31358  11.290  17.998  13.560 -0.0135  0.2909  0.2725
17945W        W31359  14.368   7.749   0.906 -0.2032  0.2050  0.0798
17946W        W31360   0.675   8.861   4.581  0.2369 -0.1286 -0.1941
17947W        W31361   6.952   6.830   3.039 -0.0990 -0.0470 -0.1408
17948W        W31362  13.993  12.561   0.108  0.0687 -0.1049  0.2101
17949W        W31363   3.262   8.332  12.752 -0.0791  0.0442  0.0237
17950W        W31364  16.900   9.281  15.270 -0.2922 -0.2434 -0.0510
17951W        W31365  13.602   5.214  11.287  0.0401  0.1871 -0.6296
17952W        W31366  11.916   4.735   5.919 -0.4261 -0.1350 -0.1827
17953W        W31367  17.481   4.141  14.924  0.0376  0.0063  0.0583
17954W        W31368  10.079   0.107  13.271 -0.2733 -0.1215  0.0798
17955W        W31369   8.338   5.001   2.977 -0.0443  0.0472  0.2388
17956W        W31370  15.721  16.206   1.790  0.1594  0.0457 -0.4019
17957W        W31371  12.697   7.666  16.163  0.1052 -0.2700 -0.1169
17958W        W31372   8.926   8.180  10.994 -0.1530  0.1466 -0.0940
17959W        W31373  16.115   0.008  14.728 -0.1419  0.0507  0.3758
17960W        W31374  12.579  13.923  11.425  0.1392  0.0005  0.0795
17961W        W31375  16.779  17.120  16.266  0.1159 -0.1136 -0.3035
17962W        W31376   9.853  10.080   5.479 -0.0220 -0.2771  0.0398
17963W        W31377   5.614  11.873   6.439  0.2624  0.0117  0.0708
17964W        W31378   9.346   6.179   4.801 -0.0346  0.1248  0.0177
17965W        W31379   7.804   5.217  11.579  0.1250  0.0351  0.1287
17966W        W31380   0.434   2.484  10.789 -0.0795 -0.1744  0.0091
17967W        W31381  12.517  10.306  15.960  0.2854  0.1355  0.1368
17968W        W31382   0.517   6.881  14.067  0.1154 -0.0963  0.2309
17969W        W31383  15.179   9.496   2.403 -0.0946  0.4306 -0.0205
17970W        W31384  13.686   3.188  15.848  0.1570  0.4019  0.2434
17971W        W31385   8.929   8.338   6.253 -0.0755 -0.3192 -0.2756
17972W        W31386  10.895   5.689   4.950 -0.3596 -0.1464 -0.1945
17973W        W31387  11.948   6.416   2.159  0.0104  0.1534 -0.2003
17974W        W31388   6.802   9.152  12.867 -0.0589 -0.0223  0.0390
17975W        W31389   5.452   9.364  13.716  0.0062  0.1751 -0.1642
17976W        W31390   8.814  13.683   6.920 -0.0692 -0.1206  0.0298
17977W        W31391   0.481   8.978  13.115  0.4486 -0.0952 -0.0081
17978W        W31392   0.495  14.740  12.746 -0.1349 -0.0454 -0.4521
17979W        W31393   6.413  10.729  13.442  0.0243 -0.0310 -0.1182
17980W        W31394  16.570   0.350  12.556  0.1287  0.0047  0.2958
17981W        W31395   5.241  11.395   0.426 -0.2609 -0.0243 -0.0047
17982W        W31396   1.358  14.476  13.737 -0.0068  0.1576  0.2071
17983W        W31397   3.351  12.360  14.406 -0.0432  0.2370 -0.4754
17984W        W31398  13.200   3.063   4.833  0.0721  0.2034  0.0231
17985W        W31399   9.027  14.650   2.254  0.1116  0.3274 -0.1848
17986W        W31400  12.335   8.022   0.261 -0.2066  0.0686 -0.0317
17987W        W31401  13.667  15.385   6.726  0.0489  0.0180 -0.4051
17988W        W31402   4.977  15.045   0.679  0.0937 -0.2529 -0.0264
17989W        W31403  11.376  14.239   0.235  0.1981 -0.0013  0.1443
17990W        W31404   1.472  12.387  16.208 -0.2003  0.0992 -0.1508
17991W        W31405  11.945  16.374   4.343  0.2764 -0.0287 -0.1566
17992W        W31406  15.990  11.798  16.353  0.0289 -0.4009  0.0582
17993W        W31407   6.397   8.832  15.988  0.1428  0.2186  0.2322
17994W        W31408  10.735   4.971   2.838 -0.2405  0.1227 -0.1906
17995W        W31409  10.418   3.312   3.236 -0.0998 -0.1359  0.2070
17996W        W31410  12.565  11.628  16.399  0.0903 -0.1579  0.0319
17997W        W31411  15.041   2.139  10.911 -0.0827  0.1653 -0.0616
17998W        W31412  17.301  17.049   5.206 -0.1147 -0.0206  0.0315
17999W        W31413  17.516  16.304  10.297 -0.0933  0.2472 -0.1372
18000W        W31414  12.424  13.756  12.523  0.4250 -0.0198  0.0563
18001W        W31415   4.737  17.775   0.297 -0.1305 -0.3121  0.0127
18002W        W31416   9.958  17.590   0.752 -0.2004  0.4272  0.3453
18003W        W31417  15.345   1.429  12.378  0.1113 -0.1869  0.0096
18004W        W31418  12.422   2.383  15.593  0.2151 -0.0104  0.0845
18005W        W31419   4.288   5.377  14.837  0.1377 -0.0680  0.1556
18006W        W31420   6.061  16.415   4.625 -0.1332  0.3284  0.0205
18007W        W31421   4.377  12.173  13.335  0.0795  0.2000 -0.0649
18008W        W31422   8.308   0.799  15.395 -0.1377  0.2124  0.2553
18009W        W31423  14.495   8.934   2.585 -0.1108 -0.4094  0.1694
18010W        W31424   3.685   9.961  10.957 -0.1049  0.1062  0.0525
18011W        W31425  12.964  17.611   6.074  0.3923  0.3060 -0.1799
18012W        W31426   5.582   6.873  16.179 -0.2733  0.2460 -0.2012
18013W        W31427   0.037  13.281   1.289  0.0439  0.0760 -0.0271
18014W        W31428  15.181   9.168   1.558 -0.0862  0.0091  0.0812
18015W        W31429   9.803   4.667   5.995  0.2105  0.0749 -0.1414
18016W        W31430  10.495  13.920  14.881 -0.1309 -0.2549  0.3394
18017W        W31431   1.141  17.473   4.818  0.1070 -0.0648  0.1049
18018W        W31432  15.366  12.802   0.207 -0.1319 -0.3155  0.1967
18019W        W31433   0.167   1.271  12.451 -0.1855  0.0390  0.1827
18020W        W31434   3.791  10.957  13.321  0.1315 -0.4045 -0.0114
18021W        W31435   2.835   8.230  11.889  0.0245  0.2701 -0.1815
18022W        W31436   4.801  15.335   1.461  0.0603  0.2223 -0.0374
18023W        W31437   8.183   1.711  16.242  0.2548 -0.0788  0.1807
18024W        W31438   3.623   9.760  15.448  0.3038 -0.0730  0.0523
18025W        W31439  16.629   8.735  16.618  0.0175 -0.1905  0.2036
18026W        W31440  16.779   7.716   0.450  0.2589 -0.1772  0.1133
18027W        W31441   3.402   2.702   0.725  0.1188  0.2701  0.0209
18028W        W31442   5.515  14.024  15.059 -0.1253  0.1316 -0.2665
18029W        W31443   6.066  11.503  16.320  0.0466  0.0394 -0.2110
18030W        W31444   2.277   4.374   3.211  0.0277  0.0356  0.3648
18031W        W31445   2.393   8.972  15.912 -0.1482  0.1275 -0.0482
18032W        W31446   3.491   0.430   2.718  0.0126 -0.6171  0.1953
18033W        W31447   5.593  11.881  11.971  0.1469 -0.1936 -0.1634
18034W        W31448   3.814   3.485   3.413  0.1796 -0.0765 -0.2514
18035W        W31449   1.494  16.392   5.614  0.1716 -0.0218  0.1055
18036W        W31450   1.445  14.984   0.914  0.1127 -0.0379  0.4361
18037W        W31451  11.303   5.684   0.770  0.3751 -0.0106  0.1568
18038W        W31452  14.731   2.275   5.607  0.0437  0.0170 -0.1529
18039W        W31453   5.951   4.321  16.289  0.0106 -0.3452 -0.1588
18040W        W31454   5.904  17.871  15.646  0.1349 -0.2194  0.3810
18041W        W31455  13.990  10.245   2.651  0.2315  0.0551  0.0143
18042W        W31456  14.829  14.364   2.087  0.0564 -0.1200  0.0735
18043W        W31457  14.326   6.544   0.128  0.2159  0.1786  0.4078
18044W        W31458  14.294  10.506   5.720  0.1560  0.1377 -0.0884
18045W        W31459  14.923   0.902  10.849 -0.2053  0.2016 -0.1642
18046W        W31460  17.988  11.839   0.557 -0.1306  0.1310 -0.2575
18047W        W31461   9.568  13.649  14.736  0.0059  0.3479  0.3213
18048W        W31462   5.125  10.889   5.518  0.1784 -0.0373  0.2313
18049W        W31463  17.464   4.280  13.463  0.1007  0.1086 -0.1750
18050W        W31464  10.080   3.310  10.973  0.1315  0.1802 -0.2446
18051W        W31465  10.236   0.340  16.287 -0.4431 -0.2598  0.1220
18052W        W31466   2.677   8.347   3.128 -0.1709 -0.1022  0.1832
18053W        W31467  10.104  11.847  14.391 -0.1809  0.3567  0.1512
18054W        W31468   2.640   4.939   2.730  0.3781 -0.0408  0.2285
18055W        W31469   1.229   2.386  11.494  0.1259 -0.1776 -0.2301
18056W        W31470  15.779  12.423   0.484 -0.1615 -0.1115 -0.3427
18057W        W31471   5.835  10.231   2.793 -0.3893  0.0630 -0.0020
18058W        W31472   3.690   8.868  13.381  0.0927 -0.0155 -0.0084
18059W        W31473   6.189   0.755   4.828  0.0842  0.2117  0.1884
18060W        W31474   2.849   3.058   3.168 -0.2277 -0.0224  0.0947
18061W        W31475   1.537   0.082  14.494  0.0815  0.0255  0.0238
18062W        W31476  12.008  16.282   3.570 -0.0756 -0.0508  0.2575
18063W        W31477  12.606  14.346  16.420 -0.1395  0.0945 -0.0284
18064W        W31478   7.268   4.297   2.753  0.0916 -0.0214  0.0275
18065W        W31479   7.348   8.711   1.669  0.0918 -0.2498  0.0320
18066W        W31480   1.853   8.109  10.472 -0.0890  0.1631  0.0184
18067W        W31481   6.398  10.381  11.733  0.0209  0.1551 -0.0711
18068W        W31482   0.434   4.444  13.364  0.1254  0.0952  0.0974
18069W        W31483   4.072  11.531  16.150  0.0358  0.2846 -0.0364
18070W        W31484   0.779   2.281  15.989 -0.0876 -0.0580 -0.0341
18071W        W31485  12.397   6.270  12.355 -0.2888  0.1392  0.1352
18072W        W31486  12.626  10.665   6.439  0.0562 -0.2121 -0.1312
18073W        W31487   2.180  13.718  13.457  0.0537 -0.1326  0.2042
18074W        W31488  11.952   3.436  16.728  0.2003  0.1228  0.3314
18075W        W31489   3.282  12.387   0.722  0.0250 -0.4008  0.2120
18076W        W31490  11.958   2.331  14.646 -0.1852  0.0063 -0.0212
18077W        W31491  12.648   9.911  13.470 -0.1331 -0.1321  0.1797
18078W        W31492   6.438   3.063  15.758 -0.3665 -0.0841  0.1310
18079W        W31493   5.891   3.097   2.518  0.2895  0.2423  0.0575
18080W        W31494   2.637  13.158  10.308  0.1396 -0.1121 -0.2920
18081W        W31495  15.905  16.392  11.075  0.1099  0.2594 -0.0960
18082W        W31496   4.947  13.114   4.659 -0.0587  0.0527 -0.2207
18083W        W31497   8.982   5.627  11.645  0.2301  0.1608 -0.1192
18084W        W31498   2.120   4.251   2.214  0.1132 -0.2032 -0.1656
18085W        W31499  15.352  14.900   5.816 -0.0750 -0.2709 -0.0672
18086W        W31500  12.044   5.506   3.944  0.1614  0.1019  0.0853
18087W        W31501  11.179  14.358   5.334  0.1059 -0.0209 -0.1043
18088W        W31502   1.973   2.190  11.017 -0.2068 -0.0744  0.1957
18089W        W31503  11.764  15.627   0.667  0.1284  0.0254  0.1584
18090W        W31504   8.823  17.395  12.351  0.0955  0.0442  0.0889
18091W        W31505   3.187   9.059  12.046 -0.1012 -0.1881 -0.1014
18092W        W31506   3.950  10.853   2.652 -0.2076  0.0969 -0.0151
18093W        W31507   0.889  12.354   0.687  0.0710  0.2920 -0.0325
18094W        W31508  11.809   1.668   4.329  0.1718 -0.2556  0.2277
18095W        W31509   0.139  10.432   4.879  0.2481 -0.2907  0.3286
18096W        W31510   7.054   3.992   1.516 -0.1533 -0.1551 -0.2642
18097W        W31511   9.091   7.915   1.561 -0.1720  0.0079  0.1639
18098W        W31512  15.076  10.440  12.472 -0.2844 -0.1097 -0.1762
18099W        W31513  10.949   3.110  11.267 -0.0420  0.2547 -0.3740
18100W        W31514  12.781  16.594   4.391 -0.0412  0.0507 -0.1545
18101W        W31515   9.522   6.664   2.118  0.1695 -0.2056 -0.0533
18102W        W31516   6.002  15.361   0.168 -0.0717 -0.1595 -0.4031
18103W        W31517  16.557   3.908  16.374 -0.1852 -0.2337  0.1585
18104W        W31518  15.142  15.433   3.424 -0.2435  0.2636 -0.0643
18105W        W31519   0.138   5.719  16.608  0.2691 -0.1249 -0.1760
18106W        W31520  17.061  15.145  14.610 -0.0124 -0.1233 -0.0233
18107W        W31521  16.764  10.881  13.878  0.1502  0.1496 -0.0825
18108W        W31522  12.151  14.358  13.205  0.1290  0.1472 -0.0178
18109W        W31523  13.722  14.306  13.897 -0.1385 -0.0858 -0.1594
18110W        W31524   0.959  11.433  12.932 -0.0347 -0.1131 -0.4689
18111W        W31525   8.927   5.688   5.614  0.1644 -0.3269 -0.0276
18112W        W31526   0.295   8.721  12.716  0.1576  0.1182 -0.1019
18113W        W31527  14.279  16.348  13.766  0.1036 -0.1876 -0.1356
18114W        W31528   4.719  12.423  13.992 -0.2235 -0.0088 -0.0309
18115W        W31529  14.685   4.257   5.806 -0.0157 -0.3831  0.0602
18116W        W31530  17.284   0.984   1.094 -0.0338 -0.4618  0.1380
18117W        W31531   6.499  11.309   2.597  0.2371 -0.0578 -0.1942
18118W        W31532   3.930   2.892   5.024  0.2021 -0.0056  0.0712
18119W        W31533   5.624  17.605   6.088  0.0322  0.0674 -0.3417
18120W        W31534   6.440  10.664   4.155 -0.1419  0.0985  0.0217
18121W        W31535   1.056  16.516   2.784 -0.1850 -0.0529 -0.0492
18122W        W31536   4.215   7.435   1.596  0.0046 -0.1224  0.1083
18123W        W31537  10.100  16.027   1.216  0.1846  0.0789 -0.0440
18124W        W31538   6.445   6.686   5.665  0.0651 -0.0098 -0.1114
18125W        W31539   0.992   3.188  12.158  0.0329 -0.4239 -0.0128
18126W        W31540  17.424   6.115  15.048 -0.5228 -0.0740  0.1596
18127W        W31541   2.394   1.681  14.077  0.2464  0.0838  0.0364
18128W        W31542   2.282  17.992   1.411 -0.1448  0.1461 -0.0222
18129W        W31543  17.284  13.100   3.855 -0.0442 -0.2303  0.3717
18130W        W31544  11.432  15.763  12.654 -0.2985  0.1232  0.1909
18131W        W31545   7.364  13.932  12.591  0.2767 -0.0369  0.1031
18132W        W31546  15.910   9.333   1.985 -0.0760  0.2895  0.2554
18133W        W31547  10.599  13.058  15.326  0.0836 -0.4464  0.2252
18134W        W31548   7.052   7.503  13.996  0.0316  0.0088 -0.0084
18135W        W31549   6.211  17.487   3.111 -0.2369  0.0528 -0.2458
18136W        W31550  12.168   6.518  14.712 -0.0169  0.0442  0.0043
18137W        W31551   7.496  15.981  14.128  0.0826  0.0840  0.1600
18138W        W31552   3.887   9.105   0.463 -0.0348  0.1083 -0.4712
18139W        W31553   5.632   4.096   2.452 -0.4075 -0.0460  0.0298
18140W        W31554   5.019  11.610  12.834 -0.2154 -0.0374 -0.2578
18141W        W31555   4.161   3.814   3.261  0.0746 -0.0970  0.2826
18142W        W31556   0.093   9.032  12.320  0.3534  0.1530 -0.3005
18143W        W31557   1.360   9.297  12.666  0.0580  0.2978 -0.1710
18144W        W31558  15.678   6.991   6.103 -0.0165  0.0032  0.1988
18145W        W31559   1.580   2.473  11.926 -0.0566  0.1529 -0.0852
18146W        W31560   8.622   9.191  16.513 -0.1960 -0.1092  0.1021
18147W        W31561  12.524   5.352  16.396  0.0391  0.0079  0.0575
18148W        W31562   6.502   1.183  10.505 -0.2187 -0.2659 -0.0234
18149W        W31563   0.342  17.264   1.667 -0.0163 -0.0575 -0.0223
18150W        W31564   9.109   6.185   0.409 -0.3334  0.0551 -0.2039
18151W        W31565   9.030  10.621  15.601 -0.0774 -0.1057 -0.2967
18152W        W31566  10.304   0.168  14.806  0.3135 -0.1332  0.0191
18153W        W31567  13.915  15.407  12.313 -0.1080 -0.1525 -0.2193
18154W        W31568  12.573  13.860   5.455  0.1897  0.2147  0.2674
18155W        W31569   8.215   1.237  16.429  0.0084 -0.1971  0.3901
18156W        W31570  13.184   9.741   2.565 -0.1999 -0.2587  0.0459
18157W        W31571   4.303   1.820  11.949 -0.1417 -0.1020  0.0835
18158W        W31572   7.830   0.313   4.541  0.2710  0.0747  0.2216
18159W        W31573   3.327  16.586  10.945 -0.0059  0.1178  0.0776
18160W        W31574   0.942  17.161   5.702  0.2484 -0.3062 -0.1871
18161W        W31575   1.439  11.018  12.174 -0.1875  0.2228  0.2309
18162W        W31576  10.386   9.812   3.935 -0.0541 -0.0560  0.0557
18163W        W31577  16.831  13.620   2.966 -0.4368 -0.0505  0.0128
18164W        W31578  12.044   4.103   1.940  0.1506 -0.3188  0.0077
18165W        W31579   7.308  10.355   5.475 -0.0496 -0.1498 -0.0748
18166W        W31580  13.890  17.082   0.733 -0.1330 -0.3537 -0.1353
18167W        W31581   7.115  17.989  15.361 -0.1036 -0.0220 -0.2571
18168W        W31582  12.026  17.930  16.576 -0.0198 -0.2280  0.1153
18169W        W31583   5.610   2.787   4.644  0.0644 -0.1447  0.1143
18170W        W31584   4.987   7.978   0.264  0.0112 -0.0265  0.1943
18171W        W31585   9.401   2.690  16.048  0.1287  0.1787 -0.1804
18172W        W31586  12.260   8.257   6.620  0.2798  0.2304 -0.0847
18173W        W31587  14.179   4.151  15.982  0.0037 -0.1833  0.3589
18174W        W31588   3.156   3.184  13.326 -0.0641  0.0061  0.0714
18175W        W31589  17.159   2.155   1.074  0.0117 -0.3970 -0.0452
18176W        W31590   8.199  12.977   0.338 -0.1874  0.0837  0.2689
18177W        W31591  11.463   2.987  10.699  0.1884 -0.1121  0.0884
18178W        W31592   1.361  13.617  15.894  0.1470 -0.3343 -0.0794
18179W        W31593   4.855  13.774   5.461  0.1405  0.0882 -0.1690
18180W        W31594   7.081  17.295   2.848  0.0526  0.1170 -0.0220
18181W        W31595   2.498   6.246   1.694  0.0879  0.2746 -0.1472
18182W        W31596   6.716   8.955   5.186 -0.1079 -0.1921  0.0154
18183W        W31597   1.778   5.210   4.431  0.2895  0.1458 -0.1591
18184W        W31598  14.872   6.004   4.946 -0.0573 -0.1283 -0.1669
18185W        W31599  15.520   3.353   1.405  0.2053 -0.2600  0.0234
18186W        W31600  10.263   8.623  15.670  0.1351  0.2490 -0.0417
18187W        W31601  10.445   0.051   3.718 -0.1163  0.0988  0.2563
18188W        W31602  10.939   3.130   1.831 -0.1335 -0.0600  0.0542
18189W        W31603   3.513  16.617   1.677 -0.2235  0.1436 -0.1848
18190W        W31604   2.293   4.475   5.477 -0.0524 -0.2353  0.0706
18191W        W31605  16.339   0.704  11.292 -0.1645  0.1361 -0.3769
18192W        W31606  16.365  15.702  11.190 -0.1560 -0.2180  0.2170
18193W        W31607   0.452  15.959   6.200  0.0983 -0.0304  0.0900
18194W        W31608   5.661   4.715  11.852  0.2836 -0.0463 -0.1625
18195W        W31609   6.972   5.073   3.893 -0.1800 -0.2858  0.1768
18196W        W31610   7.015   7.588  12.097 -0.0839 -0.0336 -0.4956
18197W        W31611   3.854  13.550  16.328 -0.4423 -0.1836  0.0571
18198W        W31612  17.660   5.153   5.481  0.4752  0.0940  0.1063
18199W        W31613  15.520  17.374  16.378  0.1478 -0.0346  0.0432
18200W        W31614  10.328  13.873  13.008  0.0143  0.0188  0.0572
18201W        W31615   0.946   8.721   6.105  0.2135 -0.0694  0.1004
18202W        W31616   8.409   6.774   1.446 -0.0753  0.1433 -0.0867
18203W        W31617   6.341   3.194  14.365 -0.0124  0.2764 -0.1067
18204W        W31618  11.751  11.797  14.168 -0.2338 -0.1802 -0.0169
18205W        W31619  17.882   1.104  16.098  0.2266 -0.0976  0.0123
18206W        W31620   6.741   3.129  12.459 -0.2722  0.1091 -0.0509
18207W        W31621   8.134  14.293   4.713  0.4632 -0.0622 -0.2629
18208W        W31622  15.906   5.315  11.336  0.1007 -0.0450  0.4425
18209W        W31623   1.065   9.863  11.366 -0.0089 -0.1037  0.2922
18210W        W31624  17.541   0.931  10.317 -0.0249  0.3126 -0.2093
18211W        W31625   6.196  16.857   1.794 -0.2200  0.1637  0.0894
18212W        W31626  14.439   9.759   5.684  0.0707  0.2316  0.1855
18213W        W31627  15.877   0.392   6.270  0.1196  0.0440 -0.0806
18214W        W31628   6.898   0.716  12.718 -0.0567 -0.1153  0.2345
18215W        W31629  16.370  15.955   0.735  0.2153  0.0978  0.0684
18216W        W31630   7.927  14.174  12.538  0.0941 -0.4797 -0.0833
18217W        W31631  10.078   9.393   1.868 -0.0397  0.0201  0.0802
18218W        W31632   1.879  12.041  11.342 -0.0572  0.1750  0.3323
18219W        W31633  14.505   9.261   0.717  0.0222 -0.0256 -0.3180
18220W        W31634   6.831   1.486  10.618 -0.1466 -0.1969  0.3137
18221W        W31635   2.076  17.262  13.721  0.1256 -0.0418 -0.1090
18222W        W31636  14.629   5.370  12.796  0.1191  0.0015  0.5078
18223W        W31637  12.943  17.471  14.991  0.5074  0.1088 -0.2256
18224W        W31638  14.008  10.016   4.926 -0.1088 -0.1115 -0.1335
18225W        W31639   6.436  13.186  15.158  0.3903 -0.1564  0.2954
18226W        W31640  14.081  10.859   2.845  0.1434 -0.0671  0.3331
18227W        W31641   1.917  16.563   4.173 -0.4035 -0.0436  0.0354
18228W        W31642  14.903   7.270   6.082  0.1524 -0.0765 -0.0240
18229W        W31643   3.459  13.268  15.449  0.4425 -0.0542  0.1079
18230W        W31644   8.543   5.112   0.345  0.2639  0.1226  0.0844
18231W        W31645  16.120  15.268  11.164  0.0286  0.1722 -0.0711
18232W        W31646  13.231   4.725  13.439 -0.2398 -0.2930  0.1439
18233W        W31647   8.474   8.583   3.537 -0.1645  0.0584 -0.0268
18234W        W31648  17.878  16.732  16.627  0.2675  0.0041  0.4321
18235W        W31649   1.816  15.480   4.280 -0.1290 -0.0795  0.0364
18236W        W31650   2.622   1.028   2.098 -0.0059  0.1823 -0.3449
18237W        W31651  15.189  13.286  16.479  0.1209  0.3247 -0.2008
18238W        W31652   8.900   5.269   1.325  0.4358  0.0367 -0.0261
18239W        W31653  17.034  12.028  11.787  0.0666 -0.3220 -0.0839
18240W        W31654  14.319  15.295  15.387  0.0806  0.2294  0.0950
18241W        W31655   7.251   3.879  15.368 -0.2223 -0.0000 -0.2068
18242W        W31656  15.553   7.094   5.108  0.2290  0.0418 -0.2693
18243W        W31657   7.350  10.428  10.805 -0.2511  0.1177 -0.0160
18244W        W31658  16.442   1.004  15.584  0.0152  0.2716 -0.0858
18245W        W31659   1.036   8.564  13.648  0.0459  0.0716  0.4577
18246W        W31660   1.162  11.657  15.481 -0.1261 -0.0857 -0.0252
18247W        W31661   0.302  14.260   4.988 -0.1005  0.1248 -0.0111
18248W        W31662  16.913  16.408   1.891 -0.0104 -0.0630  0.0443
18249W        W31663   3.045   6.179   2.819 -0.0054  0.1950  0.2282
18250W        W31664  10.294   7.050  15.283  0.1117  0.0948 -0.1883
18251W        W31665   1.584   1.353  14.133 -0.1224 -0.2930  0.0763
18252W        W31666   0.707  14.999   3.983  0.1086  0.2812 -0.0025
18253W        W31667   9.844   4.577   3.084 -0.0636 -0.0408 -0.2969
18254W        W31668   2.452   7.889   3.106 -0.1194 -0.2366  0.0272
18255W        W31669   2.563   0.293   3.150 -0.0689  0.0361 -0.2903
18256W        W31670   6.718   0.086   4.502  0.1171  0.2392  0.1385
18257W        W31671  16.172   4.419  15.087 -0.2047  0.2555 -0.0085
18258W        W31672  13.989   6.330   2.385  0.1312 -0.0712 -0.2223
18259W        W31673   3.986   5.796  15.466 -0.0213 -0.3181  0.1761
18260W        W31674  17.974   7.873  13.160 -0.1341 -0.0218  0.0940
18261W        W31675   8.570  12.569  16.465 -0.2348  0.1139 -0.0896
18262W        W31676   8.130   8.564   5.165 -0.1611  0.0573 -0.1705
18263W        W31677   0.889  10.033  15.241 -0.2782  0.0257 -0.0300
18264W        W31678  10.680   8.126   0.897  0.0370  0.0104 -0.0549
18265W        W31679  12.154   2.302  13.829 -0.0992 -0.1603  0.0100
18266W        W31680   6.242  15.482  10.727  0.0316 -0.0613  0.0166
18267W        W31681   3.711  17.568  10.986 -0.4930 -0.0643  0.0434
18268W        W31682  11.484   3.552  14.963 -0.0407  0.0082  0.1957
18269W        W31683   9.475  13.977   1.019 -0.3108 -0.1990 -0.1519
18270W        W31684   6.219  11.627  10.689  0.2156 -0.2020  0.3932
18271W        W31685   6.674   9.203  16.272 -0.0364 -0.2433  0.1035
18272W        W31686   7.260  13.171  16.443 -0.1350  0.0931  0.0666
18273W        W31687  14.025   2.796   5.739 -0.1771 -0.0835 -0.0637
18274W        W31688  11.969   0.376   0.047 -0.2315  0.1379  0.0578
18275W        W31689   7.550   8.766   5.619  0.0161 -0.0852 -0.0425
18276W        W31690  12.690  11.314   7.073  0.3309  0.0739 -0.0065
18277W        W31691   6.817   0.424   5.236 -0.1673 -0.3487 -0.2373
18278W        W31692   7.502   5.866   1.841  0.1162  0.2417 -0.0764
18279W        W31693   7.920  17.213  13.312 -0.1675  0.1501 -0.2183
18280W        W31694  14.089   0.987  13.439  0.0430  0.1819 -0.3013
18281W        W31695   8.946   8.534  15.707  0.1733 -0.0781 -0.0990
18282W        W31696  16.581   1.146   5.488  0.2837 -0.2135 -0.1027
18283W        W31697   1.549   0.575  15.887  0.2119 -0.2559 -0.2851
18284W        W31698   7.619  16.381   3.492 -0.1954 -0.0977 -0.0762
18285W        W31699   7.017  13.366  11.417 -0.1243 -0.1315 -0.1044
18286W        W31700   6.300   2.259   4.638  0.3387  0.2758  0.0548
18287W        W31701  10.008  12.578   5.095 -0.1886 -0.2008  0.3189
18288W        W31702  17.266  10.168   5.221 -0.1935  0.0948  0.0388
18289W        W31703   4.430  11.384  11.300  0.0091 -0.3144 -0.1895
18290W        W31704   7.921  14.594  12.086  0.2007  0.2643 -0.1889
18291W        W31705  14.485  10.881   3.127  0.1179  0.2332 -0.0905
18292W        W31706   9.141   9.396   3.939 -0.2729 -0.1829  0.3759
18293W        W31707   1.533  11.404   2.264 -0.3084  0.0423 -0.2288
18294W        W31708   5.272   2.399   4.627  0.3485 -0.1890 -0.0694
18295W        W31709   5.200  13.945  13.482  0.0916  0.1941  0.1217
18296W        W31710   8.895  14.363   4.207 -0.3923  0.0439  0.2480
18297W        W31711  16.128  11.031   3.774  0.1674 -0.0105 -0.0321
18298W        W31712   7.253   4.992  10.944 -0.2216 -0.2089  0.1952
18299W        W31713  12.000   0.307   2.173 -0.0316  0.2556 -0.0089
18300W        W31714  15.192   0.549   4.040 -0.2061  0.3295  0.1332
18301W        W31715  15.465  14.058  11.339  0.1503 -0.2675 -0.3593
18302W        W31716   5.173   2.843   0.408 -0.0312  0.0935 -0.1847
18303W        W31717   9.491  14.670  13.997  0.0391 -0.0786  0.1477
18304W        W31718  16.457   9.509   0.309  0.0274 -0.2060 -0.2021
18305W        W31719   8.632   8.924   0.256 -0.0399 -0.3890 -0.2969
18306W        W31720  10.974  15.672  15.443  0.1228  0.0243 -0.0977
18307W        W31721  16.083   2.238   1.033  0.2262 -0.0830 -0.1918
18308W        W31722  12.452   3.402   5.289  0.3149 -0.0964  0.1818
18309W        W31723   4.476   2.990  13.722 -0.3807 -0.1109 -0.1272
18310W        W31724  10.192   6.715   0.633 -0.1162  0.0491  0.0065
18311W        W31725   5.886  11.870  11.531  0.3294  0.1187 -0.2601
18312W        W31726   2.637   1.380  14.334  0.0867  0.2318 -0.0601
18313W        W31727   7.569   2.375  15.475  0.0877 -0.0189 -0.0870
18314W        W31728   7.865   8.904   6.469  0.3036 -0.0378  0.3169
18315W        W31729  10.455   9.344  12.206  0.0309 -0.3656  0.0837
18316W        W31730   7.356   5.257  14.999 -0.1253 -0.3406  0.2164
18317W        W31731   6.402   3.573  12.489 -0.0555 -0.3188 -0.0477
18318W        W31732   9.006  10.417   1.757  0.2704 -0.0543  0.2210
18319W        W31733   2.244  16.779   4.488 -0.2933 -0.1854 -0.1227
18320W        W31734   0.271   0.291   2.105 -0.0658 -0.1170 -0.0031
18321W        W31735   4.364  12.549   3.862 -0.0004  0.0469 -0.1579
18322W        W31736   1.804  10.508  16.069  0.1268 -0.0283  0.3104
18323W        W31737   5.507  10.264   6.252  0.0675  0.2120 -0.2335
18324W        W31738   7.469   3.545   2.531 -0.1118 -0.1586  0.0687
18325W        W31739  17.081  17.930  15.299 -0.0395 -0.0802 -0.1279
18326W        W31740  11.483  16.515  11.206 -0.0905 -0.1168 -0.0901
18327W        W31741   0.395   3.418  10.328  0.1069 -0.2305  0.1796
18328W        W31742   0.375  17.788  10.202 -0.0017 -0.2557  0.1634
18329W        W31743   6.250   0.709   1.337 -0.0894 -0.2422  0.0170
18330W        W31744   1.477   5.283  15.229 -0.3169  0.3225 -0.0874
18331W        W31745   2.120  17.711  15.790  0.0891 -0.0459  0.0128
18332W        W31746   0.100   5.595   3.707  0.3022  0.5361  0.0209
18333W        W31747   7.029   2.419   0.883  0.2605 -0.1446  0.3397
18334W        W31748  15.353   5.775   4.739 -0.1378  0.4692  0.2807
18335W        W31749   9.876  16.487  10.754 -0.2559 -0.2233 -0.2102
18336W        W31750  11.741   9.070   5.853  0.1191  0.1378 -0.0714
18337W        W31751   1.840  14.381  14.209  0.2835 -0.0633 -0.4212
18338W        W31752  12.789  10.374   0.661  0.0157  0.1211  0.1561
18339W        W31753  12.051   9.081  14.094 -0.1630  0.1677 -0.0632
18340W        W31754   1.801   2.190   0.538 -0.0999 -0.0534 -0.1976
18341W        W31755   9.568   5.791  16.339  0.2146  0.2281  0.0065
18342W        W31756  10.103   4.079  12.727  0.0808  0.2339  0.2034
18343W        W31757   8.309  10.598   2.323 -0.1078  0.1006 -0.0270
18344W        W31758   5.813  13.897   0.077  0.2794  0.1561 -0.0285
18345W        W31759   3.687   4.506  14.009 -0.1042  0.0835  0.3457
18346W        W31760   9.044  10.191   3.886  0.2349  0.0551 -0.0016
18347W        W31761  10.116   4.969  15.990 -0.0650 -0.0471  0.1861
18348W        W31762  14.853  12.488  14.050 -0.1796 -0.0535  0.0533
18349W        W31763   8.835  14.379   6.092  0.5106  0.0496  0.4508
18350W        W31764  13.353  17.387  16.157  0.2643 -0.1810 -0.0488
18351W        W31765   6.878  15.066   3.417 -0.0639 -0.2855 -0.0131
18352W        W31766   5.774   6.545  15.638  0.1371 -0.2867  0.0347
18353W        W31767  16.330   2.872  12.673  0.4859  0.0810 -0.1280
18354W        W31768   4.783   6.748   5.157 -0.2566  0.1819 -0.2842
18355W        W31769  16.222   3.109  10.879  0.1186 -0.0539 -0.0612
18356W        W31770   6.295  15.294  15.868 -0.1250 -0.1150 -0.1119
18357W        W31771  13.961  16.703   5.247 -0.4353  0.0595  0.1610
18358W        W31772   6.868  11.849  12.650 -0.2415 -0.2568  0.0394
18359W        W31773   4.449  13.477   5.583 -0.0727  0.0142 -0.2582
18360W        W31774  13.357  15.738  12.933  0.2056  0.4059 -0.1520
18361W        W31775   0.491  17.326  15.461 -0.1357  0.0453  0.1982
18362W        W31776   3.519   4.660   4.434 -0.0401 -0.0082 -0.1812
18363W        W31777  12.007  16.379   2.333  0.1259  0.1750 -0.2279
18364W        W31778  15.486   4.021   3.245  0.0421  0.1297 -0.1797
18365W        W31779  12.542  16.517   1.197  0.2745  0.0623 -0.2160
18366W        W31780   9.487  11.059  13.415 -0.1424  0.0030  0.2713
18367W        W31781  11.244   3.426   2.276 -0.0610  0.0697 -0.1521
18368W        W31782  10.579   1.708   4.265  0.0273 -0.1898  0.1381
18369W        W31783   3.925  13.826  16.756  0.0069 -0.2339 -0.0542
18370W        W31784  16.221   3.708   2.385  0.0818  0.0110 -0.0079
18371W        W31785  15.067  13.776  16.629 -0.1905  0.0535 -0.1491
18372W        W31786  14.284   8.237   4.573  0.0035  0.0517  0.4351
18373W        W31787  16.020  17.927  11.686 -0.3218 -0.3454  0.1079
18374W        W31788  15.318  16.392   4.451 -0.1439 -0.0852 -0.0762
18375W        W31789   7.356  12.629  14.245 -0.0295  0.1249  0.2857
18376W        W31790  17.883  15.436  16.074  0.1661  0.3759 -0.0917
18377W        W31791  12.058   7.237   0.659 -0.0104 -0.1762 -0.0690
18378W        W31792   6.176   3.980  12.276  0.0553 -0.2260  0.0400
18379W        W31793   7.193  13.972   2.850 -0.1468 -0.1166  0.1306
18380W        W31794   1.452   6.187   4.516  0.1494 -0.1994 -0.0483
18381W        W31795   5.904  10.693  13.694 -0.0744 -0.1915 -0.1960
18382W        W31796   5.588  17.819  16.216  0.2001  0.1981 -0.1942
18383W        W31797  14.002   1.760   4.674  0.1576 -0.0501 -0.0384
18384W        W31798  13.860   2.631   4.190 -0.1227  0.3341 -0.1645
18385W        W31799  14.752   3.642  14.886  0.1331  0.0047  0.1221
18386W        W31800   6.803   0.742   3.010  0.2151  0.2345  0.3146
18387W        W31801   9.105   3.736  12.505 -0.1826  0.1106 -0.0516
18388W        W31802  17.382   8.180  16.303  0.1217  0.0418  0.0520
18389W        W31803   7.777   2.899  11.145 -0.2057 -0.1857 -0.0845
18390W        W31804  11.605   1.523   2.517  0.0446 -0.0134 -0.0238
18391W        W31805   2.269   6.064   5.681 -0.0105 -0.2452  0.0729
18392W        W31806   0.036   0.256   1.345 -0.0678  0.0409  0.3550
18393W        W31807  13.596   6.383   4.767 -0.1698 -0.1888  0.2617
18394W        W31808  17.612   5.667   5.597  0.0052  0.0384 -0.1115
18395W        W31809   4.079  13.763  12.698  0.0620  0.0515  0.1292
18396W        W31810   4.622   4.565  16.457  0.1233 -0.0852 -0.2499
18397W        W31811   9.081  13.272  12.524 -0.1183  0.0799 -0.1090
18398W        W31812  16.470   5.479   5.821  0.0886 -0.0940  0.2183
18399W        W31813  12.677   7.663  16.656  0.1549 -0.2469  0.0327
18400W        W31814  13.163  17.141   3.152  0.0464 -0.0678 -0.0735
18401W        W31815  17.645   6.304   0.053 -0.2860  0.1703 -0.3178
18402W        W31816  13.301  17.020   1.163  0.0313  0.1742 -0.2446
18403W        W31817  15.930   0.932   0.351 -0.1559 -0.1287 -0.0831
18404W        W31818  14.547  17.013  13.042  0.5219  0.0926 -0.0695
18405W        W31819  11.608  17.400   1.508  0.1567  0.4774  0.1195
18406W        W31820   7.689   4.966   2.413  0.2028  0.0919  0.2250
18407W        W31821   3.775   8.069  12.926 -0.0549  0.0220  0.0309
18408W        W31822   9.125   4.739  11.781 -0.1348  0.3857  0.2631
18409W        W31823  13.335  17.575   3.019 -0.0508 -0.1990  0.1224
18410W        W31824   6.825  11.417   4.776  0.2607  0.1456  0.2338
18411W        W31825  17.589  14.150  11.933 -0.0854 -0.0026 -0.0854
18412W        W31826   2.220   5.010   4.225 -0.2457 -0.5227  0.1074
18413W        W31827   8.899   8.142  15.981  0.2884  0.1162 -0.0555
18414W        W31828   5.071  17.836   4.944 -0.1141  0.0699 -0.0144
18415W        W31829   6.808  12.488  13.896  0.3138  0.0976 -0.0118
18416W        W31830   1.128   3.574  16.349  0.0338 -0.2478 -0.0360
18417W        W31831  17.218   8.983  12.077  0.0259 -0.2055 -0.0075
18418W        W31832   7.226  14.596   2.120 -0.1137  0.1121  0.1186
18419W        W31833  16.287   7.433  14.226  0.1131  0.1507  0.2670
18420W        W31834  12.836   8.638  10.472  0.2783 -0.2656 -0.0280
18421W        W31835   3.903  17.081  14.635 -0.2066  0.1633 -0.0481
18422W        W31836   6.512   6.071  13.577 -0.2121  0.2288 -0.1902
18423W        W31837   8.359  12.113   5.977  0.4705 -0.0424 -0.2036
18424W        W31838  12.437   0.530  10.829  0.4069 -0.0440  0.3142
18425W        W31839   0.012   6.328  15.864 -0.1591  0.3063 -0.0042
18426W        W31840   9.414  17.381   6.788  0.1956 -0.2119 -0.1368
18427W        W31841   7.454   8.130   4.274  0.2440  0.2722  0.2734
18428W        W31842  14.374   4.736  15.522  0.0505  0.3000 -0.0769
18429W        W31843   7.713  13.214   5.659 -0.0904 -0.0300  0.4789
18430W        W31844   0.753   5.348   2.253 -0.0758  0.3284  0.1337
18431W        W31845   4.383   6.664  14.635 -0.1312 -0.0529 -0.1860
18432W        W31846   2.175  15.686   1.931 -0.1738  0.1029  0.0815
18433W        W31847   7.114   2.098   1.704  0.0044  0.1378 -0.1565
18434W        W31848  13.760   2.207   3.426  0.1471 -0.2704 -0.3125
18435W        W31849  13.083   6.796   4.149  0.1089  0.2243  0.1750
18436W        W31850  12.812   2.603  13.074  0.0879  0.0963  0.1596
18437W        W31851  15.231  14.099   3.300  0.0439  0.3108 -0.0701
18438W        W31852   8.879   6.190  14.651 -0.1635  0.3683 -0.1872
18439W        W31853  14.741  10.092  15.899 -0.1360  0.1548  0.2162
18440W        W31854   1.477   7.803  14.511  0.2096 -0.0826  0.1293
18441W        W31855   3.820   7.755   0.765 -0.3258 -0.1516  0.1970
18442W        W31856   4.012   5.906   0.953  0.1606 -0.0582 -0.1825
18443W        W31857  15.885   9.161   4.183 -0.2005 -0.2218 -0.2598
18444W        W31858   1.759  15.971   3.432 -0.2267  0.0780  0.1544
18445W        W31859  17.529  15.195   4.745 -0.1387 -0.3754  0.0423
18446W        W31860   9.127   7.784   4.181  0.2710  0.1088 -0.0881
18447W        W31861   3.204   8.108   4.524 -0.0736  0.1231 -0.3070
18448W        W31862  12.429  16.301  15.934 -0.0249 -0.4010  0.0896
18449W        W31863  17.647  17.491  15.446  0.2231  0.1971  0.3639
18450W        W31864  13.762  14.861  13.485  0.0604  0.1479  0.0061
18451W        W31865  17.453  16.101   2.088 -0.0400 -0.2342  0.0582
18452W        W31866  15.359   8.891  14.899 -0.0400 -0.1379  0.0827
18453W        W31867   4.367   6.040   2.289  0.0338  0.1630  0.4938
18454W        W31868   0.346   0.773   3.613 -0.3117  0.0718  0.0749
18455W        W31869   0.269   6.494   0.348  0.3199 -0.2455 -0.1139
18456W        W31870   5.923  10.435   0.604  0.0214 -0.3637 -0.0937
18457W        W31871   7.108   4.537  11.994 -0.2560 -0.0766  0.0021
18458W        W31872   3.616   1.383  15.951 -0.2144 -0.0824 -0.1439
18459W        W31873  10.091   4.886  13.186 -0.2187 -0.1725  0.3388
18460W        W31874  15.653   9.061   5.540 -0.3894 -0.0071  0.5234
18461W        W31875   4.683   5.764   0.330 -0.1839 -0.2676 -0.1571
18462W        W31876   7.847   7.943   3.117  0.0788 -0.0070  0.0306
18463W        W31877   3.746   2.468  14.894  0.2313 -0.2368  0.0431
18464W        W31878  10.999  17.243  15.182 -0.0414  0.2109  0.0249
18465W        W31879  16.754   4.964  10.718  0.2771  0.0506 -0.0884
18466W        W31880   6.106  10.085  15.085 -0.2703 -0.1189 -0.0331
18467W        W31881   2.477  11.115   0.228  0.2312 -0.1700 -0.0473
18468W        W31882  11.069  16.516   3.928  0.2009  0.2762  0.0884
18469W        W31883   6.042   2.673  16.519 -0.1259  0.0037 -0.1528
18470W        W31884  16.409  15.699  12.626  0.2940  0.3487  0.0849
18471W        W31885   2.657   7.364   2.155  0.0771  0.1360  0.0984
18472W        W31886  12.587  10.018   1.947 -0.1966 -0.0474  0.1326
18473W        W31887   3.766   6.775   3.663 -0.2294  0.0087 -0.0583
18474W        W31888   7.830  11.862  13.644  0.1020  0.1640  0.0271
18475W        W31889  10.700   5.645  15.005 -0.0902  0.0345 -0.0373
18476W        W31890   3.281   8.743   5.469  0.0560  0.1595 -0.0295
18477W        W31891   0.791  15.774  13.389  0.1728 -0.0759 -0.0762
18478W        W31892   5.626   5.464   1.255  0.0752  0.0618 -0.0570
18479W        W31893   1.810  15.061  14.422 -0.4859 -0.3084  0.1422
18480W        W31894   9.212  17.674  15.902 -0.1490 -0.0901 -0.2549
18481W        W31895  12.891   0.404   3.288  0.2667 -0.1878  0.0196
18482W        W31896   1.507   7.849   5.944 -0.1688 -0.3257  0.1007
18483W        W31897   5.564  15.195   1.289  0.0445  0.0154 -0.5643
18484W        W31898   8.117  14.009   5.959 -0.2639 -0.2477  0.3754
18485W        W31899  16.783   9.234  11.954 -0.1452  0.1068 -0.1998
18486W        W31900   1.279   1.444  15.437  0.2390  0.1203  0.2105
18487W        W31901  10.505  15.963   2.222 -0.0281 -0.1622 -0.2581
18488W        W31902  12.862  12.885  15.502 -0.1899  0.2817  0.1788
18489W        W31903   1.636   1.740   2.308 -0.1430 -0.2453  0.1352
18490W        W31904   0.848  14.172  14.524  0.0246 -0.2461  0.0325
18491W        W31905   4.459  15.823  10.860  0.1728  0.0614  0.0512
18492W        W31906   5.099  13.806  14.868  0.0706  0.0083  0.2671
18493W        W31907  15.558  14.137  10.737 -0.1202 -0.1743 -0.0142
18494W        W31908   5.625   3.381   4.734  0.0880 -0.0908 -0.0715
18495W        W31909   0.077  15.186  12.322  0.0403  0.0862 -0.0109
18496W        W31910   0.813   3.754   3.054 -0.0759  0.1533 -0.1191
18497W        W31911   6.211   2.312  15.084  0.2751 -0.2476 -0.1192
18498W        W31912  16.776   8.749   1.840 -0.0795 -0.0795 -0.3347
18499W        W31913   8.190  13.713  11.318 -0.2315  0.0679  0.1087
18500W        W31914  12.555   0.851  13.158  0.0194 -0.1388 -0.1436
18501W        W31915  15.323  10.200  13.908 -0.0412 -0.0926 -0.1612
18502W        W31916   7.583  15.664   2.200  0.1333  0.1646 -0.0465
18503W        W31917  15.641  12.748  15.658 -0.1504  0.2980  0.1080
18504W        W31918  12.555  10.074  15.048 -0.1475  0.1471 -0.0842
18505W        W31919   4.938   4.001   4.300  0.0371  0.1377 -0.0348
18506W        W31920  17.525   2.019  15.168 -0.0317 -0.0208  0.2749
18507W        W31921  10.159  11.771   3.454  0.0523  0.1642  0.1924
18508W        W31922  13.341   2.078  13.379  0.0415 -0.0766  0.1579
18509W        W31923   7.661   5.627  11.424  0.0976 -0.0646 -0.3813
18510W        W31924   5.788   0.702  16.328 -0.1842 -0.2762 -0.0416
18511W        W31925  16.801  14.640  11.429  0.1160 -0.3546  0.0240
18512W        W31926  16.536   9.673  15.977 -0.0152  0.1256 -0.0966
18513W        W31927   8.061   4.504   5.265 -0.0884  0.3246 -0.1471
18514W        W31928  17.272  10.647  15.130  0.1360  0.1642  0.2127
18515W        W31929   1.979   7.254  15.791 -0.1080  0.2273 -0.0478
18516W        W31930   8.841  14.508  14.068 -0.1305 -0.0189 -0.3046
18517W        W31931  11.509   4.318  13.170  0.2622  0.0481  0.1939
18518W        W31932  14.991  16.173  12.585 -0.3308  0.0183  0.1902
18519W        W31933  13.012  15.022  16.498 -0.3577 -0.1315 -0.1636
18520W        W31934  16.487   6.667  13.531  0.1291 -0.0534 -0.3324
18521W        W31935   4.829  16.350  16.160  0.0575 -0.5009 -0.1433
18522W        W31936   8.623  14.778   5.448 -0.0167  0.0811  0.1701
18523W        W31937   3.626   5.762   2.672 -0.1256 -0.2231 -0.4219
18524W        W31938   6.397   7.376   0.962  0.0643  0.2199 -0.0566
18525W        W31939   5.182   1.141   5.411 -0.0127  0.2385  0.2550
18526W        W31940  10.253  17.925  16.100  0.0639  0.2570 -0.1108
18527W        W31941   6.856  13.136   3.728  0.0985 -0.2993  0.2128
18528W        W31942   1.915   5.809  16.602  0.0534  0.2087 -0.1541
18529W        W31943  17.162   8.229   4.179 -0.1485 -0.2274 -0.5198
18530W        W31944  16.774   4.254   6.297  0.0990 -0.2034  0.0544
18531W        W31945  16.382   9.594   2.049  0.1201 -0.2379 -0.0188
18532W        W31946   8.785  11.042   3.599 -0.2330  0.2970  0.3361
18533W        W31947   6.260   7.039   1.829  0.0381  0.4195 -0.1710
18534W        W31948   5.660   2.367  11.985 -0.1165  0.2276 -0.0842
18535W        W31949   2.520  13.142  11.429 -0.4301 -0.1294  0.0540
18536W        W31950   1.795  14.660   3.558 -0.2940  0.1443 -0.0194
18537W        W31951   8.168  17.209  15.276 -0.2018 -0.0431 -0.0164
18538W        W31952  10.186   1.794  16.356 -0.1106 -0.1238  0.0506
18539W        W31953   7.039   5.506   1.006  0.2358 -0.1698 -0.0806
18540W        W31954  14.213   4.990   1.024 -0.0476 -0.5178 -0.1883
18541W        W31955   4.912  14.340   1.285  0.2154  0.1081 -0.5317
18542W        W31956   9.272  16.505   0.938 -0.0365  0.2341  0.2509
18543W        W31957   2.914   0.224   4.699  0.0955  0.2184  0.0557
18544W        W31958  16.682   6.027   0.982  0.0775 -0.0689  0.2032
18545W        W31959  11.891   1.256  10.415  0.0561  0.1635  0.1446
18546W        W31960  10.063   3.875  15.243  0.0439 -0.1479  0.1417
18547W        W31961   4.338  16.824   4.814 -0.3069  0.1793 -0.2301
18548W        W31962   7.024   5.213  13.129 -0.2730 -0.2089  0.0604
18549W        W31963   5.113  17.592  14.011  0.1068 -0.0464  0.1937
18550W        W31964   9.781  14.885  15.105  0.0275  0.2522  0.3405
18551W        W31965   2.507   4.834  14.198 -0.0131 -0.1789 -0.2500
18552W        W31966   1.157   3.143  12.653  0.1149 -0.0462  0.3882
18553W        W31967   5.249  11.868   0.572  0.1572 -0.0328 -0.0180
18554W        W31968   4.665   7.788  11.929  0.0883 -0.1908  0.2519
18555W        W31969  13.163  10.940   6.371  0.1517 -0.0626 -0.0354
18556W        W31970   3.825   0.751   3.459  0.0733 -0.0046 -0.1797
18557W        W31971  17.233  13.201   1.801 -0.0806  0.0699  0.0467
18558W        W31972  11.721   9.097  11.823  0.1742 -0.2660  0.2600
18559W        W31973   4.085   0.316   3.536  0.1477  0.0291 -0.0792
18560W        W31974  12.122  12.006  16.450  0.2020 -0.0528 -0.1205
18561W        W31975   1.938  10.247  11.401  0.1481  0.0904 -0.1474
18562W        W31976   9.031   4.840   4.605  0.1532 -0.0875 -0.0928
18563W        W31977  17.524   9.666   2.788  0.0572  0.0623 -0.1562
18564W        W31978   3.272   2.187   3.722  0.3190  0.2375  0.0079
18565W        W31979  10.601   4.693   3.625 -0.0489  0.1562 -0.2316
18566W        W31980   1.562  10.797   3.857  0.0743 -0.2794 -0.2022
18567W        W31981   9.389  10.974   4.190 -0.2899 -0.0497  0.2438
18568W        W31982   7.433  12.221   0.248 -0.0226  0.3406 -0.3132
18569W        W31983  16.158   0.219   2.713  0.0376  0.0666 -0.0482
18570W        W31984  10.782  15.701   6.623  0.3014  0.0369 -0.0087
18571W        W31985   0.343   9.634   3.258 -0.5342  0.0935 -0.1480
18572W        W31986   1.326   7.538  15.045  0.0938  0.2302  0.0069
18573W        W31987   9.729  13.023  14.201  0.0657 -0.1817  0.0845
18574W        W31988  12.607   1.559   3.521 -0.0633  0.0531 -0.0818
18575W        W31989   6.299  14.672  16.140 -0.0485  0.0869 -0.0182
18576W        W31990  10.865   6.753  14.119  0.1622 -0.1080  0.3700
18577W        W31991  15.425   5.148  11.207 -0.2766  0.2338 -0.2338
18578W        W31992  10.934   6.967  15.937  0.3732  0.0285 -0.2102
18579W        W31993   6.340   5.520   3.214  0.1662  0.1761  0.2887
18580W        W31994   2.089  14.366   1.017 -0.1079  0.0614 -0.0119
18581W        W31995   5.506   6.033  14.953 -0.1327 -0.1734 -0.0565
18582W        W31996   9.540   7.294   0.806 -0.1046 -0.0019 -0.0732
18583W        W31997   2.408   8.418   5.000  0.1743  0.0150  0.4418
18584W        W31998   8.518  14.966  13.182  0.2695 -0.1956 -0.1738
18585W        W31999   8.741   9.931   2.620  0.1116  0.3264 -0.1812
18586W        W32000  17.015   8.716   4.223  0.0139  0.0839 -0.0175
18587W        W32001   4.826   3.127  16.209  0.3332 -0.2582  0.0015
18588W        W32002  15.478   3.196  13.236 -0.2464  0.1525 -0.0766
18589W        W32003   5.907  14.333  16.710  0.3820 -0.1164 -0.0475
18590W        W32004   7.181   9.427  13.212 -0.3388  0.0604  0.0730
18591W        W32005  14.704   9.130   4.167  0.0245 -0.1270 -0.1411
18592W        W32006  13.893   8.564  10.563  0.2242 -0.1471  0.1444
18593W        W32007  13.245  10.155   4.943  0.2087  0.0618 -0.1611
18594W        W32008   3.302   2.324  13.392  0.0721  0.2090 -0.0136
18595W        W32009   2.853  14.883   5.716 -0.1004 -0.0798 -0.0481
18596W        W32010   2.497   9.013  10.924 -0.1780  0.0179 -0.2231
18597W        W32011   3.297  17.539  16.087 -0.0683  0.2197 -0.2141
18598W        W32012   7.656  11.495   4.864  0.2605 -0.0999 -0.2702
18599W        W32013   5.980   3.858   2.777  0.1160  0.0684  0.1624
18600W        W32014  16.656   5.401   5.033  0.1248 -0.1423  0.1578
18601W        W32015   6.958   0.950   3.473 -0.0202 -0.0525 -0.0187
18602W        W32016  16.769   3.569   0.942 -0.0517  0.0953 -0.0214
18603W        W32017   3.390   5.088  11.807 -0.1057 -0.0459 -0.3957
18604W        W32018  14.020  11.504   6.222  0.0430  0.0572  0.0907
18605W        W32019  11.107  12.734   2.219 -0.0731 -0.1786 -0.0367
18606W        W32020   3.701  16.459   2.182 -0.0790  0.0914 -0.2619
18607W        W32021   9.713  11.869   3.133 -0.1799  0.0413 -0.1922
18608W        W32022  17.688   1.277  14.689 -0.0976  0.2268 -0.5036
18609W        W32023  11.524   1.733  13.679 -0.1273 -0.0487  0.0064
18610W        W32024   4.805  15.961  14.346 -0.0147  0.0772 -0.1649
18611W        W32025   9.162   0.535   4.369  0.2740  0.1978 -0.0879
18612W        W32026  16.405  12.269   1.615 -0.0967 -0.0989  0.0514
18613W        W32027   2.225  13.088   2.090  0.0375  0.0936  0.0840
18614W        W32028   6.878   3.845   1.027  0.0075  0.2365  0.1399
18615W        W32029   5.544   2.809  14.754  0.1596  0.2193 -0.0032
18616W        W32030   8.414   5.151   1.620  0.0713 -0.1779 -0.0400
18617W        W32031   1.926  17.757  14.591 -0.0934 -0.0714 -0.2401
18618W        W32032   3.112   5.985  15.420 -0.2077 -0.1231 -0.2259
18619W        W32033   3.265  15.429  12.548  0.0495  0.0565  0.1072
18620W        W32034  11.102  11.083  11.522 -0.0193 -0.1441 -0.1054
18621W        W32035   1.072  12.474  10.974  0.0484  0.0655 -0.1218
18622W        W32036   6.889   1.241   3.104  0.0479  0.0240 -0.0126
18623W        W32037  11.754   3.284  15.855  0.0434  0.0611  0.1068
18624W        W32038  17.771   5.893  11.833 -0.0438 -0.1785  0.0092
18625W        W32039   0.219   4.898   2.893  0.0786  0.1034 -0.2026
18626W        W32040   4.130  15.810   5.403 -0.1411  0.2224  0.1234
18627W        W32041   6.198   0.141  15.169 -0.1826  0.0101  0.2080
18628W        W32042  10.063   9.980   4.763  0.3768 -0.0651 -0.0534
18629W        W32043   4.137  14.872   1.458  0.1513 -0.0099 -0.2990
18630W        W32044  16.996   5.103  14.192 -0.1632  0.0763 -0.2620
18631W        W32045  10.477  17.880  13.048  0.1816  0.2335 -0.0892
18632W        W32046   8.862  11.255   1.632  0.2843 -0.0616  0.1513
18633W        W32047  13.234  12.960  13.213  0.0521 -0.0512  0.1244
18634W        W32048   6.502  16.780  16.024  0.0187 -0.0643 -0.0482
18635W        W32049  10.723   2.795  10.824 -0.1440 -0.0452 -0.0235
18636W        W32050  16.672  14.313   3.637  0.1712  0.4259  0.0368
18637W        W32051   5.452   9.528   3.516 -0.0877 -0.0483  0.0113
18638W        W32052   9.836  14.110  12.516  0.0545 -0.0749  0.1762
18639W        W32053   0.797  14.560  15.547 -0.0098 -0.0054  0.0809
18640W        W32054  13.653  14.008  12.803 -0.2519  0.2394  0.0655
18641W        W32055  10.088   4.062   0.312 -0.1464 -0.0759 -0.1363
18642W        W32056  13.476  13.989   0.681 -0.0871  0.1384  0.0765
18643W        W32057   3.704   6.099   5.678  0.0219  0.0548 -0.1880
18644W        W32058  10.018  16.638  14.288  0.1610  0.0292 -0.0362
18645W        W32059  11.717   1.321  16.620 -0.0421  0.1612  0.0012
18646W        W32060  14.828  12.441  11.735  0.1766 -0.0068 -0.1061
18647W        W32061   5.060  11.665   5.225  0.2187 -0.2154 -0.0413
18648W        W32062  15.992  16.863  13.035  0.0379  0.0855 -0.0809
18649W        W32063   5.172  10.780  15.573  0.1357  0.0034 -0.1332
18650W        W32064   7.944   4.043  11.908  0.1880  0.2075  0.0916
18651W        W32065  12.025   3.298   2.267 -0.0727  0.0230 -0.0936
18652W        W32066  15.151  17.686  16.459 -0.0456  0.0087  0.1110
18653W        W32067   9.541   3.608   6.166 -0.1523 -0.2161  0.1554
18654W        W32068   2.723   5.958  16.745  0.0735 -0.1662 -0.0942
18655W        W32069   4.682   8.163   0.625 -0.4077  0.0740 -0.1474
18656W        W32070   5.248  12.621  13.322  0.2414 -0.0359  0.1262
18657W        W32071   9.900   2.248  14.947 -0.0578  0.1354  0.0867
18658W        W32072  15.622   0.441   5.779 -0.0651 -0.1698  0.0035
18659W        W32073   2.794  14.283   3.785 -0.0336 -0.0167 -0.1640
18660W        W32074  12.517  14.436   6.779 -0.0276 -0.0111  0.2127
18661W        W32075  14.507   3.549  13.806 -0.0451  0.2179  0.2955
18662W        W32076  10.632   7.391  15.173  0.1448  0.0974 -0.4279
18663W        W32077  11.334  11.719  12.427 -0.0004 -0.0988  0.0769
18664W        W32078  10.651  10.509   2.271  0.0208  0.0250 -0.2318
18665W        W32079   2.910   0.088  14.136 -0.0658  0.0263 -0.0098
18666W        W32080   2.801  16.940  14.058 -0.2058  0.0672  0.0188
18667W        W32081  11.742   0.080  13.856 -0.2263  0.2060  0.0684
18668W        W32082   5.465  13.673   4.277 -0.3097  0.1652 -0.0640
18669W        W32083   3.753  14.229  14.473 -0.3688 -0.0701  0.0528
18670W        W32084  16.974   0.589   2.820 -0.0734  0.0020  0.0962
18671W        W32085   5.844   2.860  15.165  0.3699 -0.2075  0.1846
18672W        W32086  16.373  15.458   0.765  0.1106  0.0915  0.0181
18673W        W32087   9.614  15.893  11.112  0.0032  0.1213  0.1788
18674W        W32088   6.451   7.600   6.183 -0.1144 -0.0908  0.1555
18675W        W32089  12.033  10.544  11.803 -0.3068 -0.1237  0.2391
18676W        W32090   7.942   2.160   5.257 -0.0209 -0.0290  0.4147
18677W        W32091  15.696   0.499   3.363 -0.0324  0.3444 -0.0382
18678W        W32092   8.050   1.467  10.558 -0.1721  0.2520  0.0218
18679W        W32093   5.296  16.144   3.766 -0.0235  0.0635  0.1543
18680W        W32094  11.044  17.073   2.835  0.2699 -0.0810 -0.1679
18681W        W32095  10.029   5.316  11.169  0.2771  0.3006 -0.3035
18682W        W32096   7.522  16.867  13.265  0.0496  0.0697  0.2320
18683W        W32097  12.711  13.101   0.016 -0.1738  0.2587 -0.0051
18684W        W32098  15.933  16.200   0.599 -0.1940 -0.4090 -0.0009
18685W        W32099   9.913   3.284  12.063 -0.1040  0.3951 -0.0991
18686W        W32100   4.598  14.863  16.519 -0.6136 -0.0139 -0.2018
18687W        W32101   5.670   1.385   0.840  0.1184  0.2531 -0.1134
18688W        W32102   0.554   7.447  16.154  0.2427  0.0086 -0.0394
18689W        W32103   4.598   1.272  14.567  0.0748  0.0094 -0.0588
18690W        W32104   0.726   2.822  13.087 -0.0766  0.0435 -0.3391
18691W        W32105  12.887  10.631   0.256  0.0930 -0.0363  0.2017
18692W        W32106   8.309  17.982  14.862  0.1123  0.1005 -0.0609
18693W        W32107  12.113  11.270   1.282  0.0967  0.0384 -0.2763
18694W        W32108   1.760   8.774  12.524  0.0400 -0.3316  0.2745
18695W        W32109   8.105  13.818  14.279  0.1617 -0.0126 -0.1933
18696W        W32110  18.011  15.133   4.759  0.0390 -0.0371 -0.1309
18697W        W32111  17.476   4.427   2.222  0.0849  0.1677  0.1617
18698W        W32112   7.856   2.368  11.462  0.0145 -0.0521  0.0908
18699W        W32113  16.462   8.390   3.161  0.0600 -0.0022 -0.1427
18700W        W32114  11.278   5.274  12.668 -0.3331 -0.0302  0.0057
18701W        W32115  10.969  17.131  13.326 -0.0162  0.1231  0.2009
18702W        W32116  16.842   4.957   5.214  0.2847  0.0042 -0.0817
18703W        W32117   3.136   0.181  15.033 -0.1798 -0.1479  0.3017
18704W        W32118  12.563   0.281  12.051  0.0640 -0.0423  0.2354
18705W        W32119   3.075   8.448   5.005  0.0165  0.0729 -0.4170
18706W        W32120   5.989   4.565  13.529  0.0610 -0.1638 -0.0145
18707W        W32121  16.274   6.678  13.042  0.0314  0.0149  0.1718
18708W        W32122  14.425   9.856  15.590  0.2416  0.1054 -0.0347
18709W        W32123   2.458  14.696   3.866 -0.2461 -0.0340 -0.0785
18710W        W32124  13.478   6.649   1.237 -0.0235  0.0541 -0.1486
18711W        W32125   9.729  15.828   3.642  0.0740 -0.3608 -0.3001
18712W        W32126   9.423  13.678   4.202  0.0117  0.1984 -0.0836
18713W        W32127   2.128   1.947  11.548  0.1242 -0.0576  0.0061
18714W        W32128   9.945   6.829  16.119 -0.4037 -0.2152 -0.2283
18715W        W32129   7.709  16.670  12.078 -0.1220 -0.1825 -0.0511
18716W        W32130  10.938   2.316  11.747 -0.0198  0.1662  0.1088
18717W        W32131   2.764  13.681   3.703  0.1867 -0.1705  0.0515
18718W        W32132   6.376   2.581  12.408  0.3735 -0.0986  0.0435
18719W        W32133   7.048   8.828  14.634 -0.0213 -0.1231  0.0101
18720W        W32134  11.254   2.006  13.376  0.1875 -0.1462 -0.0189
18721W        W32135   1.529   6.920  11.163 -0.1757 -0.3333 -0.2010
18722W        W32136  17.952   4.376   0.180  0.0201  0.0171 -0.3513
18723W        W32137  17.183   5.771   2.345  0.1130 -0.0395 -0.0111
18724W        W32138   2.061  17.102   2.344 -0.0341  0.0635 -0.0730
18725W        W32139   1.859   6.910   6.918  0.2571  0.0041  0.2649
18726W        W32140   0.447  14.989   4.534 -0.3546  0.0857  0.1776
18727W        W32141  13.505   4.357  16.712  0.0353  0.1385  0.3995
18728W        W32142  13.579   9.652  14.587 -0.1299  0.0677 -0.2052
18729W        W32143   1.060   1.500   4.762 -0.0211 -0.4055 -0.0153
18730W        W32144   9.450   9.688   2.417 -0.2398 -0.0808 -0.1455
18731W        W32145   6.722   1.365   2.602 -0.1004 -0.0429 -0.0287
18732W        W32146   6.760  15.746  15.257 -0.1249 -0.1046  0.2554
18733W        W32147   6.480  13.265   6.195 -0.0766  0.0840  0.0142
18734W        W32148   8.207  11.425   6.710 -0.1492  0.6037  0.1811
18735W        W32149   4.721   0.914   1.597  0.1042  0.0333  0.0682
18736W        W32150   4.325   6.840   5.391  0.2664 -0.0714  0.0815
18737W        W32151   1.319  11.215   0.849  0.0075  0.2911  0.2979
18738W        W32152  13.535  10.457   0.957 -0.1666  0.1100  0.0962
18739W        W32153   3.449  12.864   4.396  0.1757  0.0963  0.1825
18740W        W32154  17.486  11.853  12.742 -0.0366  0.2741  0.1665
18741W        W32155   2.410  10.708  15.962 -0.4108  0.3966  0.1000
18742W        W32156   3.906   9.584  13.225 -0.1285  0.1676  0.3968
18743W        W32157   7.313   1.523   4.140  0.1342  0.1222  0.2111
18744W        W32158   2.195  16.015  13.333 -0.1772 -0.0796 -0.1221
18745W        W32159  16.538  10.048   4.786  0.0835 -0.1013 -0.1663
18746W        W32160  14.723   3.611  16.407 -0.2865 -0.3585  0.0885
18747W        W32161  13.386   1.854   6.097 -0.1890 -0.1381 -0.0082
18748W        W32162  16.552  10.469   1.275 -0.1752 -0.1093 -0.1712
18749W        W32163  16.260   5.796   1.443 -0.1469 -0.0625 -0.0884
18750W        W32164   1.835  10.046   4.552  0.1637  0.2672 -0.0330
18751W        W32165   2.770  14.534   6.078  0.3903 -0.0033  0.0608
18752W        W32166  15.942   0.991   1.493 -0.1478  0.0584 -0.0515
18753W        W32167  15.206  14.634  14.501 -0.0310  0.2760  0.0560
18754W        W32168   2.944  16.235   4.059 -0.0780  0.0774 -0.0285
18755W        W32169   0.420   6.035  11.586  0.1382  0.1168  0.2322
18756W        W32170   0.965  13.921  11.117 -0.0100  0.2037 -0.3176
18757W        W32171  13.654  15.857  11.666  0.1849  0.2670  0.2004
18758W        W32172   8.153   6.868  13.735  0.3068  0.2551  0.1015
18759W        W32173  17.169  11.418   1.618  0.0078  0.3471  0.1782
18760W        W32174   1.651  14.523   1.325  0.0224 -0.1281  0.0436
18761W        W32175  16.611   7.096   5.006 -0.1399 -0.0326 -0.0284
18762W        W32176   0.475  16.056  12.573  0.2039 -0.0340  0.1642
18763W        W32177  10.832   2.166   5.889  0.0074 -0.0185 -0.2374
18764W        W32178   5.000  11.677   3.264 -0.0801 -0.0878 -0.1392
18765W        W32179   7.908   6.505   4.175  0.1558  0.1095  0.1862
18766W        W32180  12.415  13.438  11.690 -0.4460  0.2658  0.0627
18767W        W32181   0.360  16.076  14.106 -0.0833 -0.4005  0.4825
18768W        W32182   1.052   9.759   4.158  0.4364  0.4999 -0.0260
18769W        W32183   5.856   9.648  10.795  0.1514 -0.0132 -0.0848
18770W        W32184  16.411   1.827  10.233 -0.0009 -0.3054  0.1437
18771W        W32185   8.189   2.064  15.541 -0.0644  0.1218 -0.1312
18772W        W32186  16.490  11.229   2.079  0.0548 -0.0901  0.1882
18773W        W32187   7.697   0.123   1.734 -0.0881 -0.2954  0.0496
18774W        W32188   2.708   4.786  15.236 -0.1660 -0.2329  0.0652
18775W        W32189   4.765   0.400   3.431 -0.1571  0.2106  0.1270
18776W        W32190  13.595  13.975   2.814 -0.1296  0.0196 -0.0687
18777W        W32191   9.641   1.523   4.978 -0.0107 -0.1105  0.2852
18778W        W32192   2.601   4.684   4.091  0.0878 -0.4398  0.1747
18779W        W32193   3.096   4.030  15.624  0.2452 -0.0607  0.0832
18780W        W32194  11.258  13.542  14.649  0.1124 -0.4421 -0.2388
18781W        W32195   1.621   4.457   2.238  0.2808  0.0879 -0.2915
18782W        W32196   6.732   5.468  15.466  0.0244  0.0488 -0.3012
18783W        W32197   1.511  17.240  13.878 -0.0308 -0.0404  0.2373
18784W        W32198   0.161   3.602   0.559 -0.2645 -0.2590 -0.2433
18785W        W32199  16.975  11.790  10.819 -0.0793  0.0673 -0.2609
18786W        W32200   5.214  10.269  10.960 -0.3036  0.0597  0.0571
18787W        W32201   9.016  17.271   4.667 -0.0955  0.0584  0.1032
18788W        W32202   0.776  11.987  13.052 -0.0945 -0.1976 -0.2444
18789W        W32203   2.456   7.904  11.676 -0.1820  0.4505 -0.0038
18790W        W32204   0.722   3.761  14.540 -0.0607  0.0265  0.2448
18791W        W32205   1.280   3.400  11.233 -0.1984  0.1578  0.0567
18792W        W32206   7.362   1.425  11.691  0.1150 -0.3545 -0.1275
18793W        W32207   0.743  16.473   2.378 -0.0886  0.2567 -0.0448
18794W        W32208  10.824  15.479  14.610  0.2110  0.1201  0.0095
18795W        W32209   2.426   2.358   1.734 -0.1490 -0.0161  0.0649
18796W        W32210   0.655   8.217   4.947  0.2757  0.2117 -0.2956
18797W        W32211   3.157  11.716  11.208 -0.2120  0.0619 -0.0722
18798W        W32212   7.838  12.491   1.111 -0.0807 -0.0565  0.0549
18799W        W32213   9.538  13.359   1.560  0.3382 -0.0999 -0.0527
18800W        W32214   8.005   0.786   3.654 -0.0125 -0.1108 -0.5402
18801W        W32215   0.364   1.581   3.283 -0.1450  0.0063  0.0809
18802W        W32216  17.219   7.861  10.852 -0.1929  0.0142  0.0877
18803W        W32217  17.691   5.617   5.076 -0.0183  0.3761 -0.1014
18804W        W32218   9.110  10.356   5.535 -0.2281 -0.0917 -0.0076
18805W        W32219  16.431   4.317  12.701  0.0912 -0.0522 -0.3088
18806W        W32220   1.754  15.576  11.935  0.1227 -0.1099 -0.0384
18807W        W32221  11.436   8.610   6.748 -0.1541 -0.3988  0.0308
18808W        W32222  15.918  12.968  14.281  0.1071  0.1390  0.2986
18809W        W32223  15.960   9.920   4.845 -0.1423  0.1370  0.4760
18810W        W32224   7.582   0.751   2.604 -0.0970  0.1925  0.1560
18811W        W32225  17.816   3.627   3.150 -0.1747  0.2128  0.2178
18812W        W32226   1.019  11.626   3.601  0.0694 -0.2576  0.0063
18813W        W32227  17.628   2.449   3.970 -0.0477 -0.0882 -0.2771
18814W        W32228   0.300   4.630   3.849  0.4040 -0.0029 -0.2653
18815W        W32229  13.798   8.600  16.481 -0.0267  0.2464 -0.1485
18816W        W32230   1.398  15.246   0.386  0.0953  0.0660 -0.1212
18817W        W32231  16.551   4.857  14.281  0.0350  0.1465 -0.2820
18818W        W32232  13.708   9.411   2.615  0.3515  0.1199  0.1062
18819W        W32233  14.008  16.050  12.138 -0.1828 -0.1243 -0.0206
18820W        W32234  15.328  17.664  15.572  0.2142  0.0434 -0.1812
18821W        W32235   5.260   2.490   3.728  0.0183  0.1254 -0.0668
18822W        W32236  15.313  15.491  14.769 -0.1472 -0.1387  0.2381
18823W        W32237   6.428   0.018   2.527 -0.0027 -0.0379 -0.0318
18824W        W32238  10.751  11.984  16.011 -0.0041 -0.2446 -0.1560
18825W        W32239  12.933  12.735   1.271 -0.0931  0.0139  0.1946
18826W        W32240  17.105  12.670   0.633 -0.1076  0.1891  0.2782
18827W        W32241  11.557  10.404  13.996 -0.0611  0.0788  0.0772
18828W        W32242   5.595  11.011   1.237 -0.0467  0.2902  0.1475
18829W        W32243   4.484  12.490   4.429 -0.1235  0.0273 -0.1582
18830W        W32244   1.725   7.067  12.869 -0.4117 -0.1066  0.0399
18831W        W32245   2.888  12.708  10.460 -0.0374 -0.2135  0.2594
18832W        W32246  16.651  14.135   0.434 -0.0790  0.1185  0.1133
18833W        W32247   3.387  12.215  15.029 -0.1612  0.0561  0.2441
18834W        W32248   1.558   1.872  15.412 -0.0110  0.0656  0.0585
18835W        W32249   9.420   9.672   3.156 -0.0094  0.0950  0.3439
18836W        W32250   3.421   1.799   4.120 -0.0633  0.0995  0.0173
18837W        W32251  16.383   2.590  12.168 -0.0978 -0.0170 -0.2827
18838W        W32252   1.348   0.329  14.851  0.0416  0.0736 -0.4150
18839W        W32253  12.519  12.557  13.432  0.3508  0.0042 -0.2505
18840W        W32254   7.583  17.277  15.641 -0.1062  0.1107  0.1067
18841W        W32255  11.149   3.428  13.102 -0.2973 -0.0363  0.0787
18842W        W32256  11.036  16.126   0.327 -0.0253 -0.0613 -0.1849
18843W        W32257  13.680   9.496  15.054 -0.1929  0.2938  0.1161
18844W        W32258   9.851   8.453  11.966  0.2237 -0.2892  0.0128
18845W        W32259  17.881   8.689  16.733  0.1651  0.2342 -0.2232
18846W        W32260   4.225   6.637   6.874  0.2804 -0.1579 -0.1348
18847W        W32261  14.443  12.817  14.871  0.1687  0.0619  0.1348
18848W        W32262  11.738   6.319  12.857 -0.0310 -0.1711 -0.0992
18849W        W32263   4.052   7.358   2.093 -0.0850 -0.0167 -0.0286
18850W        W32264  15.014  17.018  13.051 -0.0446  0.0805  0.0446
18851W        W32265   4.876  14.929   4.506 -0.0021  0.3101  0.2997
18852W        W32266   7.163   4.051  12.309  0.1365  0.0410 -0.1173
18853W        W32267  17.335   2.262   2.079  0.1391 -0.2687  0.0185
18854W        W32268   4.826  14.996  11.096  0.3865 -0.2094 -0.5239
18855W        W32269   0.585  11.906  12.604  0.1996  0.0448 -0.0723
18856W        W32270  14.094   9.952  13.321  0.0783  0.0696  0.0676
18857W        W32271   0.006  16.734  15.664  0.0226  0.2679 -0.0871
18858W        W32272   4.491  16.302  10.112  0.1721  0.1456  0.0578
18859W        W32273  16.587  10.202  11.937 -0.2394  0.2763 -0.0180
18860W        W32274  16.277  10.018   5.220  0.0445  0.2802  0.0977
18861W        W32275  12.154  13.154   5.620 -0.5073 -0.1357  0.1652
18862W        W32276   7.275   2.011  15.192  0.0248 -0.0059  0.0212
18863W        W32277  16.013  14.392   1.169 -0.0500  0.1409  0.1063
18864W        W32278   5.175   7.134  16.689  0.1748 -0.1054  0.1703
18865W        W32279   1.489   7.856  16.005  0.1632 -0.0699 -0.0999
18866W        W32280   7.434   1.198   4.645 -0.2199  0.1742  0.0703
18867W        W32281  10.521  10.124  14.770 -0.3510  0.0445 -0.0278
18868W        W32282  17.493  12.452  11.178 -0.2090 -0.0345 -0.2348
18869W        W32283  11.960   0.177  14.722 -0.3166 -0.1609  0.4170
18870W        W32284   1.423  16.870  12.566  0.1366 -0.0863  0.1253
18871W        W32285   2.517  14.603  11.341  0.0899 -0.1982 -0.0920
18872W        W32286  12.192   4.386  16.500  0.2273  0.1231  0.1861
18873W        W32287  10.516  11.313   5.545 -0.0053 -0.1009  0.1177
18874W        W32288   9.963   8.353  13.967  0.0592 -0.1763  0.1611
18875W        W32289  12.671   9.984   2.892  0.3281 -0.2316  0.1723
18876W        W32290  14.340   7.953  14.175 -0.3582  0.0140  0.0582
18877W        W32291   6.917  13.657  12.245  0.2066  0.0041 -0.0482
18878W        W32292   6.820   1.234  10.045  0.0619  0.2821 -0.4524
18879W        W32293   1.218   2.247  12.350  0.1999 -0.3275 -0.1549
18880W        W32294  10.276   6.806   2.582 -0.1185  0.0596  0.2218
18881W        W32295  12.384   0.546  12.725  0.0630 -0.0208 -0.0394
18882W        W32296  14.393   7.294   2.981 -0.0525 -0.4525  0.0317
18883W        W32297   8.162  11.130  12.969  0.1206 -0.2014  0.0104
18884W        W32298   3.154  17.178  12.579 -0.2068  0.4190  0.0245
18885W        W32299  14.313  14.230  16.346 -0.0673 -0.1713  0.0872
18886W        W32300   7.693   3.996   2.621 -0.1048 -0.2755  0.0625
18887W        W32301  16.913  10.787   4.816 -0.2117 -0.1218 -0.1841
18888W        W32302  16.721   0.261   3.108 -0.0847 -0.1203 -0.0816
18889W        W32303  16.936  16.020   0.707  0.1431 -0.0144 -0.1765
18890W        W32304   0.131  15.188   5.323  0.0434  0.0707 -0.1459
18891W        W32305   8.464   3.202  13.247 -0.2044  0.0887  0.0254
18892W        W32306  16.705  15.367  13.066  0.0829  0.1106  0.0018
18893W        W32307  16.822  10.205  14.626 -0.3566 -0.1928  0.0605
18894W        W32308   9.007  15.193  12.628 -0.1095  0.0911  0.1430
18895W        W32309   9.876  17.678   5.935  0.1468  0.1449  0.1540
18896W        W32310  11.842  13.459  16.457 -0.0246  0.2193 -0.0582
18897W        W32311   8.342   4.775   9.859 -0.2129  0.0435  0.0577
18898W        W32312  16.476  16.549   2.705 -0.2622  0.0248 -0.0832
18899W        W32313   6.498   1.893   0.293  0.2678 -0.1251 -0.1555
18900W        W32314  14.673   7.968   0.542 -0.0911  0.1324 -0.1728
18901W        W32315  17.480   2.649  11.111  0.0043  0.3012 -0.0613
18902W        W32316   5.958  12.451   0.902  0.3076  0.0567  0.1816
18903W        W32317   6.829  13.760   7.028  0.2334 -0.0016  0.3494
18904W        W32318   3.136   4.488  15.381 -0.2428 -0.1322 -0.0172
18905W        W32319  11.188   4.258   4.895 -0.0385  0.0996 -0.2146
18906W        W32320   8.785   3.599   0.056  0.1556  0.0060 -0.2483
18907W        W32321  13.419   9.160   3.385  0.1444 -0.0569 -0.2282
18908W        W32322   3.826   4.975   3.717 -0.3613 -0.2955  0.0949
18909W        W32323   0.633   3.199  14.850  0.1855  0.3389 -0.2053
18910W        W32324  13.259   0.968  12.709  0.1185  0.2201  0.0331
18911W        W32325   1.863   8.757   5.650  0.2558 -0.2072 -0.0097
18912W        W32326  14.607   1.364   1.212 -0.0467 -0.2975  0.0909
18913W        W32327  12.402   0.109  13.937 -0.0644 -0.0748  0.1289
18914W        W32328  10.006   0.979  11.519  0.0189  0.0748  0.1177
18915W        W32329   0.185   8.920  14.054  0.2351  0.1699  0.0149
18916W        W32330   7.851  13.537   2.788 -0.0745 -0.0326 -0.1141
18917W        W32331  11.741   7.338  12.768  0.0092 -0.0488 -0.0478
18918W        W32332   5.636   6.230  11.467 -0.0379  0.0775  0.0493
18919W        W32333  17.408  11.575   0.757  0.1560  0.0610 -0.0808
18920W        W32334  13.067  13.299  16.349  0.0861  0.0027 -0.1241
18921W        W32335  11.011   7.150  11.849 -0.2968 -0.0179 -0.1761
18922W        W32336  15.809   7.497   4.958 -0.0620 -0.1555  0.0460
18923W        W32337  16.794   4.007   4.254  0.2080  0.0217 -0.0768
18924W        W32338   0.586  12.917  12.829 -0.1364  0.0673 -0.3734
18925W        W32339  11.021  12.805   1.175  0.0959 -0.0516 -0.1909
18926W        W32340   7.366   7.558   1.712  0.0270  0.2457 -0.1144
18927W        W32341   6.929  13.225  10.960  0.1313  0.0753  0.0087
18928W        W32342  11.877   4.231   1.411 -0.1654  0.0163  0.2414
18929W        W32343   2.573   9.216   0.470 -0.1276  0.3091 -0.0190
18930W        W32344   5.324  12.905   2.157 -0.1412 -0.0712 -0.2229
18931W        W32345  12.908  10.350  11.065  0.2126 -0.0533  0.1193
18932W        W32346  10.618  10.969  14.444 -0.3464  0.0373  0.1570
18933W        W32347  15.144  15.833   0.063 -0.2240  0.0859 -0.2773
18934W        W32348   2.393   8.185  14.687  0.0425 -0.0495 -0.1018
18935W        W32349   0.508  11.359  12.689 -0.1156 -0.0935 -0.0088
18936W        W32350  15.329  17.626  14.208  0.1156  0.0102 -0.0462
18937W        W32351  12.150  13.924  14.041  0.3465 -0.1931 -0.0976
18938W        W32352  10.052   5.886   5.447  0.6618  0.0315  0.0180
18939W        W32353   4.799  16.068   2.763  0.1406 -0.0706 -0.2068
18940W        W32354  13.173  13.725  16.047  0.0799 -0.1254  0.0335
18941W        W32355  15.459   6.443  13.371  0.0021 -0.1511  0.0040
18942W        W32356   7.770  15.204  12.122  0.0063 -0.0970  0.1103
18943W        W32357   8.962   0.888  13.277  0.1324 -0.1153  0.2935
18944W        W32358   4.475   7.050   4.413  0.0091 -0.0282  0.4148
18945W        W32359  13.953   8.940  13.804 -0.3632  0.0973  0.0327
18946W        W32360   6.689  17.749   5.773 -0.4118  0.0842 -0.1065
18947W        W32361  12.164  10.685  12.347 -0.1741 -0.2283  0.2069
18948W        W32362  12.002   1.011  16.288  0.1892 -0.3118  0.0840
18949W        W32363   1.976  10.370  10.894 -0.0900 -0.0881  0.2492
18950W        W32364   1.024  13.066  14.097  0.0761 -0.1992  0.3733
18951W        W32365  14.958   7.736   1.726 -0.0391 -0.0152  0.0909
18952W        W32366  17.999   6.920   3.450  0.0340 -0.1572 -0.4639
18953W        W32367  12.455   7.521   0.832  0.0380 -0.0920 -0.0673
18954W        W32368  17.217   0.091   1.035  0.0514  0.2558 -0.2318
18955W        W32369  13.448   1.274   3.412 -0.0242  0.2255  0.2175
18956W        W32370   2.432   2.508  12.386  0.0579  0.0343 -0.1163
18957W        W32371  15.216   5.604  14.662 -0.0545  0.1524  0.1328
18958W        W32372   3.819   2.529   3.169  0.1639 -0.2405 -0.1085
18959W        W32373   7.701   4.786   4.507 -0.2916  0.1229 -0.0567
18960W        W32374  10.693  15.047  16.186  0.1093 -0.1958 -0.0606
18961W        W32375  17.280   4.820  11.115  0.2076  0.1281  0.4741
18962W        W32376   0.423   9.572  15.817 -0.0377  0.2867  0.1076
18963W        W32377   7.628  17.347   1.525 -0.0214 -0.2172 -0.1462
18964W        W32378   5.292  14.964  13.503 -0.3340  0.0062 -0.3137
18965W        W32379   6.022  14.321  12.981  0.1936 -0.0476  0.0256
18966W        W32380  13.749   2.171   1.526  0.0606  0.1467  0.0415
18967W        W32381  12.824   6.773   3.737  0.0863  0.3608 -0.0214
18968W        W32382  17.913   2.580   1.873 -0.0100 -0.0186 -0.0065
18969W        W32383   2.771   1.399  15.743 -0.0761  0.0514  0.1129
18970W        W32384  14.484  11.844  15.740  0.1134  0.1876  0.0664
18971W        W32385   4.867  17.430   2.360 -0.1673 -0.1008 -0.3949
18972W        W32386  17.425   4.690   4.122  0.1716  0.0920  0.0851
18973W        W32387  13.094   1.743  11.161  0.0156 -0.2884 -0.2651
18974W        W32388  14.509   6.116   5.270 -0.0709 -0.0856  0.0435
18975W        W32389  12.204   7.310  12.973  0.0754 -0.1741 -0.0316
18976W        W32390   0.855   1.134   2.327  0.1654  0.2190  0.1281
18977W        W32391   7.279   8.377   5.368 -0.0919  0.0965  0.0688
18978W        W32392  15.209  14.099  15.920  0.1224 -0.1136 -0.3501
18979W        W32393   5.468  17.386   0.883  0.0112 -0.0546 -0.3104
18980W        W32394   0.556   5.651   0.058 -0.1295 -0.0472  0.0856
18981W        W32395   3.250   1.396   0.148 -0.2113 -0.0024 -0.2970
18982W        W32396  10.095  17.158  15.494  0.1718  0.1106  0.2801
18983W        W32397  13.703  16.351  15.179 -0.2392 -0.1158 -0.2282
18984W        W32398  15.563   4.744  15.904  0.5185 -0.1762  0.1975
18985W        W32399   7.223   8.686  11.370 -0.3478 -0.2212  0.0373
18986W        W32400  15.226   9.768  12.575  0.0692  0.1263  0.1159
18987W        W32401   1.345   5.536  16.565 -0.1028  0.1093 -0.3363
18988W        W32402   4.871   3.980  14.782 -0.4673  0.0126 -0.3070
18989W        W32403  15.557  14.092   3.716  0.1247 -0.2049  0.0204
18990W        W32404  16.230  17.786  10.047  0.2432 -0.0776 -0.2620
18991W        W32405   0.054   4.453   3.112  0.1065  0.0161  0.0464
18992W        W32406   0.887   3.429  13.886 -0.1187 -0.2238 -0.0440
18993W        W32407   8.147  17.468   3.400 -0.0259 -0.0608  0.1319
18994W        W32408  17.525   6.486   0.787  0.2128 -0.0590 -0.0067
18995W        W32409  15.004   1.631   3.129 -0.2350 -0.0080 -0.0874
18996W        W32410  12.516   7.321  11.962 -0.0351 -0.3095  0.3359
18997W        W32411  16.183   8.212   1.732  0.1365  0.1367  0.0441
18998W        W32412   4.796   6.254  15.875 -0.5489 -0.0353 -0.3210
18999W        W32413  14.763  14.232   2.644 -0.1464 -0.0296  0.1398
19000W        W32414   8.062  13.554   5.332  0.2327  0.0796 -0.1932
19001W        W32415   1.852   0.529  11.003 -0.0561  0.1125 -0.2335
19002W        W32416   7.392   3.732   3.675  0.1759  0.0119 -0.0293
19003W        W32417   4.042  17.581   2.835  0.1803  0.0127  0.0143
19004W        W32418  13.088   3.680  12.719  0.0783 -0.1546  0.4213
19005W        W32419   9.631   3.589   3.652  0.0109 -0.1854  0.0151
19006W        W32420   0.042   4.173   1.054 -0.1885  0.1595  0.3965
19007W        W32421   0.892  16.019  14.173  0.0010 -0.1603  0.5258
19008W        W32422   9.230   4.661  10.876 -0.0594 -0.1457 -0.4316
19009W        W32423  14.106  17.693  10.981  0.0989 -0.0693 -0.0401
19010W        W32424   5.582  17.548  14.145  0.0355 -0.1027  0.0048
19011W        W32425  11.950   3.098  14.079  0.2094 -0.1882 -0.1005
19012W        W32426   8.293   6.549   0.102  0.0950  0.2135  0.0213
19013W        W32427  12.542   7.352  15.449  0.1860  0.3634 -0.2429
19014W        W32428   3.413  11.698   1.298  0.4589 -0.2954 -0.2784
19015W        W32429   2.408   9.114  13.524 -0.1010 -0.1772  0.0403
19016W        W32430   7.193   0.594   6.334 -0.2700  0.1910  0.2207
19017W        W32431   5.854   8.563  13.748  0.0832  0.1672 -0.0810
19018W        W32432   2.421   5.739   1.727 -0.2135 -0.0685  0.1912
19019W        W32433  14.741  11.326   7.012 -0.1206  0.1545 -0.1605
19020W        W32434   5.934   1.284   4.773 -0.0654 -0.1047  0.3645
19021W        W32435  17.912   1.703  11.663 -0.2030 -0.2520 -0.1293
19022W        W32436   8.502   2.132  13.023 -0.2166 -0.0939 -0.0716
19023W        W32437   3.232  17.114  14.349 -0.0687  0.2355 -0.2567
19024W        W32438   4.892  16.531   6.076 -0.1250  0.0692  0.1432
19025W        W32439   7.332  16.832  16.267  0.0168 -0.2586  0.1061
19026W        W32440  17.822   6.145   5.006 -0.3390  0.1727  0.1733
19027W        W32441   3.106   2.245   2.292  0.1490  0.0010  0.1099
19028W        W32442   2.332  16.737  12.792  0.0223 -0.3716 -0.3098
19029W        W32443   2.219   2.769  14.147 -0.0820  0.1003 -0.0145
19030W        W32444   4.470  15.752  16.098  0.0103 -0.3128 -0.0238
19031W        W32445  14.660  12.740   3.503 -0.2105  0.0938 -0.1906
19032W        W32446   9.691   5.551  14.789  0.0615 -0.2364 -0.0465
19033W        W32447   8.429   9.233  15.294 -0.0241  0.4734  0.0137
19034W        W32448  16.523   4.670   3.421 -0.4399  0.1314 -0.0781
19035W        W32449  11.682   3.342   0.844  0.1707  0.0891  0.1018
19036W        W32450  16.405  13.435  15.654  0.0153  0.1778  0.3965
19037W        W32451  11.804   3.725   1.180  0.0214  0.3390 -0.3157
19038W        W32452  14.914   4.097   4.347  0.0133  0.0493 -0.2436
19039W        W32453   0.941  16.833   3.223 -0.1097 -0.4348 -0.1462
19040W        W32454   4.210   5.473  13.997  0.1360  0.1631 -0.0624
19041W        W32455   6.203  17.288  13.573 -0.0186  0.0306 -0.0696
19042W        W32456   5.306   0.308  11.251  0.1406  0.3113 -0.2278
19043W        W32457   0.448   1.442  13.338 -0.1686 -0.0986  0.0987
19044W        W32458   5.107   7.187   1.191  0.0876  0.3646 -0.1186
19045W        W32459  16.137   1.524   4.603  0.1844 -0.1864  0.0321
19046W        W32460  10.660   4.177   1.617 -0.1240 -0.1912  0.0855
19047W        W32461   0.506   5.953   2.142 -0.0273 -0.0042 -0.0269
19048W        W32462  11.453  10.078   1.993  0.3206  0.0679  0.0932
19049W        W32463   5.838   9.446   5.402  0.1300  0.0440  0.0061
19050W        W32464   2.478  16.012   2.597 -0.1814 -0.0584  0.0714
19051W        W32465   8.248   2.088   2.383 -0.0222 -0.0843 -0.1429
19052W        W32466   5.174  16.072   6.051 -0.0872  0.1545 -0.6640
19053W        W32467  11.569  15.474  11.538  0.0011 -0.3331  0.1580
19054W        W32468   3.983  12.957  11.882  0.0460 -0.3234 -0.0031
19055W        W32469   2.831   6.701  11.536  0.0010 -0.0547  0.2145
19056W        W32470   6.147   2.190   3.291 -0.2179 -0.0668  0.1070
19057W        W32471   5.838   1.976  13.166  0.0758 -0.1343 -0.1130
19058W        W32472  17.335  17.913  12.977 -0.3527  0.0747 -0.0563
19059W        W32473  14.752   4.104  14.009  0.4195  0.0137  0.0145
19060W        W32474   5.310   7.922  14.390  0.4703 -0.3530  0.0524
19061W        W32475   6.565  14.173   0.632 -0.1064 -0.1954  0.2183
19062W        W32476   0.403   4.024   2.566 -0.1164  0.0188 -0.0001
19063W        W32477  14.840   6.068  12.314  0.0892 -0.1441  0.0046
19064W        W32478   3.029  15.541   1.707 -0.0060 -0.0088  0.1932
19065W        W32479  12.662   2.391  16.570  0.1601  0.0966  0.0361
19066W        W32480   0.450   4.475  11.176  0.3672 -0.0140 -0.0116
19067W        W32481   8.044   8.224   1.383 -0.1529  0.1204 -0.1094
19068W        W32482  10.819   0.229   1.807 -0.0752 -0.1087  0.1037
19069W        W32483  10.882   9.260   4.514 -0.0841  0.2804 -0.0369
19070W        W32484   1.750   3.028   3.392  0.1060  0.0227 -0.3458
19071W        W32485  15.618   3.190   0.408 -0.0400 -0.0134  0.4792
19072W        W32486  15.260   8.090   6.575  0.0825  0.2015 -0.1409
19073W        W32487   3.265  16.278   2.003 -0.0258  0.0940 -0.0236
19074W        W32488   7.496  10.060   1.259 -0.1045 -0.0227 -0.0599
19075W        W32489  14.311  10.823   0.582  0.2133 -0.0751  0.1000
19076W        W32490  10.647   9.813   3.096 -0.1028 -0.2040  0.0461
19077W        W32491   3.437   1.440  14.436 -0.0320 -0.3129  0.0729
19078W        W32492  10.308   4.102   6.054 -0.0014 -0.1655  0.1311
19079W        W32493  13.772  14.917  11.342  0.2226 -0.1311  0.0465
19080W        W32494   8.268  15.658  16.252  0.0238  0.1328  0.0444
19081W        W32495   2.756  17.103  14.593  0.1499 -0.0876  0.2655
19082W        W32496  17.776  10.021   1.960 -0.0602  0.1438  0.4681
19083W        W32497   7.344   6.516   3.085 -0.0082  0.0150  0.0106
19084W        W32498  17.472   4.253   3.796 -0.0722 -0.0647 -0.1349
19085W        W32499  12.265   5.083   4.175 -0.0512 -0.2858 -0.1716
19086W        W32500   2.923   5.247   3.085 -0.1958  0.1535 -0.1202
19087W        W32501   3.238   9.882  15.113 -0.0619 -0.1254  0.0878
19088W        W32502   4.485  10.204   1.568 -0.1901  0.0304 -0.3358
19089W        W32503   7.385   3.410  14.958 -0.2075  0.2526  0.2223
19090W        W32504   6.276  12.392  11.070  0.2008 -0.3622 -0.0799
19091W        W32505   0.861  17.723  15.490  0.0678 -0.1636  0.0592
19092W        W32506   6.962  13.460  12.719  0.4370 -0.1687 -0.0213
19093W        W32507   2.498   8.581  15.650  0.0858  0.0780  0.2772
19094W        W32508  13.148   1.991   2.641  0.0952 -0.1102 -0.0156
19095W        W32509  15.479  12.578  15.177 -0.0814  0.1851 -0.0207
19096W        W32510   0.883   9.564  15.932 -0.1088 -0.1253 -0.1598
19097W        W32511   5.073   4.871  10.317  0.2080  0.1710 -0.0606
19098W        W32512   8.840   2.551  11.104 -0.0014 -0.1166 -0.0623
19099W        W32513   0.028   5.573   2.630  0.0493  0.2286  0.0432
19100W        W32514   5.164  17.176  13.702 -0.0781 -0.1101  0.1012
19101W        W32515   9.336  16.847  12.963 -0.0900  0.2487  0.1663
19102W        W32516  15.940  15.645   5.216 -0.0598 -0.0070 -0.0173
19103W        W32517   2.668   3.227  13.389 -0.0649 -0.1199 -0.2391
19104W        W32518   3.719   8.110  11.514 -0.1545 -0.1857 -0.2948
19105W        W32519   0.533   9.767  12.651  0.0034  0.0850  0.0172
19106W        W32520   5.480  16.393  12.684  0.1434  0.1231 -0.0157
19107W        W32521  10.812  10.688  12.177  0.3001  0.1503 -0.0981
19108W        W32522   4.005   7.547   4.387 -0.2043 -0.2708 -0.2506
19109W        W32523   5.669   0.880   4.800 -0.1967 -0.2035 -0.0498
19110W        W32524   8.980   7.803  14.989 -0.0236 -0.3790  0.2804
19111W        W32525   5.336   0.872   1.433  0.0241 -0.0435  0.0700
19112W        W32526  10.315  12.250  12.374 -0.1450 -0.4471  0.0942
19113W        W32527   4.782  10.531   5.412  0.1475 -0.2717  0.0979
19114W        W32528   6.829   2.692  15.967  0.1244  0.1666 -0.0425
19115W        W32529   7.894  15.722  16.649  0.1740 -0.2570  0.1290
19116W        W32530   6.964   0.954   4.597  0.2977 -0.2454 -0.2525
19117W        W32531   7.655   9.813  13.404  0.1194  0.0005 -0.2592
19118W        W32532   0.515   1.425  16.735 -0.2964 -0.0162 -0.0734
19119W        W32533   3.988  14.066  11.944 -0.1320 -0.4003  0.1106
19120W        W32534   6.967   5.165  15.950  0.0907 -0.1342 -0.0507
19121W        W32535   6.932  11.184   6.714  0.0572  0.0846 -0.1930
19122W        W32536   7.027  15.244  15.973 -0.3075  0.3229 -0.1729
19123W        W32537  12.084   5.715   5.652  0.3356  0.1483  0.0232
19124W        W32538   3.568   7.301   4.825 -0.1091  0.0791  0.0814
19125W        W32539  14.531  11.554  11.841  0.2010 -0.0830  0.3230
19126W        W32540  12.660  17.748   5.677 -0.3201  0.2367 -0.3665
19127W        W32541   4.234  11.083  10.772 -0.2312  0.0118  0.2828
19128W        W32542   0.898   0.198   2.789  0.0870  0.4288 -0.1688
19129W        W32543  14.805  17.374  13.541 -0.0711 -0.4104  0.0374
19130W        W32544   1.479   6.840  13.185 -0.1447 -0.1849  0.1825
19131W        W32545  17.541  14.281   4.001  0.1232 -0.2996 -0.2341
19132W        W32546  17.610  17.867  11.667 -0.1897 -0.2219  0.0111
19133W        W32547  11.403   3.137  16.246  0.2089  0.3598 -0.0073
19134W        W32548   6.738  17.347  11.269 -0.0456 -0.2138  0.1043
19135W        W32549   6.447  12.522  13.589 -0.0520 -0.0589 -0.2420
19136W        W32550   5.226   5.157   1.402  0.1430  0.1632  0.0142
19137W        W32551  11.121  11.077  15.587 -0.0380  0.0351  0.5093
19138W        W32552   9.802   0.103  14.878  0.1044 -0.0958  0.1158
19139W        W32553   4.193   2.598  13.188  0.0880  0.1188 -0.0020
19140W        W32554  11.305   5.336   5.057  0.3303  0.1002  0.1147
19141W        W32555   7.854   3.464  15.830  0.0351  0.1313 -0.0811
19142W        W32556  12.960   6.108  15.903 -0.1512  0.2763 -0.0987
19143W        W32557   4.536   4.954   2.128  0.0256  0.2673 -0.0934
19144W        W32558   1.684  15.669   0.594 -0.0733  0.2550 -0.4143
19145W        W32559   5.595   1.865  10.644 -0.3035  0.1393  0.1812
19146W        W32560   5.259   6.848   2.122  0.2080  0.1016 -0.1505
19147W        W32561  14.405  11.301   2.860 -0.0751  0.1513 -0.1324
19148W        W32562   2.692   5.534   2.103 -0.0696 -0.1827 -0.3790
19149W        W32563   2.063  14.634   2.510  0.3370 -0.4131 -0.0017
19150W        W32564  15.630   5.121   1.530  0.0322  0.0465 -0.0349
19151W        W32565   1.736   3.972   2.471 -0.0441  0.4299  0.2240
19152W        W32566  11.851  16.165   2.731  0.1170 -0.2621 -0.0073
19153W        W32567   6.651   3.695  14.406  0.0597 -0.1845  0.0147
19154W        W32568  12.448   2.049   6.425  0.1239  0.1176  0.4570
19155W        W32569   2.698   4.717   3.206 -0.0010  0.2152 -0.3119
19156W        W32570   4.815   6.115   5.512  0.2648 -0.0890 -0.1251
19157W        W32571  15.817   5.276   0.270 -0.0480  0.1728 -0.2330
19158W        W32572   4.339   5.496   0.750  0.2899  0.2548 -0.4405
19159W        W32573  11.320  12.887   5.999  0.3290  0.0915 -0.1658
19160W        W32574   1.819   8.964  15.198 -0.3736  0.0032 -0.0766
19161W        W32575  13.578   4.075   1.308  0.1063 -0.0553 -0.0305
19162W        W32576   6.261  13.976  14.430 -0.0980  0.0254  0.1307
19163W        W32577  15.760  17.366   3.733  0.0916 -0.2196 -0.0921
19164W        W32578  17.974   1.742  15.047  0.0094 -0.0252 -0.1836
19165W        W32579   5.845   7.637  10.877  0.1497  0.1158  0.0047
19166W        W32580  17.718   3.862   4.882 -0.1263  0.2394 -0.0380
19167W        W32581  17.268   4.537  13.882 -0.2232  0.1982  0.0465
19168W        W32582   4.813   3.840  13.882  0.0248  0.1172  0.0429
19169W        W32583  14.368  14.640   1.919 -0.1475  0.3319  0.2095
19170W        W32584   0.735  17.436   5.319 -0.0573  0.0931  0.3749
19171W        W32585   3.836   9.937   5.859 -0.0028 -0.2380  0.0102
19172W        W32586   9.804  17.421  16.237 -0.2317 -0.2587 -0.2136
19173W        W32587   6.003  12.926  15.248  0.0011  0.0245 -0.2355
19174W        W32588   6.417   6.192  14.975 -0.0358  0.1044  0.0182
19175W        W32589  17.462  16.967   0.018 -0.0135  0.1257  0.1613
19176W        W32590   7.984  12.984   5.990 -0.1097 -0.2104 -0.0598
19177W        W32591   7.504   0.125  12.415 -0.0809  0.3030 -0.2885
19178W        W32592   0.298   8.298  16.675  0.0360 -0.0161 -0.1240
19179W        W32593  15.697  11.868   0.421  0.0208 -0.1702  0.1489
19180W        W32594   5.602  11.710   5.513 -0.3673  0.0233 -0.1015
19181W        W32595   1.859  15.019   1.296  0.1414  0.0163 -0.1892
19182W        W32596   4.227  17.204   3.215 -0.1443  0.1765  0.4026
19183W        W32597   2.026   5.450  15.328  0.2483  0.1794  0.2415
19184W        W32598  15.948   0.191   4.780 -0.0439 -0.0428 -0.2954
19185W        W32599   4.016   2.028  14.999  0.0994 -0.1335 -0.2867
19186W        W32600   9.440   0.583  16.264  0.0134  0.0142  0.0593
19187W        W32601   3.742  14.057  12.880  0.0102  0.3292  0.2827
19188W        W32602   5.221  12.759  15.602 -0.0260  0.1088  0.0401
19189W        W32603   2.567   0.046  10.597  0.0008  0.3848  0.0355
19190W        W32604   3.571  17.057   5.298 -0.0518 -0.1821 -0.1958
19191W        W32605   6.859   2.046  15.642 -0.1122 -0.1404  0.0458
19192W        W32606   5.683   9.563   4.906 -0.2042  0.2072 -0.1766
19193W        W32607  11.249   4.930   2.573  0.4039 -0.0324  0.1639
19194W        W32608  17.987   3.853   1.499  0.0789 -0.1744 -0.0817
19195W        W32609   2.087  15.945   0.382  0.1061 -0.0253 -0.0767
19196W        W32610  10.844   0.009  15.429 -0.1915  0.1516 -0.0915
19197W        W32611  17.255   3.953   2.259 -0.0475  0.2388 -0.1277
19198W        W32612  13.284  17.122   1.602  0.0064  0.0134 -0.0226
19199W        W32613   5.139   8.361   6.027  0.0041 -0.0045 -0.2247
19200W        W32614   8.094   6.025   0.293  0.0304 -0.0828 -0.0669
19201W        W32615   2.767  11.518  10.437  0.2133  0.0572 -0.1456
19202W        W32616   5.407   4.268  14.751  0.2464  0.0529  0.0257
19203W        W32617   3.331  16.646   5.118  0.0995 -0.1190 -0.1925
19204W        W32618   4.942  14.978   3.141 -0.1594 -0.2735 -0.0380
19205W        W32619   4.697   1.062  12.220  0.0851  0.2051  0.2587
19206W        W32620   1.297  15.665   0.085  0.1654 -0.1788  0.2472
19207W        W32621   9.003  10.320  15.153  0.0802 -0.1727 -0.0709
19208W        W32622   4.912  12.392  10.873 -0.1185 -0.0683 -0.0530
19209W        W32623   2.487   2.291  15.485  0.1721  0.1674 -0.3458
19210W        W32624   9.626   5.980   0.883  0.1056 -0.0470 -0.0153
19211W        W32625  11.559   5.854  12.718  0.0332 -0.0756 -0.0026
19212W        W32626  12.173   8.245   5.678 -0.1921 -0.0269 -0.1172
19213W        W32627   3.283   7.858  14.219  0.0750  0.2115  0.0921
19214W        W32628  10.777  11.018   0.135  0.0308 -0.1539  0.1464
19215W        W32629   8.472   4.388  15.125 -0.1980 -0.1019  0.1678
19216W        W32630   7.269   0.659  14.083 -0.1661  0.0007  0.0962
19217W        W32631   4.798  12.130   1.840  0.0744  0.1150 -0.0485
19218W        W32632  11.942  17.461  14.929 -0.1512 -0.1679  0.1957
19219W        W32633  16.035   4.408   2.603 -0.2283  0.3102 -0.1062
19220W        W32634  16.837  16.453  11.378 -0.2397 -0.4100 -0.1684
19221W        W32635   8.145   2.831  11.469 -0.1337  0.0289  0.0101
19222W        W32636  15.511  11.157  14.283 -0.0272  0.0681  0.0477
19223W        W32637  14.168   1.526  11.792 -0.0550  0.0217 -0.0512
19224W        W32638  17.677  15.986  12.037 -0.1780  0.1475  0.1982
19225W        W32639  10.730   0.854   5.778  0.1077  0.1015 -0.0745
19226W        W32640  11.321   4.762  16.423 -0.0550  0.0646 -0.0523
19227W        W32641  15.919  12.473   2.756 -0.0011  0.0211 -0.0915
19228W        W32642   6.365  14.229  14.854  0.0439 -0.0618  0.1433
19229W        W32643   0.567  14.838  13.665 -0.0550 -0.0349 -0.2847
19230W        W32644  12.228   3.980   1.004 -0.2725 -0.1328  0.1356
19231W        W32645  16.608   5.592   6.405 -0.0397 -0.2809 -0.0304
19232W        W32646  12.969  10.607   4.574  0.1918 -0.1732  0.1829
19233W        W32647   9.387  13.552  12.760 -0.0834 -0.0106  0.1929
19234W        W32648   3.656   7.780   4.606  0.1232 -0.2892 -0.0577
19235W        W32649   7.750   6.013   2.480 -0.1604 -0.3797  0.0699
19236W        W32650   9.574   1.047  16.660  0.0069 -0.4125  0.0727
19237W        W32651   8.499  10.923   4.009  0.1546 -0.0433  0.0210
19238W        W32652   5.953  15.904  16.679 -0.1490  0.0207  0.2411
19239W        W32653  13.168  15.945  15.822  0.1054 -0.3190  0.1144
19240W        W32654  14.788   4.300   2.113  0.0055  0.1923  0.2241
19241W        W32655  15.753  18.005  14.285 -0.2666  0.2885 -0.2422
19242W        W32656   6.955   1.541   1.043 -0.0635 -0.0294  0.1483
19243W        W32657  12.634   1.686  11.431  0.0241 -0.0103  0.2617
19244W        W32658  16.371   9.515   5.262  0.1513 -0.3003 -0.2145
19245W        W32659  12.374   9.692  12.243 -0.0673 -0.1763  0.0875
19246W        W32660   3.446   6.713   4.081  0.0025  0.0954  0.3554
19247W        W32661   8.195   9.607  12.986  0.3329 -0.0991  0.3903
19248W        W32662   0.560  14.868  14.277 -0.0319  0.2322  0.1875
19249W        W32663   4.572  13.896  14.025 -0.1492  0.1553 -0.0118
19250W        W32664  16.822   0.615   6.359  0.1118 -0.3521  0.3324
19251W        W32665  12.349  11.349   2.337  0.1138  0.0897 -0.3883
19252W        W32666   7.009   7.297   5.873 -0.0784 -0.3262  0.2067
19253W        W32667   8.609   8.394   1.984 -0.1188  0.2458  0.2813
19254W        W32668  17.589   5.846   2.711  0.1587  0.2423  0.0261
19255W        W32669   6.900  12.919   3.236  0.1690 -0.1032 -0.0730
19256W        W32670   9.593   2.391   3.179  0.1024  0.2036 -0.0939
19257W        W32671   7.514   3.319  12.385  0.1070  0.1489  0.1962
19258W        W32672  16.865  14.796  10.283 -0.4334  0.0968 -0.1720
19259W        W32673   1.709   2.045  15.906  0.0173  0.2136 -0.0770
19260W        W32674   2.879  11.958  15.168 -0.0748 -0.1727 -0.0926
19261W        W32675   8.187   3.974  15.048 -0.0594  0.0912 -0.1009
19262W        W32676   3.602  16.045  14.444  0.1948  0.1023  0.1252
19263W        W32677   8.175   7.410  15.761  0.0195 -0.0125  0.1367
19264W        W32678   5.636  14.110  13.660  0.0050 -0.0535 -0.0032
19265W        W32679   6.619   5.393   0.116 -0.1630 -0.0217  0.1062
19266W        W32680   5.296  16.596  13.050 -0.1768 -0.0479 -0.2736
19267W        W32681   2.879   4.247   3.218  0.3016  0.1763  0.2102
19268W        W32682   4.266   8.012   3.242 -0.0631  0.0710 -0.0730
19269W        W32683   6.646   4.190   1.372 -0.3791 -0.1709  0.0559
19270W        W32684   1.082  16.277  16.310 -0.0349  0.0245  0.0963
19271W        W32685  10.845  17.704  15.061 -0.1648  0.0852  0.0373
19272W        W32686   4.306  14.943  11.973  0.1512 -0.2167 -0.0868
19273W        W32687  14.114   1.229   2.226 -0.0601  0.0921  0.1665
19274W        W32688   8.926  10.446  11.070 -0.0259  0.2580 -0.4259
19275W        W32689   5.266  11.845  14.733  0.3184  0.2128  0.0346
19276W        W32690   4.168  17.193   3.762 -0.2364  0.0661 -0.0330
19277W        W32691   7.949   5.994   1.940 -0.0482  0.2268  0.1494
19278W        W32692   9.496  13.145   2.126  0.0484  0.0055  0.4401
19279W        W32693   5.491  15.481  11.306 -0.1362  0.2016 -0.3101
19280W        W32694   1.769  16.063  12.356  0.1483  0.3790  0.2334
19281W        W32695  14.717   8.163   4.941 -0.2415  0.0784  0.0158
19282W        W32696   7.254   4.259  13.688  0.2442  0.2167 -0.2379
19283W        W32697  16.797  11.790  13.937  0.2423 -0.1094  0.0277
19284W        W32698  10.922  15.470  13.552  0.1400  0.1440 -0.2644
19285W        W32699  16.053   2.865  15.430  0.0154  0.2533  0.0128
19286W        W32700   5.968   0.460  15.511  0.0184  0.0750 -0.2749
19287W        W32701  17.447  17.276  10.636 -0.0669 -0.1758  0.1794
19288W        W32702   3.018   9.801   4.103 -0.0818 -0.0815 -0.3649
19289W        W32703   7.589   2.735   3.204 -0.0703 -0.1424  0.0948
19290W        W32704  10.005   1.481  10.081  0.0815 -0.1573 -0.1595
19291W        W32705  15.711  16.996  12.043  0.1264  0.2367  0.0085
19292W        W32706   0.258  16.293  16.517  0.4354  0.0574  0.1420
19293W        W32707  13.496   0.699  16.137 -0.3205 -0.1720  0.3136
19294W        W32708   7.663  17.970   1.093 -0.0202 -0.0681  0.0478
19295W        W32709   4.715  17.481  13.576 -0.1276  0.1384  0.0279
19296W        W32710   5.292   0.020  16.594  0.1541  0.0186  0.1392
19297W        W32711   0.203   2.278   2.677 -0.0494  0.2090 -0.0473
19298W        W32712   5.124  17.106  13.220 -0.0949 -0.1817  0.3063
19299W        W32713   3.432   6.341   4.421  0.1355 -0.2925 -0.0792
19300W        W32714  17.898   3.372   5.614  0.1787  0.0872  0.0069
19301W        W32715  10.255   4.686  15.541  0.0474 -0.0935 -0.1211
19302W        W32716   4.952   6.277  15.427 -0.0092  0.0399  0.1513
19303W        W32717   1.304  16.943  12.055 -0.0690  0.1429  0.3111
19304W        W32718   3.313  17.791   4.940  0.0229  0.0454 -0.2111
19305W        W32719   2.427   2.266  10.146  0.1245  0.3123  0.1024
19306W        W32720  14.888  11.693  15.981  0.1569  0.1843  0.0241
19307W        W32721   7.614   3.181   2.914 -0.0399 -0.1148 -0.0216
19308W        W32722  16.938   7.261   0.583 -0.1269  0.0825  0.1247
19309W        W32723  10.887   9.291  14.834 -0.0303 -0.0555 -0.3312
19310W        W32724  14.171   7.345  16.125  0.0464 -0.1939 -0.1281
19311W        W32725   6.452   5.197   3.927  0.0192 -0.1918  0.0982
19312W        W32726  17.543  11.740  11.981 -0.0062 -0.0925  0.0083
19313W        W32727  11.929   0.204  12.717 -0.4598  0.2251 -0.0656
19314W        W32728  17.937   3.327  12.111  0.3799 -0.0275 -0.1457
19315W        W32729   8.043  12.583  15.724 -0.0983  0.2973  0.0406
19316W        W32730   0.617   4.727  14.847 -0.1169 -0.3624 -0.0453
19317W        W32731  17.746  17.509   2.905  0.0876 -0.2350  0.0977
19318W        W32732   5.280   4.634   0.874  0.1891 -0.0877 -0.1926
19319W        W32733  17.095  16.607  14.655 -0.0395 -0.2472  0.0419
19320W        W32734  11.050   1.043   3.984 -0.3005  0.1305 -0.0688
19321W        W32735  17.099   3.888  16.498 -0.0051  0.0617  0.2597
19322W        W32736  15.556   8.530  13.059  0.3487 -0.0197 -0.1376
19323W        W32737  17.198   5.025  13.720 -0.1117  0.0489 -0.1262
19324W        W32738   2.542  13.829  13.839  0.1313  0.3238 -0.0563
19325W        W32739   7.466  16.136   5.667 -0.2198 -0.0133 -0.1354
19326W        W32740  16.896   8.808   4.768  0.1712  0.3429 -0.2049
19327W        W32741   3.954   5.381   4.518  0.3386 -0.1355  0.2061
19328W        W32742   8.519   6.699   2.350 -0.0975 -0.1920  0.3456
19329W        W32743   6.043   7.063  11.170  0.1547  0.0742  0.0023
19330W        W32744  17.822  17.546   3.427 -0.0727 -0.3225  0.2641
19331W        W32745   0.615  14.068   1.432 -0.0470  0.2720 -0.0665
19332W        W32746   8.881   3.585   3.354 -0.1864  0.1468  0.0493
19333W        W32747  13.018  11.826  15.562 -0.1476  0.0233  0.6153
19334W        W32748   9.333   9.809   3.637  0.1958 -0.0260  0.2723
19335W        W32749  13.006  14.271   0.929 -0.0516 -0.1856  0.0729
19336W        W32750  13.485   4.685   2.451 -0.2133 -0.0145 -0.1283
19337W        W32751   3.930  13.282  11.488  0.2165 -0.1742  0.1051
19338W        W32752  14.778   8.470  10.885 -0.0822 -0.0339 -0.0331
19339W        W32753  17.288   4.301   1.737  0.0550 -0.1067  0.0430
19340W        W32754   7.760  10.455   1.069  0.2128  0.2068  0.0527
19341W        W32755   4.425   1.124   0.811  0.3963  0.0713 -0.3179
19342W        W32756   4.440   9.260  10.476  0.0318  0.1983  0.1666
19343W        W32757  12.835   3.013  13.405  0.3277 -0.0945 -0.0546
19344W        W32758   1.458   5.302  11.412 -0.0034  0.0318 -0.1119
19345W        W32759  10.727  10.912  16.422  0.0729  0.1895  0.2290
19346W        W32760  14.374   8.660  12.952 -0.0104  0.1738  0.0731
19347W        W32761  10.628   9.309   4.968  0.0776  0.0322 -0.0508
19348W        W32762   9.749  16.180  16.322 -0.2196  0.1772  0.1311
19349W        W32763  13.791   1.369   1.451 -0.0139  0.1065 -0.0324
19350W        W32764   7.800   9.166   0.473  0.3389  0.1777 -0.1091
19351W        W32765   5.190   6.677   1.201 -0.2505  0.1142  0.2176
19352W        W32766   8.819  17.459   3.618 -0.2831 -0.0275  0.2985
19353W        W32767   0.096   6.258  14.621 -0.4060 -0.0702  0.0616
19354W        W32768   8.516  10.365   1.852 -0.1529  0.0080  0.2676
19355W        W32769  11.836  12.913   1.024 -0.0855 -0.0917  0.1735
19356W        W32770   0.757   3.781  15.041  0.1592 -0.1553  0.0382
19357W        W32771   4.323  17.530  10.679 -0.2828 -0.2573 -0.0589
19358W        W32772   5.537   1.464  14.030 -0.1258  0.4184  0.1634
19359W        W32773   5.489  10.091  15.120  0.1901 -0.2591 -0.1243
19360W        W32774  15.415  14.133   6.115  0.0577 -0.0055 -0.2732
19361W        W32775  10.978   0.650  14.928 -0.0395  0.1106 -0.1119
19362W        W32776  13.480  13.357  11.856  0.0787 -0.1354  0.1293
19363W        W32777   9.274   4.398  13.329 -0.4518  0.2185  0.2851
19364W        W32778   3.047  12.211   2.467  0.5005 -0.0652  0.2456
19365W        W32779   3.868  12.826  10.504 -0.0972 -0.1294 -0.1654
19366W        W32780  17.093   4.403  16.169  0.0726  0.0104 -0.0429
19367W        W32781   0.968  17.838   1.547  0.2977 -0.1356  0.1253
19368W        W32782   3.244  11.262  13.081 -0.4059  0.1080 -0.0721
19369W        W32783   9.139  11.676   6.352 -0.0980  0.0136  0.4035
19370W        W32784   3.437  13.413   2.103  0.0941 -0.3700 -0.2777
19371W        W32785  17.104   1.839   2.958 -0.0148  0.1438 -0.1990
19372W        W32786   0.745   7.722  10.573  0.0995  0.0818 -0.1110
19373W        W32787   2.302   0.285   4.423 -0.3313  0.2984  0.0638
19374W        W32788  13.692  16.117   3.535 -0.3981 -0.0620 -0.0165
19375W        W32789   0.403  15.629  16.033  0.0831  0.2972 -0.3439
19376W        W32790  11.772   8.084   0.304 -0.0927 -0.1466  0.4656
19377W        W32791  17.196  17.089   4.618  0.1468 -0.2432 -0.1488
19378W        W32792   8.455  11.163  10.835 -0.1050 -0.0564  0.1888
19379W        W32793   7.652  13.392  11.914 -0.3679 -0.0732  0.0141
19380W        W32794  13.350   0.590  14.070  0.0581 -0.2711  0.1740
19381W        W32795   2.853  14.808  12.905  0.1021 -0.0767 -0.0658
19382W        W32796   1.055   3.882  13.598 -0.0509  0.0549 -0.0273
19383W        W32797   4.095  16.484  12.095  0.1182 -0.2097  0.1575
19384W        W32798   9.616  16.654  15.092  0.0847  0.2585 -0.2344
19385W        W32799  10.942   9.451   2.166  0.1734 -0.1359 -0.0462
19386W        W32800  13.415   0.338   0.832 -0.0411 -0.0652  0.1375
19387W        W32801  16.901  17.954  13.665  0.0837  0.1940  0.0336
19388W        W32802  12.585   1.474   6.374 -0.0720  0.0923 -0.0337
19389W        W32803  11.396   4.472   0.550 -0.1654  0.0634  0.0187
19390W        W32804   6.215   4.431   2.007  0.1603  0.0190 -0.3139
19391W        W32805  13.648   3.266  12.351 -0.0016 -0.2826 -0.1073
19392W        W32806   7.174   4.956   4.333 -0.2196 -0.0161  0.0568
19393W        W32807   2.008   2.937  16.586 -0.2390  0.0044  0.0525
19394W        W32808   2.848   7.943   3.397  0.3986 -0.0454  0.1403
19395W        W32809   4.091  10.289   2.719  0.3131  0.2632  0.1793
19396W        W32810  11.024   0.278   2.496  0.0824 -0.0538  0.1235
19397W        W32811  14.640  13.856  13.051  0.0570 -0.0181 -0.0082
19398W        W32812  15.141   9.382  16.276  0.1648  0.0639 -0.3569
19399W        W32813   5.406  11.447  12.119  0.2518 -0.0216 -0.0014
19400W        W32814   4.187   1.142   3.200 -0.1859 -0.0577  0.2875
19401W        W32815   0.043  17.495  14.201 -0.2299  0.1179  0.1701
19402W        W32816   0.329  14.459   4.514  0.1657 -0.0418  0.0185
19403W        W32817  16.212  12.454  11.437 -0.0370  0.2943  0.1832
19404W        W32818  11.884  10.377   2.111  0.3303 -0.1216 -0.0364
19405W        W32819   3.709   9.170   2.339  0.2286 -0.2547 -0.0100
19406W        W32820  14.845   6.008  13.997 -0.2459  0.1618  0.0593
19407W        W32821  11.362   7.886  14.372 -0.0201 -0.3246 -0.0358
19408W        W32822  13.073  12.810   6.090 -0.0341  0.1352  0.2186
19409W        W32823   9.500   8.558   7.072  0.1662 -0.0015  0.2937
19410W        W32824   9.262  16.025   4.591 -0.2719 -0.1304  0.2556
19411W        W32825   8.062   7.679   2.259 -0.1405  0.1605  0.2178
19412W        W32826   3.888  10.333   6.636  0.2940 -0.3409 -0.3364
19413W        W32827   1.884   6.814   0.057 -0.0075 -0.5448  0.0233
19414W        W32828   5.390  12.352   3.937 -0.2907  0.0758 -0.0612
19415W        W32829  14.969  16.580  13.222 -0.0830 -0.0466  0.1338
19416W        W32830   0.536   6.208  15.936  0.3226 -0.0328 -0.2844
19417W        W32831  12.140  13.746   5.666 -0.0036  0.0624 -0.1641
19418W        W32832  11.189   0.868   3.212  0.0983 -0.0928  0.1050
19419W        W32833   9.046   9.467  11.325 -0.2236 -0.3586 -0.1306
19420W        W32834  17.623  12.613   5.698 -0.3955 -0.2656 -0.1358
19421W        W32835   5.461   4.225   0.626 -0.0066 -0.1806  0.1738
19422W        W32836   7.356  14.378  13.561  0.0353  0.0899  0.1357
19423W        W32837   9.812   0.272   5.050 -0.0265  0.2968  0.0964
19424W        W32838   9.547   2.945  11.515 -0.2006 -0.0676  0.0626
19425W        W32839   3.954   4.735  11.186  0.1487 -0.0985 -0.1801
19426W        W32840   8.840  11.710   0.185  0.1307  0.0982  0.3865
19427W        W32841   1.889  17.155   2.875 -0.0279 -0.0204  0.0798
19428W        W32842   7.734   7.097  12.794 -0.0169  0.1990  0.0303
19429W        W32843  14.835   8.928  11.419 -0.1974  0.0344 -0.3217
19430W        W32844  11.951   1.729   2.185 -0.1551 -0.1570 -0.1002
19431W        W32845  17.494   9.340   5.832 -0.0067  0.1436 -0.2991
19432W        W32846   5.828  14.658  16.341  0.1304 -0.0059 -0.1785
19433W        W32847  12.847  14.291  15.906  0.0795 -0.0986 -0.3464
19434W        W32848   8.723   7.055  14.545  0.1872 -0.1396 -0.2184
19435W        W32849   9.148   7.952   0.341 -0.1513 -0.1431 -0.1434
19436W        W32850   4.784  16.329   3.563  0.0751  0.1346 -0.1051
19437W        W32851   4.648  12.252  12.241  0.3673  0.1613 -0.1089
19438W        W32852   5.949  17.916  13.877  0.2056 -0.0998 -0.1993
19439W        W32853   7.415  17.146   2.457 -0.0297  0.2088 -0.3174
19440W        W32854  15.691   7.992   5.137  0.2123 -0.0422  0.1357
19441W        W32855   2.835   7.592   4.366  0.1668 -0.0379  0.1843
19442W        W32856   5.069   1.662  10.980  0.2394 -0.4838 -0.0760
19443W        W32857   2.870   1.577   5.486  0.0461  0.1872  0.0873
19444W        W32858  14.208   1.029  11.793 -0.3473  0.0307  0.4116
19445W        W32859  10.400   9.294   2.266 -0.1896 -0.0116 -0.3630
19446W        W32860   9.822   7.341   3.948  0.1101 -0.0412 -0.0654
19447W        W32861  15.034  10.891  13.374  0.0919  0.1505  0.0965
19448W        W32862  13.161  14.708  11.856  0.0138  0.0127  0.2576
19449W        W32863   3.177  15.900   1.026  0.2104  0.4219  0.0798
19450W        W32864   3.362   5.472   1.517  0.0169  0.1737  0.0887
19451W        W32865  12.127  17.494  10.987 -0.0947 -0.1777 -0.3176
19452W        W32866  14.071  11.769  12.049 -0.3936 -0.1463 -0.2760
19453W        W32867   4.859  13.093   0.091 -0.0449 -0.0301  0.1022
19454W        W32868   7.217   7.459   3.634 -0.2492  0.2822 -0.1024
19455W        W32869  17.588   5.967  11.044  0.3378 -0.0268  0.2275
19456W        W32870   7.455   7.277  15.111  0.0742 -0.0287 -0.0741
19457W        W32871   2.779   8.569  10.964 -0.2423 -0.3930 -0.0198
19458W        W32872  13.508   0.928   1.557 -0.4094  0.1664  0.0646
19459W        W32873   6.435   2.378  16.768 -0.1897 -0.1781 -0.0128
19460W        W32874   8.609   7.132  11.329  0.0323  0.1001 -0.0428
19461W        W32875   6.929  10.381  16.642  0.1706 -0.0438  0.0302
19462W        W32876   6.383   1.178   3.949  0.0092  0.1470 -0.1897
19463W        W32877  15.355  11.214   2.540  0.0855 -0.2076 -0.3076
19464W        W32878  16.606  12.410  11.852  0.0181 -0.1732  0.0859
19465W        W32879  10.540   8.739  14.431 -0.0446  0.0168 -0.0605
19466W        W32880   6.298   8.694  14.973 -0.0012 -0.1834  0.0689
19467W        W32881   3.700   3.367   4.947 -0.2644 -0.3204  0.0835
19468W        W32882   0.001   2.157   4.851 -0.4486  0.0941 -0.1149
19469W        W32883  14.712   8.670   2.962  0.2192 -0.0916  0.1354
19470W        W32884   0.153   6.402  13.330  0.1090  0.1468  0.1041
19471W        W32885   8.282   5.187  11.835  0.0926  0.1454  0.5139
19472W        W32886   4.044  13.223  13.413  0.0769  0.0547  0.2988
19473W        W32887  12.698   8.049   1.617  0.3166  0.0589  0.1306
19474W        W32888  15.872   8.486  13.473 -0.1258 -0.1236  0.1202
19475W        W32889   2.178   2.949  11.765 -0.1172 -0.0805  0.0335
19476W        W32890  17.048   4.049  14.691  0.1082 -0.1075 -0.0567
19477W        W32891   2.253  10.285   3.993  0.1849  0.0226 -0.2134
19478W        W32892  16.963  11.082   3.009  0.0894  0.1838  0.0340
19479W        W32893   6.226   7.831   2.042 -0.1586  0.1214 -0.1238
19480W        W32894  15.105   9.089   2.093  0.1922  0.0454 -0.3844
19481W        W32895   7.041  16.833  12.123  0.2218 -0.4463  0.2397
19482W        W32896   6.987   1.762   3.859 -0.2472  0.2965 -0.0130
19483W        W32897   5.848   2.621  12.409  0.4421 -0.0616 -0.0629
19484W        W32898   2.707  16.361   5.312 -0.1349 -0.0345  0.0123
19485W        W32899   1.583  17.804   0.260 -0.0213  0.1653  0.0904
19486W        W32900  14.941   1.602   0.841  0.1346  0.1642  0.2064
19487W        W32901  12.643  15.985   5.597  0.2194 -0.0057 -0.3390
19488W        W32902  12.728   0.708   1.816 -0.1908 -0.0607  0.1772
19489W        W32903  16.196  14.149  14.273 -0.0670  0.1239  0.1130
19490W        W32904   9.337  14.966  15.933 -0.1344 -0.0024 -0.4170
19491W        W32905   9.447   2.478  15.081 -0.0647 -0.0353  0.0146
19492W        W32906   5.794   5.354  10.955  0.0363 -0.1315  0.4460
19493W        W32907   8.885   6.456  16.024 -0.0641  0.1676 -0.1431
19494W        W32908   1.355   4.839   4.470 -0.1375  0.0965 -0.1529
19495W        W32909  16.887  14.129  11.345 -0.1820  0.4709 -0.1572
19496W        W32910   7.437   6.950   0.489 -0.0673 -0.1433 -0.0733
19497W        W32911   0.642  12.738  15.958  0.1054  0.0297 -0.2186
19498W        W32912   4.364  12.823   2.420 -0.1172 -0.0262 -0.2787
19499W        W32913  11.641  11.096   1.108 -0.1592 -0.3818 -0.1951
19500W        W32914  11.991   5.623   6.260 -0.0087 -0.1063 -0.0102
19501W        W32915   8.992   5.195  12.547  0.2107 -0.1517 -0.3692
19502W        W32916  10.831   9.383  15.848 -0.2998 -0.2336 -0.2622
19503W        W32917   8.374   7.106   0.340 -0.0244 -0.0247  0.3570
19504W        W32918  16.454  11.607   5.617  0.2018 -0.0957  0.4365
19505W        W32919   9.470  14.636   6.729  0.3015  0.2916 -0.0778
19506W        W32920  11.687   8.275   4.881  0.0497 -0.1185  0.2279
19507W        W32921   3.714  11.723   5.392  0.0721  0.2323 -0.2530
19508W        W32922   1.712  10.384  13.194 -0.0295  0.0964 -0.1324
19509W        W32923  16.079  14.345  11.826  0.4308  0.2328 -0.0737
19510W        W32924   2.258  12.993   5.585  0.0636 -0.1042  0.0695
19511W        W32925   1.266  14.078  15.754 -0.1978  0.0949  0.0043
19512W        W32926   7.787  16.682  16.339  0.2101  0.0094  0.1775
19513W        W32927   9.318   7.336   2.580  0.1301  0.3541  0.2502
19514W        W32928   6.211   0.662  15.875 -0.2546 -0.1764 -0.1604
19515W        W32929  16.897  17.410  15.290 -0.2388 -0.1509  0.1498
19516W        W32930   6.862  12.922  14.806 -0.0560  0.1292  0.1523
19517W        W32931   9.145  17.053   0.656 -0.2612 -0.2177 -0.1354
19518W        W32932   2.083   0.229  16.474  0.3030  0.0247  0.0286
19519W        W32933  15.285  14.588   6.238 -0.0926 -0.1185 -0.2113
19520W        W32934  15.798   1.663  12.676 -0.1105  0.0430  0.1957
19521W        W32935  13.305   3.833   0.102 -0.0194 -0.3563  0.0699
19522W        W32936   2.415   3.344   5.553 -0.1688 -0.0269 -0.3672
19523W        W32937   2.684  10.028  14.054  0.1806  0.1607  0.0582
19524W        W32938   8.898   1.102  10.618 -0.0592 -0.1251  0.1058
19525W        W32939   3.193   0.854  14.814  0.0561  0.0577 -0.2113
19526W        W32940  10.700  16.304   4.727  0.4172 -0.0418 -0.1621
19527W        W32941  13.399  14.175  16.540  0.1923  0.0070 -0.5043
19528W        W32942  14.245  11.176   3.873 -0.3279 -0.0656 -0.0972
19529W        W32943   0.767   3.951  16.151  0.3918  0.1456 -0.2719
19530W        W32944  11.215   7.431  11.380 -0.0584 -0.0390  0.4905
19531W        W32945  17.872  10.993   3.644  0.0281 -0.0900 -0.1816
19532W        W32946   0.977   8.382   3.695 -0.0063  0.6505 -0.3030
19533W        W32947  13.216   2.149   3.483 -0.2512  0.1345  0.1081
19534W        W32948  15.059   4.191   1.228  0.2749 -0.5640 -0.0591
19535W        W32949   7.852  16.130   6.215  0.0590 -0.0021 -0.3793
19536W        W32950  12.325  11.149  12.158  0.0679  0.2324  0.0041
19537W        W32951  13.603  14.821  14.015  0.2572 -0.1371  0.0351
19538W        W32952   0.832  12.877   2.783  0.0038 -0.0777 -0.0748
19539W        W32953   9.314   0.674  12.958  0.0108  0.1461 -0.2910
19540W        W32954  10.504   4.491  14.870  0.1940  0.0495  0.2077
19541W        W32955   4.306  13.448   2.162 -0.2735  0.2494  0.0311
19542W        W32956   6.976   7.026   3.839 -0.1536  0.0856 -0.1996
19543W        W32957   2.166   8.808   0.566 -0.3135  0.1259  0.0741
19544W        W32958   1.653  17.635   3.805 -0.1363  0.1960  0.1183
19545W        W32959   9.694  11.661  16.309 -0.3050  0.0034 -0.0161
19546W        W32960   2.296  14.218   1.789 -0.0249 -0.0068  0.1680
19547W        W32961  11.145  17.588  16.516  0.1695  0.0325 -0.0823
19548W        W32962  14.534  10.405   2.350 -0.1571 -0.0632  0.5983
19549W        W32963   5.788   1.085  10.569  0.2240 -0.0209  0.1840
19550W        W32964   0.663   5.203   0.361  0.1628 -0.0278  0.5374
19551W        W32965  17.757  12.420   4.405  0.1281 -0.1950  0.1312
19552W        W32966  16.099  14.740  11.118 -0.0817  0.2782 -0.0501
19553W        W32967  12.769   6.751  12.924  0.0006  0.0859 -0.1871
19554W        W32968  16.937   9.507   3.511 -0.0587 -0.0330 -0.1671
19555W        W32969  16.660  13.163   6.399  0.0943 -0.1696  0.1852
19556W        W32970  13.124  17.264   3.922  0.1203  0.0150 -0.1759
19557W        W32971   6.508   8.679  13.006  0.1488 -0.0682 -0.0095
19558W        W32972  11.613  17.408   3.348 -0.2652  0.1445  0.0449
19559W        W32973   5.073   9.477  15.957 -0.0559 -0.0671  0.0553
19560W        W32974   1.615  12.409   1.431  0.2578 -0.2089  0.2542
19561W        W32975  16.425   5.322   1.637 -0.1510 -0.2592 -0.0526
19562W        W32976   4.339   6.777  11.915  0.0625  0.1651 -0.3759
19563W        W32977   3.648  16.469  10.613  0.1507  0.1848  0.3144
19564W        W32978   3.731  11.728   3.138 -0.0130  0.1131 -0.0645
19565W        W32979  17.298   9.113   3.503 -0.0090  0.1978  0.2036
19566W        W32980  13.930  12.958  13.977 -0.1440  0.2785 -0.0080
19567W        W32981  12.682  11.910   4.108  0.0606 -0.0736 -0.2642
19568W        W32982   9.819   4.449  16.149 -0.2565 -0.1036  0.3012
19569W        W32983  10.973   6.493  15.710  0.1970  0.0894 -0.0826
19570W        W32984   1.824  12.391   0.948 -0.1415 -0.1027 -0.0954
19571W        W32985  11.599  10.455   3.677 -0.1354  0.0352  0.0147
19572W        W32986   4.762  10.222   2.132 -0.0544  0.2530  0.1140
19573W        W32987  17.896  11.443   5.188 -0.1188 -0.1208 -0.1475
19574W        W32988  10.401   1.415   3.207 -0.1465  0.2423  0.2322
19575W        W32989   7.165  10.278  13.818 -0.0250 -0.1637 -0.2035
19576W        W32990  13.041  12.219   0.348  0.0409 -0.0485  0.0445
19577W        W32991   4.801   0.924  14.155 -0.0190 -0.0575  0.0240
19578W        W32992   7.883   1.520  11.978  0.4963 -0.1085  0.1138
19579W        W32993   0.999  10.519   4.301  0.0611  0.4027 -0.0255
19580W        W32994   0.609  14.434   4.040  0.1550 -0.1034 -0.0493
19581W        W32995  16.355   6.459   5.467 -0.1877 -0.1850 -0.1805
19582W        W32996  11.105   8.301  16.244  0.3897 -0.1345  0.0137
19583W        W32997  12.771  10.356  16.554  0.0820 -0.4353 -0.2336
19584W        W32998  14.013   3.929   1.635  0.0058  0.0106  0.3614
19585W        W32999  14.503   7.833  12.143 -0.2007  0.1435 -0.0053
19586W        W33000   4.017  14.720   0.515 -0.0128 -0.0277 -0.1281
19587W        W33001   6.341  16.187   0.101 -0.0975  0.1247  0.2425
19588W        W33002  17.486   5.796   4.151  0.0845  0.0280  0.0418
19589W        W33003  17.647   3.412   4.603  0.1342  0.0261 -0.3020
19590W        W33004   1.881  17.601   1.626  0.2521 -0.2348 -0.0655
19591W        W33005  15.957  12.196   1.428 -0.0633  0.0499  0.1364
19592W        W33006  14.488  17.406  12.548 -0.0147  0.3748 -0.1986
19593W        W33007   4.411  10.109   5.300  0.0579 -0.0572 -0.1233
19594W        W33008  13.187   6.967   5.982  0.0230  0.2448 -0.0247
19595W        W33009   0.495   5.778  12.269  0.1634 -0.0856 -0.1459
19596W        W33010  11.805  15.393  14.663  0.0543 -0.2042  0.0039
19597W        W33011  12.565   5.208  13.753 -0.3795  0.0642  0.1334
19598W        W33012   0.722   2.536   1.438 -0.0398 -0.1636 -0.1085
19599W        W33013   6.515   9.662  14.381 -0.1691  0.0211 -0.3170
19600W        W33014   4.152   3.016  15.996 -0.2898  0.0042  0.2866
19601W        W33015   2.938   8.306  10.558 -0.2527  0.1437  0.0160
19602W        W33016   3.423  10.485   3.784  0.0374  0.3105  0.0883
19603W        W33017   2.301  10.840   6.152 -0.0745 -0.3974 -0.0099
19604W        W33018   3.294   7.793   4.114  0.2124  0.1679 -0.1156
19605W        W33019   1.174  14.010   1.899  0.2158 -0.1257  0.1577
19606W        W33020   8.555  10.398   0.383 -0.0753  0.2567  0.3794
19607W        W33021   7.927   4.340  14.336  0.0862  0.0750 -0.0842
19608W        W33022   0.220  13.924   4.564  0.0197  0.1751  0.2371
19609W        W33023  10.595   0.527  16.554  0.1714  0.0478  0.2413
19610W        W33024  17.177  11.039   5.897  0.4724 -0.2279 -0.0364
19611W        W33025   2.457   4.525  11.995  0.1152 -0.1414  0.0057
19612W        W33026   9.624   6.045  15.523 -0.0726 -0.0704 -0.1868
19613W        W33027  10.532   3.710  13.574  0.3058  0.2817  0.3739
19614W        W33028  13.064   8.045  11.837  0.0564 -0.1411 -0.1590
19615W        W33029   6.074  14.229   2.598 -0.0070  0.0681 -0.0501
19616W        W33030   3.327   0.361  13.982 -0.0595 -0.0233  0.1071
19617W        W33031   9.315  10.448   4.274 -0.1235  0.1029 -0.0678
19618W        W33032  12.494  15.049   6.146 -0.1432  0.0799 -0.0084
19619W        W33033   9.118   9.171   2.970  0.2277  0.3210  0.2051
19620W        W33034   2.852   4.111   1.853 -0.0649 -0.2659 -0.0737
19621W        W33035  12.544  10.627  11.840 -0.1511 -0.1722  0.1116
19622W        W33036   4.305   9.312  14.761 -0.3020  0.2379 -0.0354
19623W        W33037   1.555  15.012   4.374 -0.2890 -0.0389 -0.0537
19624W        W33038   7.405  13.309  15.447  0.2823 -0.3024  0.0636
19625W        W33039   8.568  17.400   5.744  0.2193 -0.0586 -0.0957
19626W        W33040   1.413  17.849   1.898  0.1404  0.0061  0.1520
19627W        W33041   1.449  15.376   1.310 -0.0278 -0.0877 -0.0101
19628W        W33042  12.512  10.563   5.905  0.0800 -0.1706  0.3034
19629W        W33043   7.523   4.389  14.625 -0.1949 -0.1068  0.0557
19630W        W33044   2.110   5.871   6.189 -0.1575  0.2158  0.2754
19631W        W33045   2.343  15.096   1.354  0.3091 -0.1384 -0.0820
19632W        W33046   2.806  11.612   3.991  0.2303  0.0594 -0.0081
19633W        W33047   5.669  12.821  14.220  0.0981  0.2523 -0.1079
19634W        W33048   6.600  15.150  12.309 -0.0077  0.2569 -0.0554
19635W        W33049  10.149  13.097   3.832  0.1141  0.0168 -0.1808
19636W        W33050   5.129  10.855  11.421  0.1497 -0.2551 -0.2715
19637W        W33051  10.832   0.960  14.478  0.0583  0.2372 -0.0497
19638W        W33052   6.509   1.803  12.666  0.2532  0.1189  0.0907
19639W        W33053  11.073   2.872  13.177 -0.3655 -0.5140 -0.0174
19640W        W33054   2.450   2.739  10.261  0.4831  0.1610  0.0917
19641W        W33055  15.701   1.123  14.483  0.1664 -0.3032  0.1961
19642W        W33056   0.558   7.797   5.929 -0.0332  0.1744 -0.2107
19643W        W33057  10.600  11.248   4.479  0.0613  0.2157  0.1800
19644W        W33058  12.274   6.807  16.183 -0.3169  0.1780  0.1500
19645W        W33059   3.891   6.627   4.926 -0.1479 -0.1091 -0.2243
19646W        W33060  16.328   4.054  15.907  0.1323  0.1385 -0.0786
19647W        W33061   5.160   4.107   3.594  0.1855  0.3329  0.0799
19648W        W33062  17.380   6.643   1.318 -0.1779  0.2111  0.2380
19649W        W33063  12.824  16.938  14.180 -0.0166  0.2238 -0.0689
19650W        W33064   5.675   5.456  12.305  0.0658  0.1922 -0.1369
19651W        W33065   4.631  14.468  14.087  0.3500  0.0355 -0.2130
19652W        W33066  15.738   7.987   2.042  0.4034 -0.2057 -0.2570
19653W        W33067  14.812  12.017  13.974  0.2178  0.0812 -0.1614
19654W        W33068  16.771   4.826   0.496  0.2766 -0.2114 -0.3441
19655W        W33069  14.671   8.516  16.481  0.2374  0.0946  0.0873
19656W        W33070   3.454  14.640   4.221  0.0065 -0.0425  0.0720
19657W        W33071  12.779  10.948  14.445  0.3251  0.1490 -0.1097
19658W        W33072   1.080   8.830  10.707  0.0231 -0.3070  0.0538
19659W        W33073   0.973  15.237   1.247 -0.1077 -0.1867 -0.1602
19660W        W33074  10.557  16.015  15.449 -0.1322  0.2123  0.0369
19661W        W33075  16.557  15.423   5.470 -0.1159 -0.1294 -0.1656
19662W        W33076  10.594  16.924  12.333 -0.1211  0.0361 -0.0475
19663W        W33077   7.712   5.019  11.096  0.1494 -0.0834 -0.0659
19664W        W33078   7.188   7.933   3.858 -0.0334 -0.0241 -0.0194
19665W        W33079   8.334   0.198  15.372 -0.2973  0.0433  0.1824
19666W        W33080   3.245   8.208  11.448  0.2048 -0.0366  0.2419
19667W        W33081   7.304   2.142   2.617 -0.0468 -0.0047  0.0344
19668W        W33082  15.438   9.478   1.927  0.0673  0.2813 -0.0785
19669W        W33083  11.952   5.155  13.137  0.2911 -0.1119  0.1429
19670W        W33084  14.534  14.944  12.946 -0.2056  0.3532 -0.1636
19671W        W33085   8.616   4.823  14.723 -0.0270 -0.2565 -0.0734
19672W        W33086  12.465   5.708  10.949 -0.2316  0.0387 -0.0847
19673W        W33087  13.491   7.708   4.263  0.0750 -0.0780  0.0806
19674W        W33088  14.646   4.116  16.204  0.0375  0.0850 -0.0056
19675W        W33089  12.403   1.108   1.697  0.1024 -0.2197  0.3844
19676W        W33090  10.599  12.044   3.255  0.2331  0.2777  0.1067
19677W        W33091   3.547  10.742   1.033  0.0887  0.2354  0.0066
19678W        W33092  12.611   7.679   0.382  0.1056  0.0941  0.0554
19679W        W33093  12.602  13.384   6.374 -0.2610  0.2522  0.1593
19680W        W33094   8.334  11.720   2.904  0.1324  0.0454  0.1941
19681W        W33095   7.888  10.592   3.803 -0.2274 -0.0832  0.1604
19682W        W33096   1.335   4.239   1.788 -0.0782  0.0975 -0.1033
19683W        W33097   9.949  12.441  12.793  0.0866 -0.0554 -0.0770
19684W        W33098   2.192  17.419  11.152 -0.0202  0.1439  0.0203
19685W        W33099  16.778  13.820   3.529  0.1484 -0.0665  0.1080
19686W        W33100  14.871   0.330  12.752 -0.0463 -0.2216  0.2000
19687W        W33101   5.005   6.219  13.388  0.1669 -0.1766 -0.0482
19688W        W33102   3.529  16.422   4.726 -0.3909 -0.3576 -0.3332
19689W        W33103  14.469   2.892   5.000 -0.1916  0.1659 -0.0484
19690W        W33104   5.323   5.423   2.234 -0.0760  0.1562  0.2174
19691W        W33105   4.555   5.787  11.650  0.2239 -0.1426 -0.0985
19692W        W33106   6.930   8.599  13.593  0.0229 -0.1161  0.0541
19693W        W33107  15.244  16.328   0.008 -0.0607  0.1688 -0.2540
19694W        W33108   0.051   4.963   5.833 -0.1905 -0.3066 -0.0332
19695W        W33109  16.673  14.064  10.890  0.1808  0.0084  0.2104
19696W        W33110  12.059   2.112  12.223  0.0193 -0.0176  0.2005
19697W        W33111   7.673  11.605   0.177 -0.1187  0.1210  0.3908
19698W        W33112  10.225   8.000   5.610 -0.1138 -0.5314 -0.0533
19699W        W33113   2.057   7.003   1.301 -0.0436 -0.0849 -0.0335
19700W        W33114   4.642   3.309   4.895  0.1404  0.1317  0.1278
19701W        W33115   0.557   6.444   1.249  0.1136 -0.0666  0.0892
19702W        W33116   8.814   1.855   4.216 -0.0707  0.2989  0.0484
19703W        W33117   9.715   5.967   0.099 -0.3667 -0.1378 -0.0859
19704W        W33118  14.192  13.261   5.095 -0.0502  0.3445 -0.1880
19705W        W33119  13.969  16.692   6.148 -0.0103  0.1581  0.3857
19706W        W33120  12.961  14.044  14.267  0.1491  0.0468  0.1431
19707W        W33121  11.555  11.882  16.663  0.1461  0.0473 -0.1327
19708W        W33122  17.586  16.677  16.107  0.1766  0.0066 -0.3456
19709W        W33123   0.917   2.631  16.374 -0.0550 -0.0293 -0.1108
19710W        W33124   9.272   2.374  10.854  0.0185  0.1376 -0.0303
19711W        W33125   1.309   0.984   9.681 -0.0658  0.2375  0.1800
19712W        W33126   9.260  14.428  12.674 -0.2349  0.0414  0.0194
19713W        W33127   0.824  14.659   4.404  0.1501 -0.1222 -0.1772
19714W        W33128  10.040  10.427  10.930  0.2989  0.2423 -0.2975
19715W        W33129   0.427  16.553   3.241  0.0706 -0.0351 -0.1804
19716W        W33130  17.467  13.786  11.388  0.0185  0.1579  0.0647
19717W        W33131   5.612   5.649   5.362  0.4580 -0.0511  0.0578
19718W        W33132  10.745   3.951   1.181 -0.1409  0.1878 -0.1047
19719W        W33133  12.416  12.224   1.148 -0.1880  0.1334 -0.2276
19720W        W33134  15.001  16.420   4.877 -0.0833 -0.1444  0.2149
19721W        W33135  10.176  10.140  15.883 -0.0231 -0.1792  0.1218
19722W        W33136   3.516  11.870  13.955  0.3472 -0.2417 -0.0502
19723W        W33137   9.869  16.434  15.894  0.1696  0.2415 -0.1859
19724W        W33138   6.613   8.843  12.498 -0.2230  0.0145 -0.2735
19725W        W33139  14.616   9.661   3.874 -0.0710  0.0359  0.1325
19726W        W33140  11.587  14.901   4.831  0.3353  0.0748 -0.1541
19727W        W33141   8.421   5.951   1.714  0.5162  0.3198 -0.1491
19728W        W33142   4.003   1.194  15.194  0.3209  0.3183 -0.1186
19729W        W33143  11.840   4.823   3.099  0.1484  0.0295 -0.0753
19730W        W33144   4.908   0.081  14.299  0.1245  0.0271 -0.1776
19731W        W33145   2.061   2.205   0.094  0.3888 -0.0060  0.0956
19732W        W33146  17.124  16.739  16.339 -0.0477  0.2312  0.3780
19733W        W33147  14.439   0.589   2.884  0.0853 -0.1059 -0.1088
19734W        W33148   8.145   2.056   2.849  0.0465 -0.1316 -0.0470
19735W        W33149   3.342  14.160   0.715 -0.1225 -0.0491 -0.0611
19736W        W33150   8.494   5.153  11.274 -0.0994  0.1357  0.2267
19737W        W33151   4.456   8.888  14.887  0.2144 -0.1025 -0.3835
19738W        W33152  10.435  15.258   6.216 -0.0693  0.0799  0.1206
19739W        W33153  12.631   6.194  15.502  0.1233  0.1563  0.1201
19740W        W33154   1.994  16.122   3.910  0.0590  0.0220 -0.1807
19741W        W33155  12.712   0.038   2.544 -0.2487  0.2720 -0.3557
19742W        W33156   0.299  10.693  15.094 -0.1878 -0.0529  0.1358
19743W        W33157  13.133   7.545  12.788  0.0035  0.0219 -0.0789
19744W        W33158   0.790  12.076   1.142  0.1044 -0.4488  0.4373
19745W        W33159  13.556   4.433  14.331 -0.2218 -0.2137  0.2111
19746W        W33160  12.630   6.432   4.214 -0.1211 -0.2723  0.0139
19747W        W33161  11.362   1.404   5.117 -0.1388  0.1671  0.0407
19748W        W33162  12.202  11.668  16.093  0.1727 -0.1149 -0.1702
19749W        W33163  15.168  14.141  13.786 -0.0380  0.0284 -0.0965
19750W        W33164  14.334   9.229  12.876  0.1384  0.1640  0.1798
19751W        W33165   3.847   3.013  12.059 -0.0066 -0.0832  0.2113
19752W        W33166  17.565   6.597  10.454  0.0353  0.0511  0.0332
19753W        W33167  10.011  15.705   2.420 -0.0913  0.2790  0.1036
19754W        W33168   5.219   1.619   2.694  0.3106 -0.0526  0.2667
19755W        W33169   8.165   4.698  12.710  0.1623 -0.0977 -0.1790
19756W        W33170   7.723  16.832  15.380  0.2876  0.1960  0.1124
19757W        W33171   0.861   5.935  12.664 -0.0971 -0.1524  0.1022
19758W        W33172  14.385   3.019  15.134 -0.1208  0.0841 -0.1631
19759W        W33173   2.254   1.983   0.507  0.0111  0.1498 -0.0905
19760W        W33174  16.254  12.598   2.448  0.1512  0.0653 -0.2739
19761W        W33175   4.811   0.608  12.506  0.4617  0.2352  0.0569
19762W        W33176   3.431   3.652  15.700 -0.2556  0.1831  0.0924
19763W        W33177   3.742   2.548  12.124 -0.1286  0.2446 -0.0726
19764W        W33178  13.050  10.749   0.825 -0.0022 -0.1582 -0.2407
19765W        W33179  12.367   6.861   4.065  0.2374  0.2174  0.0397
19766W        W33180   1.902  16.309  14.128  0.2110 -0.0021  0.0782
19767W        W33181   8.540   0.698   0.177  0.0745  0.0378  0.0948
19768W        W33182   1.305  17.675   3.392 -0.1856 -0.4792 -0.1263
19769W        W33183   0.706  17.252   4.025 -0.4121 -0.3677 -0.4231
19770W        W33184   2.950  14.682  10.240  0.0183 -0.1637  0.1914
19771W        W33185   7.816   2.001  16.391  0.1538 -0.1158 -0.1267
19772W        W33186   7.184   5.204   3.427 -0.1320 -0.1731  0.1106
19773W        W33187   9.569  11.151   1.219 -0.1800 -0.0945  0.1202
19774W        W33188  17.717  13.409  16.439  0.0904  0.0557 -0.0259
19775W        W33189   7.388   5.162   0.314  0.0257  0.2031 -0.1557
19776W        W33190   9.488  12.508   4.891 -0.2149 -0.2614  0.2558
19777W        W33191   2.905   6.018   1.869  0.0059 -0.0608 -0.0070
19778W        W33192  17.679  10.485   0.732 -0.3874 -0.2255  0.1365
19779W        W33193   7.850  13.896   1.747  0.1700 -0.2584  0.0525
19780W        W33194  13.273   2.486   2.554 -0.0140  0.0455 -0.1088
19781W        W33195   9.566   9.670   4.067 -0.1533  0.0698  0.1593
19782W        W33196   0.647   8.402  12.031  0.2216 -0.0689  0.1052
19783W        W33197  10.371   5.825   0.834  0.0473 -0.2230 -0.1980
19784W        W33198  14.702   2.112   2.342  0.1041  0.1961 -0.0169
19785W        W33199  16.415   0.207   4.100  0.2542 -0.2148 -0.0901
19786W        W33200   2.069   8.927  14.413 -0.2251 -0.0651  0.1521
19787W        W33201   5.740   8.630   3.564  0.2080  0.0116 -0.0944
19788W        W33202  14.201   8.082   0.494  0.1617 -0.0920  0.2062
19789W        W33203   4.014  16.776   3.951  0.1843  0.0150 -0.2686
19790W        W33204  16.706  11.066  12.131  0.2627 -0.1510 -0.0214
19791W        W33205   7.928   8.050   4.287 -0.1206 -0.0049  0.0619
19792W        W33206   7.264   7.450   2.673  0.3421 -0.2119 -0.0043
19793W        W33207   1.521   3.199  14.636 -0.3652 -0.4933  0.1277
19794W        W33208   0.390  11.081  16.411  0.0175  0.2527 -0.1487
19795W        W33209   9.965  14.700   4.473  0.0975 -0.0569  0.2211
19796W        W33210  16.661  11.469  11.597  0.1924 -0.0168 -0.2534
19797W        W33211   8.903  16.355  16.008 -0.0559  0.1807 -0.0978
19798W        W33212   6.874   5.588   3.144 -0.3830 -0.2172 -0.0524
19799W        W33213   7.112  15.004  15.537 -0.0561  0.1472  0.0642
19800W        W33214  12.856   7.830   6.072  0.2246  0.2188 -0.2376
19801W        W33215  14.002   0.699   3.783 -0.1070  0.0017  0.1168
19802W        W33216   6.314   0.174  11.226  0.2161 -0.0432  0.0349
19803W        W33217  16.843   5.843  12.917  0.3921  0.1321 -0.1924
19804W        W33218   4.277  11.129  16.541 -0.2626  0.3541  0.1243
19805W        W33219   1.917   6.710  14.132  0.0008 -0.0539 -0.1905
19806W        W33220   6.224   5.217   4.385 -0.1574  0.2659  0.0841
19807W        W33221  13.953   9.818   2.427 -0.1802  0.1193  0.0681
19808W        W33222   7.883   5.679   0.950 -0.2993  0.2151  0.0711
19809W        W33223   7.275  10.505   4.883  0.0645 -0.0602 -0.2070
19810W        W33224   1.857   0.235  14.820  0.2650  0.0165 -0.0627
19811W        W33225   4.000   4.859   4.734  0.0950 -0.1333 -0.2143
19812W        W33226   7.032  11.814  11.902 -0.3239  0.0904  0.2560
19813W        W33227   6.401  10.903   2.326  0.1718 -0.1173  0.1104
19814W        W33228   5.637  15.575  13.073  0.1610  0.3279 -0.0199
19815W        W33229   8.900   9.368   4.876  0.1291 -0.1336  0.0561
19816W        W33230  12.368  17.487   2.132  0.0052  0.2559  0.0835
19817W        W33231   9.554  12.309  11.815 -0.0199  0.0510  0.2717
19818W        W33232   2.074   3.786  10.965 -0.2660  0.2662 -0.1052
19819W        W33233   2.900  13.687  16.522  0.0298 -0.0076  0.1640
19820W        W33234  16.820  15.746  16.765 -0.0227  0.1477  0.1140
19821W        W33235  11.695  14.416   4.405 -0.2838  0.0770 -0.0935
19822W        W33236  11.019   2.419   1.990 -0.4225 -0.1410 -0.1545
19823W        W33237   0.187  13.537   0.878 -0.1098 -0.0332 -0.0943
19824W        W33238   3.242   5.889  11.269 -0.2507  0.0803 -0.0016
19825W        W33239   4.748  12.027   6.218  0.0042 -0.1327 -0.1992
19826W        W33240  11.523   0.969   1.729 -0.1192  0.1639 -0.0179
19827W        W33241  15.010   4.414  14.349  0.0124  0.1323  0.1050
19828W        W33242  12.075  16.684  11.310 -0.4680 -0.0248 -0.2411
19829W        W33243   0.788  11.031  11.016 -0.0401  0.0949 -0.1116
19830W        W33244  14.384   4.010   1.982 -0.0900 -0.0359 -0.6176
19831W        W33245  10.603   7.256   1.722 -0.0413  0.0922 -0.1066
19832W        W33246  16.802   9.714   1.121  0.1017  0.1423  0.2550
19833W        W33247  15.787  17.898  15.441  0.1062 -0.1836  0.4643
19834W        W33248   2.222  14.640  16.138 -0.0233 -0.3117 -0.3166
19835W        W33249   7.786   7.166  15.824  0.0544  0.1970 -0.0060
19836W        W33250   7.906   3.564  12.739 -0.0090  0.0670 -0.0905
19837W        W33251   8.748   3.925  12.808 -0.3570 -0.2087 -0.1254
19838W        W33252   4.080   9.634  12.759  0.0723 -0.0341  0.0348
19839W        W33253   8.833   2.710   1.388 -0.5259 -0.2040  0.1386
19840W        W33254   4.430   0.876  15.917  0.2708  0.0378 -0.1250
19841W        W33255   9.332   8.131   5.564 -0.2125 -0.0234  0.1781
19842W        W33256   0.828  11.109   3.753  0.2103  0.3485 -0.2268
19843W        W33257  16.766  14.870  16.543 -0.2859 -0.3167 -0.2091
19844W        W33258  14.606  16.289   1.611 -0.0504 -0.1476  0.3234
19845W        W33259   0.163   3.972   3.374 -0.2659  0.1139  0.1543
19846W        W33260   6.894   7.806  14.668 -0.0643 -0.0251 -0.2227
19847W        W33261  13.203  15.586  13.414  0.1531 -0.4813  0.3107
19848W        W33262  16.449  16.098  14.107 -0.2236 -0.1241 -0.1345
19849W        W33263   6.380   0.686   5.794  0.2687  0.1363 -0.2777
19850W        W33264  17.627   1.785   2.281 -0.1244 -0.0974  0.0577
19851W        W33265   4.889   5.679  11.258  0.2394 -0.0446  0.0665
19852W        W33266   8.728  15.765   5.756 -0.1732  0.2301 -0.0382
19853W        W33267   5.233  11.828  13.744  0.1388  0.1514 -0.2639
19854W        W33268  12.103   3.581  15.455  0.0187  0.0588  0.1103
19855W        W33269   8.930   0.144  16.168  0.0535  0.3050  0.5135
19856W        W33270   2.250   7.866   0.846 -0.2320  0.3069 -0.1926
19857W        W33271   2.037   2.882  15.710  0.1118  0.1107 -0.0133
19858W        W33272   9.176   6.008   5.294  0.2193  0.0740  0.0821
19859W        W33273  15.274   1.980  13.909 -0.3354 -0.0858  0.0362
19860W        W33274  16.883  13.597  15.358 -0.2475 -0.1096 -0.1007
19861W        W33275  14.346   4.674  12.326  0.0373  0.1078  0.0028
19862W        W33276   6.020  12.685   3.059  0.0113 -0.1472 -0.1394
19863W        W33277  15.736  12.142   2.389 -0.0882  0.1388  0.2703
19864W        W33278   7.559   5.400   5.479 -0.2222 -0.1242  0.1982
19865W        W33279  16.068   5.993  10.928 -0.0034  0.3091  0.2418
19866W        W33280  17.497   5.934  16.005 -0.2220 -0.0266 -0.1579
19867W        W33281  17.528   6.854  14.085 -0.0862 -0.1712  0.0283
19868W        W33282   1.658  12.963  10.922  0.1601  0.0630 -0.3714
19869W        W33283   2.445   9.154   4.075  0.1221  0.1023 -0.1258
19870W        W33284   6.852  14.914   2.936 -0.1636  0.1280 -0.0074
19871W        W33285  14.653  16.760  14.430  0.1145 -0.1350 -0.0621
19872W        W33286   0.463   8.277   4.454  0.0166  0.3027  0.4192
19873W        W33287   7.425   2.024   0.875 -0.0176 -0.1391  0.2717
19874W        W33288  15.809   4.971  16.260 -0.1047 -0.2496  0.1675
19875W        W33289  15.254  14.285  16.673 -0.1491  0.1023  0.4478
19876W        W33290  12.990  16.157   4.260  0.3510  0.3517 -0.0248
19877W        W33291  15.334   3.281  14.119  0.0826  0.0365 -0.3195
19878W        W33292   3.897   7.043   0.016  0.1520  0.2143  0.0648
19879W        W33293  13.840   5.705   3.621 -0.0004 -0.0307 -0.3453
19880W        W33294  16.461   2.014   3.354 -0.0781  0.2622 -0.2037
19881W        W33295  12.595   0.117  10.539 -0.1488  0.2050  0.2158
19882W        W33296   2.438  17.680   0.355 -0.0240  0.1070 -0.3246
19883W        W33297  13.728   5.433   3.218  0.1229 -0.4558  0.1926
19884W        W33298  11.435   2.796   6.019 -0.2716  0.4383 -0.1916
19885W        W33299   0.913  10.559   0.689 -0.1924  0.0402 -0.1156
19886W        W33300   8.826   4.492  14.382 -0.0507 -0.0005 -0.1560
19887W        W33301   8.389  17.330   3.828 -0.0976 -0.4099 -0.2655
19888W        W33302  15.880  10.758  11.632  0.0899  0.1100 -0.0439
19889W        W33303   0.512   4.467   2.147  0.0103  0.3011  0.1726
19890W        W33304  15.398  14.562   0.318 -0.2184  0.0181 -0.1898
19891W        W33305  17.871   1.261   5.651 -0.4215  0.1386 -0.2277
19892W        W33306   8.283   1.762  14.160 -0.5069  0.1207  0.2785
19893W        W33307  17.563  15.038   0.942 -0.0237  0.1075 -0.1827
19894W        W33308   3.045   2.730  13.097 -0.2365  0.0011 -0.1892
19895W        W33309   8.439  11.700   5.112  0.2239  0.0672  0.2989
19896W        W33310  14.812   6.625  11.200 -0.1313 -0.1384 -0.1718
19897W        W33311   1.966  11.662   2.439  0.0117  0.0537 -0.2132
19898W        W33312  10.882  16.853  10.714  0.0272 -0.0184  0.1186
19899W        W33313  13.158   2.708   6.382  0.2467 -0.1181  0.0660
19900W        W33314   9.461   5.471  11.816 -0.1920 -0.1311 -0.1147
19901W        W33315   5.889   0.316  14.721  0.0137 -0.2438 -0.1221
19902W        W33316  17.169   1.188  13.448  0.1856  0.1893  0.0900
19903W        W33317  15.396  16.394  10.799 -0.0754 -0.2353 -0.0496
19904W        W33318  11.035   3.142  16.546  0.2576 -0.2672  0.1476
19905W        W33319  10.046   0.368  10.789 -0.0044 -0.0442  0.0780
19906W        W33320   1.944  17.668  12.937 -0.0026  0.0290  0.1833
19907W        W33321  15.758   5.075   0.954 -0.1120 -0.0856 -0.0936
19908W        W33322   3.858  16.804  12.486  0.1607  0.1401 -0.2888
19909W        W33323  13.129   8.791   2.089 -0.0337  0.0411  0.3919
19910W        W33324   2.314  16.099  12.358  0.2095 -0.1942  0.1128
19911W        W33325  14.624   0.581  14.176  0.0476 -0.0212  0.2547
19912W        W33326  15.662  17.767  15.925 -0.0231  0.0073 -0.0486
19913W        W33327  11.227  11.904  15.840  0.0919 -0.0315  0.0064
19914W        W33328   1.806  10.651   5.293 -0.2882  0.1147  0.2800
19915W        W33329  10.235   2.458  12.028  0.0188  0.0981  0.1331
19916W        W33330  15.981  10.292  11.958 -0.2003 -0.0786  0.0317
19917W        W33331   8.304  16.108   4.085 -0.2688 -0.0300 -0.0291
19918W        W33332  14.672   7.461  11.419 -0.1920 -0.2932  0.0206
19919W        W33333   2.822   7.214  15.899 -0.0728  0.2411 -0.1569
19920W        W33334   6.620   4.943  15.662 -0.4022 -0.1252 -0.1759
19921W        W33335   3.403   3.442  14.850 -0.3098 -0.4612  0.0808
19922W        W33336  16.820   4.531  11.164  0.0819 -0.2836  0.0487
19923W        W33337   6.653  15.731   0.806 -0.1720 -0.3619  0.0395
19924W        W33338  10.896   9.994  16.582  0.2530  0.3907  0.1424
19925W        W33339   9.002   1.380  13.483 -0.2015  0.4635  0.1618
19926W        W33340   2.824   1.946  14.033  0.0580  0.1140  0.1124
19927W        W33341  16.442  17.804  12.641  0.1544 -0.0416  0.0918
19928W        W33342   4.356   6.172   1.188  0.0238 -0.2091 -0.0439
19929W        W33343   0.840   6.678   5.835  0.1070 -0.0714 -0.0834
19930W        W33344   9.657  12.433   6.005  0.0316 -0.0750 -0.0879
19931W        W33345   3.052  11.933  14.159 -0.0707  0.2417 -0.4404
19932W        W33346   2.812  16.749   4.935 -0.1669 -0.3057 -0.2313
19933W        W33347   7.770   7.751  15.839 -0.0100 -0.1783 -0.0488
19934W        W33348   2.037   2.721   0.266 -0.0698  0.0559 -0.2756
19935W        W33349   8.524   7.012   2.749  0.1220 -0.3094 -0.0197
19936W        W33350  14.533   5.644  12.361 -0.0766 -0.2997 -0.1268
19937W        W33351  12.305   1.327  16.637  0.0266 -0.1512  0.0356
19938W        W33352   8.294  14.524  14.004  0.0606  0.1358 -0.1588
19939W        W33353   1.711   6.343   4.923 -0.1832 -0.1156  0.1599
19940W        W33354   7.057  17.155  10.904 -0.0166  0.2986  0.2215
19941W        W33355   1.560   1.688   5.931 -0.3335 -0.4314  0.2511
19942W        W33356  12.341  10.168  13.717  0.2307  0.3754  0.0944
19943W        W33357   0.098   7.775   0.559 -0.1201  0.0812 -0.0568
19944W        W33358  12.328   1.895  12.593  0.2760 -0.2584 -0.5107
19945W        W33359  11.175   5.715  13.128  0.4279  0.0843  0.3333
19946W        W33360   4.012   6.515   5.609  0.0542  0.2134 -0.0820
19947W        W33361  14.502   7.778   4.355  0.2251 -0.1602 -0.0582
19948W        W33362  10.296   7.269   0.429 -0.1375 -0.4186 -0.1755
19949W        W33363   7.284   7.060  16.506 -0.0580  0.1052 -0.1836
19950W        W33364  12.659  10.266   7.342 -0.2367 -0.2038 -0.0262
19951W        W33365  13.153   3.890  10.070 -0.1219 -0.0859 -0.3114
19952W        W33366   5.586  14.645  14.415  0.2162  0.0180 -0.1418
19953W        W33367   9.539   9.913   5.783  0.3917 -0.1732 -0.0493
19954W        W33368   8.367  13.291  15.307  0.1448  0.1709  0.0349
19955W        W33369   0.382  16.029   2.401  0.0648 -0.0009 -0.1983
19956W        W33370   4.292  15.208  12.581 -0.0724  0.0539 -0.3298
19957W        W33371  17.331  12.309   4.105 -0.3679 -0.0494 -0.1147
19958W        W33372  15.980  15.736  12.226 -0.0126 -0.0861 -0.1048
19959W        W33373   2.856  14.148   5.116 -0.1668  0.1230  0.1500
19960W        W33374   3.862   7.011   2.575  0.2681  0.0414  0.0533
19961W        W33375  12.071  13.842  12.922 -0.0409  0.0792  0.2018
19962W        W33376   0.038  14.340   5.479  0.0202  0.2564 -0.0320
19963W        W33377  12.329   3.097   3.205  0.0739  0.2623  0.0996
19964W        W33378   2.531  12.815  15.051  0.0717 -0.1242  0.0168
19965W        W33379  12.213   3.012  16.756  0.0225  0.2457  0.3431
19966W        W33380   9.627  15.557   5.990  0.0205  0.1069  0.0587
19967W        W33381  10.030   7.545  11.081  0.1751  0.0545  0.3147
19968W        W33382  11.296  12.700  16.152  0.1384 -0.2174 -0.2316
19969W        W33383  14.820   7.557  10.951  0.4865  0.2061 -0.0082
19970W        W33384  14.786  16.544  13.796 -0.0635 -0.2227 -0.1684
19971W        W33385   5.347  16.617   1.659  0.1489 -0.2503  0.0585
19972W        W33386  12.000   8.653  15.397  0.0849 -0.3173 -0.1660
19973W        W33387  15.872   3.611   4.109 -0.2519 -0.2800  0.0231
19974W        W33388   0.971   7.822  16.233 -0.0417  0.2004 -0.1777
19975W        W33389  14.538   7.270   1.739  0.0066 -0.0121  0.2650
19976W        W33390   9.385  16.892  14.397 -0.1601  0.1256  0.1448
19977W        W33391  11.167  13.979  12.257 -0.2030  0.4803  0.1187
19978W        W33392  17.018   4.677   3.269  0.2211 -0.0146  0.1849
19979W        W33393   9.315  12.061  12.194 -0.3615 -0.0652 -0.1232
19980W        W33394  15.280  10.328   0.084  0.1238 -0.3100  0.0561
19981W        W33395   0.084   3.150   3.893 -0.1998 -0.1588  0.0867
19982W        W33396  16.317   6.946   1.885 -0.0898 -0.2797 -0.0197
19983W        W33397   9.417  14.684   5.806 -0.1102 -0.1275  0.0095
19984W        W33398   4.943   0.142  11.608  0.0015  0.0587  0.1933
19985W        W33399  16.221   2.127   5.634  0.3663 -0.0409 -0.3403
19986W        W33400   7.628   7.755   3.953 -0.0724  0.2040  0.0063
19987W        W33401   8.031  16.250   0.696  0.0158 -0.1622 -0.1172
19988W        W33402   7.867  10.803   2.168 -0.0282 -0.0156 -0.1541
19989W        W33403   4.948  11.536  11.987 -0.2784 -0.0360  0.1977
19990W        W33404  14.649   3.035   3.479  0.1154  0.1371  0.2216
19991W        W33405  16.046  13.871  16.034  0.0570  0.1060  0.0713
19992W        W33406  17.478  13.121  14.515 -0.1916 -0.0947 -0.0507
19993W        W33407   2.227   0.491   1.316 -0.1788 -0.1571  0.2294
19994W        W33408   9.394  13.457  10.766 -0.3893 -0.3604 -0.2738
19995W        W33409   3.706  12.396  13.130 -0.0501 -0.0714 -0.0765
19996W        W33410   9.770  12.163  15.398  0.0242 -0.1083  0.0555
19997W        W33411   8.526  17.836  14.070  0.0169  0.1929  0.3013
19998W        W33412  11.997   5.805  12.906 -0.1564 -0.2482 -0.1856
19999W        W33413   6.915   1.624  15.339 -0.0192  0.0150  0.1249
20000W        W33414  16.448  14.738   1.355 -0.3809  0.0446 -0.1196
20001W        W33415  13.487   1.985  12.703 -0.1623  0.0070  0.5056
20002W        W33416   1.905  11.329  12.236  0.0184  0.2612 -0.0819
20003W        W33417  17.545  12.709   0.872 -0.0292  0.0770 -0.3675
20004W        W33418   2.458  10.086   1.959 -0.0979  0.1153  0.0716
20005W        W33419   2.495  12.848  16.433 -0.2622  0.0766 -0.2095
20006W        W33420   1.736  14.162   1.683 -0.1964 -0.0529  0.0146
20007W        W33421  11.435   4.818   5.318 -0.0161  0.1323 -0.1454
20008W        W33422  12.950  12.326  15.838 -0.1552 -0.2057  0.3678
20009W        W33423   2.907  10.487  14.134 -0.3325  0.1204  0.0474
20010W        W33424   1.113   4.798  11.209 -0.0435 -0.0827  0.2006
20011W        W33425  13.571  16.897  14.971  0.0103 -0.2280 -0.1005
20012W        W33426   1.044   4.998  10.031  0.0863 -0.0265 -0.3800
20013W        W33427   2.232  12.652  10.952 -0.0398  0.0135  0.2181
20014W        W33428  14.876  10.012   0.688 -0.0700  0.2070 -0.0942
20015W        W33429   9.483   7.207   2.162  0.0475  0.0285  0.0008
20016W        W33430   7.544   8.095  16.234  0.1247 -0.2001 -0.0427
20017W        W33431   6.627  14.211  15.273  0.3094  0.1669  0.1950
20018W        W33432   3.759  15.923  16.696  0.3812  0.0344  0.0430
20019W        W33433  17.603  13.048  12.828 -0.3895 -0.1659 -0.4114
20020W        W33434   2.656   1.853  11.463 -0.2168 -0.1583  0.0660
20021W        W33435  16.236   8.517   0.299 -0.1779  0.0124 -0.0535
20022W        W33436   4.252   6.502   1.983  0.3644  0.0511 -0.0285
20023W        W33437  17.259  15.703   2.296  0.1286  0.0270 -0.1343
20024W        W33438  15.368  11.376  12.071  0.0151 -0.2983 -0.1409
20025W        W33439   6.390   1.700   1.857 -0.2011  0.2053 -0.1378
20026W        W33440  11.334   4.491  11.175 -0.0599 -0.2964 -0.3768
20027W        W33441   4.201   8.156   0.777 -0.0696  0.0394 -0.0240
20028W        W33442   1.307   2.172   0.450  0.2562  0.0899  0.2618
20029W        W33443   0.804   7.033  15.827  0.2709  0.5261 -0.1677
20030W        W33444  10.397  12.645   5.865  0.1571 -0.3474 -0.1032
20031W        W33445   7.142  12.032   4.645  0.1223 -0.1710  0.3564
20032W        W33446  14.878   8.915  16.191 -0.2163 -0.1165 -0.0613
20033W        W33447  11.698  16.396   0.959  0.1244 -0.1902  0.0194
20034W        W33448   1.869   9.754   1.491  0.2724  0.1384  0.2349
20035W        W33449   2.438   7.962   0.378  0.2401 -0.1545  0.1854
20036W        W33450  11.451   6.461   0.491  0.3384 -0.0250  0.0542
20037W        W33451   7.460   9.970  16.004 -0.1273  0.0665 -0.0956
20038W        W33452   6.039  16.392  16.482 -0.1257 -0.0178 -0.1868
20039W        W33453   7.472   9.018   4.802 -0.0422  0.2175  0.1374
20040W        W33454   9.834   6.114   1.548  0.3131  0.4853  0.1817
20041W        W33455   6.881  11.609   4.224 -0.1849  0.2115 -0.1285
20042W        W33456   6.631   9.114   2.158  0.0776 -0.0743  0.2441
20043W        W33457  13.338   0.419  16.539 -0.2982  0.0790  0.1710
20044W        W33458   5.810  14.869   3.656 -0.0196 -0.3830  0.0167
20045W        W33459  14.765   0.199  13.844  0.0305  0.1187 -0.0070
20046W        W33460  10.842   5.680   5.859  0.4200 -0.0021 -0.0786
20047W        W33461  12.048   1.655  14.426 -0.3829 -0.0856  0.1271
20048W        W33462   1.282   0.210   3.292  0.0245  0.1315 -0.0808
20049W        W33463   1.534  12.888  16.615  0.2282  0.0760 -0.0022
20050W        W33464   6.130   2.060   0.579  0.0726  0.1680  0.0365
20051W        W33465   7.786  17.495   0.740 -0.2335  0.3612  0.2431
20052W        W33466   2.943   2.537   3.449  0.0422 -0.2932 -0.1653
20053W        W33467  17.801   0.192   4.145  0.2593  0.1662  0.0881
20054W        W33468   7.351   8.122   3.365  0.2505 -0.2507 -0.1791
20055W        W33469  13.767  15.736   1.357  0.1046 -0.0710 -0.0767
20056W        W33470  17.531  11.702  14.971 -0.2680 -0.1018 -0.1236
20057W        W33471  15.452   6.384   1.479  0.2144 -0.2353 -0.1718
20058W        W33472  12.025  11.815   3.729  0.0497 -0.2012  0.1343
20059W        W33473   3.768   8.148   0.473  0.1129  0.2457 -0.0619
20060W        W33474  13.667   8.862  14.264 -0.1182  0.1486  0.1193
20061W        W33475  17.099  15.598  14.414  0.2512  0.2522 -0.1718
20062W        W33476  13.500   1.844   2.343 -0.0564  0.1119 -0.1352
20063W        W33477  14.945   5.617  13.646 -0.3791  0.0561  0.0925
20064W        W33478   9.979  14.969  12.324 -0.0548  0.0330 -0.0136
20065W        W33479  16.120   6.040   6.386  0.3977  0.1442  0.0163
20066W        W33480   0.519   3.035  10.602 -0.1346  0.2582 -0.1808
20067W        W33481   7.454   6.973  15.497 -0.1322 -0.1429  0.1551
20068W        W33482   8.187   2.185   9.529  0.1034 -0.0209  0.0884
20069W        W33483  11.842   7.236   5.777 -0.2841  0.1645  0.1019
20070W        W33484   0.540  14.555  14.684 -0.2522  0.2416  0.0449
20071W        W33485   9.162  16.362  14.387 -0.0860 -0.3280 -0.3240
20072W        W33486   8.806   8.112   4.516  0.0305 -0.0117 -0.0359
20073W        W33487   8.597  15.367  13.524  0.1436  0.1709 -0.0187
20074W        W33488  11.898   0.796  11.414 -0.2368 -0.0538 -0.2986
20075W        W33489   7.091   7.985  12.472  0.0805  0.0519 -0.0006
20076W        W33490  15.384  17.734   1.102  0.1645  0.0306 -0.0323
20077W        W33491  16.300  11.186  11.654  0.0027  0.1686  0.2224
20078W        W33492   5.509  11.376  14.581 -0.0542 -0.2476  0.0206
20079W        W33493   9.099   5.345   0.397 -0.0007 -0.1343 -0.1821
20080W        W33494  12.099   9.756   0.486  0.2612 -0.3940 -0.2135
20081W        W33495  16.124   7.439   3.971 -0.1024 -0.1107 -0.2438
20082W        W33496  11.447  11.262   4.555 -0.1432 -0.0077  0.1017
20083W        W33497   1.227   8.915   1.224 -0.1733  0.1339  0.2200
20084W        W33498   7.398  13.479  12.945  0.0704 -0.0474  0.1115
20085W        W33499  11.423   7.380   2.742  0.1202 -0.4085 -0.1214
20086W        W33500   0.992   7.561  11.779  0.0176 -0.1719 -0.2796
20087W        W33501   5.781  15.168  15.943  0.1248  0.0431 -0.1097
20088W        W33502   6.112   0.178  10.701 -0.1023  0.1766  0.0635
20089W        W33503   7.806   3.665   1.075  0.0584  0.1207 -0.1988
20090W        W33504  10.170  13.067   3.374  0.1120  0.0311 -0.1729
20091W        W33505   7.615   2.311  14.987 -0.0735  0.3065  0.0670
20092W        W33506   0.036  17.479  15.144 -0.0924 -0.3284 -0.3464
20093W        W33507   9.338  12.643   2.113 -0.1846 -0.2551 -0.1372
20094W        W33508   2.701  15.928  15.357  0.1264 -0.0495 -0.4774
20095W        W33509  10.152  11.136   6.264  0.1331 -0.1186  0.0677
20096W        W33510  15.967  13.581  12.466  0.1736 -0.1395 -0.1071
20097W        W33511   8.022   0.058  12.295 -0.2166  0.1672 -0.4957
20098W        W33512  13.586   6.277   5.697  0.1163  0.1271  0.2575
20099W        W33513  16.803  16.467  16.147  0.1323  0.0473  0.2482
20100W        W33514  12.942  12.029  16.489 -0.3148  0.0636  0.0611
20101W        W33515   6.220   6.998   1.219  0.0062 -0.0508  0.1367
20102W        W33516   6.741  11.918  14.819 -0.1778 -0.1612  0.2171
20103W        W33517  14.224   7.597  11.096  0.2182  0.2595 -0.0428
20104W        W33518  14.999   0.169   5.317  0.0593 -0.0067 -0.0667
20105W        W33519   7.313  14.649   1.193 -0.2128  0.1319 -0.1241
20106W        W33520  16.262  13.958  13.399 -0.2926 -0.1294  0.2397
20107W        W33521  14.194   9.655   1.439  0.2050  0.2092 -0.0149
20108W        W33522   0.366  17.964  12.139 -0.0227  0.2570 -0.0652
20109W        W33523  11.178  11.146  10.943 -0.2026 -0.1635  0.1227
20110W        W33524  13.964  10.497  11.687 -0.0305  0.0371  0.0037
20111W        W33525  16.082  16.001   2.092  0.0416  0.0947 -0.2542
20112W        W33526  17.712  16.979   2.908 -0.1574 -0.0068  0.0760
20113W        W33527  16.527  10.330  13.799  0.0684  0.1792 -0.4212
20114W        W33528   5.789   4.116  13.608 -0.0143  0.0769 -0.0711
20115W        W33529   1.010   6.239  10.587  0.1027 -0.3829 -0.3389
20116W        W33530   7.728  16.639   0.825  0.1914 -0.0759 -0.1786
20117W        W33531  10.864   2.843  13.712  0.0189 -0.1841 -0.4035
20118W        W33532   2.713   8.275   0.058  0.0581  0.2138 -0.1775
20119W        W33533   0.955   8.124  11.148 -0.0013  0.1109  0.0064
20120W        W33534   2.973   8.336  13.365  0.1413 -0.2429  0.1714
20121W        W33535  14.607  16.536  12.763  0.0291 -0.0239  0.0126
20122W        W33536   5.693   3.246  10.748  0.0625 -0.0852  0.0670
20123W        W33537   2.666   6.612   1.997 -0.0894  0.3693  0.2722
20124W        W33538   4.927  16.887  15.742  0.1370  0.2103 -0.2152
20125W        W33539   0.077   3.753  12.316 -0.1148  0.2283 -0.3529
20126W        W33540   2.515  17.695   5.307  0.2784  0.0514  0.0797
20127W        W33541   0.728  17.653  16.484  0.1306 -0.3656 -0.1963
20128W        W33542   7.775  15.118  13.458 -0.1657  0.0474  0.2553
20129W        W33543   5.683  10.942   4.182  0.0703 -0.0198 -0.3404
20130W        W33544  11.483   9.618  11.887 -0.0788 -0.0037 -0.1580
20131W        W33545   3.773   9.397   5.312 -0.2628  0.2668 -0.2344
20132W        W33546   1.833   2.737   1.112 -0.1751 -0.0648 -0.1159
20133W        W33547  14.575   0.319  11.496 -0.1228 -0.1524  0.0179
20134W        W33548   3.000   3.104  11.984  0.0101  0.1349  0.1768
20135W        W33549  12.869  16.254   1.460 -0.1448  0.0411  0.2640
20136W        W33550   8.468   3.847   3.196 -0.1673  0.0229 -0.0968
20137W        W33551   5.672   8.739   2.945 -0.1463  0.0216 -0.1129
20138W        W33552  10.781   4.341  11.565  0.3606  0.1120 -0.1419
20139W        W33553   0.665   2.380  13.909  0.1111  0.2106 -0.0780
20140W        W33554  10.867   9.770   4.482 -0.0504 -0.2836 -0.3474
20141W        W33555  16.671   8.912  11.187 -0.0283 -0.0458  0.2575
20142W        W33556  15.666   8.754   4.120  0.2980  0.0777 -0.0765
20143W        W33557  13.117  16.649  11.960 -0.0775  0.1022  0.2679
20144W        W33558   3.963   9.061   6.101  0.1530 -0.2622 -0.0656
20145W        W33559   3.153  13.369   0.039  0.0480  0.0890  0.1063
20146W        W33560  13.458   4.695  13.908  0.2889 -0.1023  0.1022
20147W        W33561   9.692  17.260   6.114 -0.0176  0.2247 -0.1614
20148W        W33562   5.279   2.682   5.046 -0.0147  0.3512  0.2356
20149W        W33563  15.175  14.534  15.592  0.0045  0.2184 -0.0385
20150W        W33564   1.952  17.224   0.812  0.0395 -0.1349 -0.0014
20151W        W33565   3.128   7.256   2.597 -0.1821  0.0199  0.0003
20152W        W33566  12.563   0.974   3.291 -0.2030 -0.1512 -0.0297
20153W        W33567   5.434  10.934  12.207  0.1984 -0.0033  0.1808
20154W        W33568  14.042  15.199   4.387  0.0865 -0.1980 -0.0006
20155W        W33569  13.469  13.933   6.234 -0.1895  0.2257 -0.0861
20156W        W33570   7.313  15.554  14.255  0.0875 -0.1537 -0.1507
20157W        W33571  16.515   9.487   5.936 -0.0754 -0.4039  0.1319
20158W        W33572   2.856   7.753   5.455 -0.3198  0.3666 -0.1076
20159W        W33573  12.949   3.088   1.140  0.0739 -0.0883  0.0098
20160W        W33574  15.301  16.560   3.978 -0.0442 -0.1229  0.0260
20161W        W33575  14.251   4.613  13.081 -0.1529 -0.0966  0.1182
20162W        W33576   8.373   2.684  16.678 -0.3208  0.1705  0.1574
20163W        W33577  10.279  12.257  15.340  0.2172  0.1274 -0.0122
20164W        W33578   1.362   4.219  12.515 -0.1603 -0.1881 -0.1244
20165W        W33579  13.592  14.874  12.998 -0.0524  0.3041 -0.1453
20166W        W33580  11.449   2.153   3.137 -0.0127  0.0293  0.0767
20167W        W33581  15.908  10.768  15.552  0.0355 -0.2535  0.3493
20168W        W33582  17.123   2.230   4.143 -0.1747  0.3085  0.1035
20169W        W33583   3.301   3.468   2.051 -0.2049  0.1463 -0.3108
20170W        W33584   5.416   6.518  14.113  0.0954 -0.1076 -0.1635
20171W        W33585   1.113  14.183  12.077 -0.0605 -0.0541  0.0849
20172W        W33586   2.241  16.179  15.402  0.0366  0.0710  0.4014
20173W        W33587   2.511  11.183  13.669 -0.1020  0.4186 -0.1031
20174W        W33588   2.325  16.436   2.866  0.0366 -0.2611  0.1889
20175W        W33589  17.422   6.016   0.607 -0.0297 -0.0860 -0.2151
20176W        W33590  16.675  13.873  15.726  0.1445  0.0399  0.0681
20177W        W33591  12.487  14.033  13.241 -0.1279 -0.1208  0.0195
20178W        W33592   6.190  15.867   6.220 -0.2704  0.0556 -0.0287
20179W        W33593  15.561   0.029  11.527  0.2572  0.0957 -0.1083
20180W        W33594   9.030   6.435   2.256  0.2228 -0.1999  0.2012
20181W        W33595  15.315  12.504   4.506 -0.0965 -0.0221  0.0580
20182W        W33596   8.054   8.631   2.700 -0.1306  0.2408  0.3111
20183W        W33597  13.205  11.659   3.172  0.2516  0.1907 -0.0589
20184W        W33598  12.788   2.796  10.700 -0.1521  0.4148 -0.1149
20185W        W33599   4.434  16.110  13.098  0.0420 -0.2059  0.2481
20186W        W33600   5.972   5.119   2.971 -0.0130 -0.0839 -0.1683
20187W        W33601   5.250  11.843  12.380 -0.0291 -0.0444 -0.0698
20188W        W33602   5.454  11.727  13.030  0.0691  0.3759 -0.0980
20189W        W33603   5.429   2.545  13.557 -0.3498 -0.1682 -0.0364
20190W        W33604  14.329   5.715  11.858  0.0086  0.0346  0.1468
20191W        W33605  13.892   8.548  12.078  0.2610 -0.2459  0.1636
20192W        W33606  10.488  12.816  12.210  0.3234  0.0359 -0.1693
20193W        W33607   7.915   6.147   3.805 -0.3863 -0.0977  0.5350
20194W        W33608  11.285  16.289   5.491 -0.0804 -0.1475 -0.0049
20195W        W33609  11.939  15.398   2.318 -0.2511 -0.3595 -0.1739
20196W        W33610  12.675   9.483   3.887  0.4103  0.3129  0.1149
20197W        W33611   8.335  17.762   2.992  0.0675  0.1553 -0.3226
20198W        W33612   4.136  13.781  15.230  0.2203  0.3462 -0.0784
20199W        W33613   4.033   5.778   0.402  0.1321  0.0182 -0.0646
20200W        W33614   6.722  11.172   0.518 -0.0223 -0.1903 -0.0024
20201W        W33615  16.605   0.852  10.543 -0.0969 -0.0456  0.5430
20202W        W33616  17.177  13.484   2.634  0.2873  0.2189  0.1066
20203W        W33617  11.297  16.722  12.028  0.3224 -0.2490  0.0138
20204W        W33618  17.103   8.832  15.411  0.2362  0.0738 -0.1917
20205W        W33619   9.637   3.193  16.622 -0.2957 -0.2999 -0.1784
20206W        W33620  11.515   2.560  14.025 -0.0044  0.1157 -0.2528
20207W        W33621  15.290   1.856  15.407 -0.0853  0.3669  0.0862
20208W        W33622  12.770  16.941  16.676 -0.0195  0.1663  0.0576
20209W        W33623  13.981   2.815  12.186  0.0691  0.1090  0.0220
20210W        W33624   0.177   6.927  13.490  0.3498  0.0914 -0.1100
20211W        W33625  10.696  13.253   1.344 -0.1238  0.1701  0.0655
20212W        W33626  12.888  13.602   0.045  0.1503 -0.0818  0.0370
20213W        W33627   5.552  17.566  12.569  0.1548 -0.1401 -0.0589
20214W        W33628   9.803   9.166   4.732 -0.0478 -0.0771  0.1362
20215W        W33629  12.423   2.901   3.739 -0.2319  0.3135  0.2595
20216W        W33630   3.862  15.606   5.022 -0.1735  0.0212  0.0584
20217W        W33631  15.985  17.133  14.847  0.0457 -0.2143  0.2700
20218W        W33632   1.045   6.482  12.463 -0.2164 -0.2556  0.5667
20219W        W33633  14.115  17.859  14.375  0.1545 -0.0381  0.0504
20220W        W33634  17.549   1.838   9.841 -0.0023  0.0044  0.1890
20221W        W33635   5.856   8.085  15.444  0.3399  0.1094 -0.1676
20222W        W33636  15.644   9.193   4.632 -0.0648 -0.1130 -0.0824
20223W        W33637  13.953   7.563   2.967 -0.1215 -0.1424 -0.2014
20224W        W33638  14.476  12.450   1.450  0.1326 -0.1699  0.2052
20225W        W33639   6.818  16.287   0.872 -0.0258 -0.0028  0.1285
20226W        W33640   1.604   3.505  16.119 -0.1009  0.1573  0.1773
20227W        W33641  16.098  13.037  15.637  0.0410  0.2699 -0.1174
20228W        W33642   8.902   2.232  16.389 -0.1325 -0.1229 -0.1964
20229W        W33643   3.482   2.764  13.269 -0.0991  0.0831 -0.1398
20230W        W33644   4.453  12.777  13.084 -0.1018 -0.0080 -0.1483
20231W        W33645   8.012  13.070  12.141 -0.0647 -0.0829 -0.1006
20232W        W33646   1.187   9.348   0.914  0.0170 -0.2400  0.2560
20233W        W33647  11.052   8.721   6.375  0.0040 -0.1070  0.2405
20234W        W33648   6.497  13.513   1.718 -0.0066  0.1190 -0.3509
20235W        W33649   8.004   6.241   4.644  0.3649  0.0917  0.1156
20236W        W33650   0.179  11.889   3.718 -0.0379  0.1266  0.2353
20237W        W33651   5.199  15.484   2.416  0.2853  0.0609 -0.0973
20238W        W33652  15.250   2.883   2.265  0.0689 -0.1707  0.0828
20239W        W33653   2.299   2.526  13.696  0.0410  0.0722 -0.1667
20240W        W33654   6.190   4.064  13.307 -0.0654  0.0655  0.1499
20241W        W33655  11.610   6.860  13.676  0.2238 -0.0473  0.1494
20242W        W33656   9.655  11.627   1.441 -0.1958  0.1432  0.0514
20243W        W33657   0.908  14.213   0.991  0.2622 -0.1408 -0.2372
20244W        W33658   3.847   2.682  15.811  0.1566 -0.2173  0.2245
20245W        W33659  17.753   0.490  15.440  0.0268  0.0734 -0.0096
20246W        W33660  10.540  15.821   4.435  0.1547 -0.0061 -0.0241
20247W        W33661  17.656  13.817  12.318 -0.0429 -0.0684 -0.0041
20248W        W33662   5.206   3.664   3.287 -0.0314 -0.1090  0.0702
20249W        W33663   8.041   2.622  11.905 -0.0574  0.0713 -0.0053
20250W        W33664  10.439   8.428   1.961  0.3644 -0.3528 -0.0276
20251W        W33665   0.071  17.067  13.789 -0.1994 -0.2666  0.0506
20252W        W33666   6.415   8.877  16.545  0.1602  0.0226 -0.0663
20253W        W33667  16.197  11.112   5.891 -0.3800  0.0760 -0.0695
20254W        W33668  13.596   9.760  15.461  0.1648  0.0371 -0.1721
20255W        W33669  11.606   0.754   2.898 -0.0400  0.3258 -0.0449
20256W        W33670  12.457   8.545   0.164 -0.1904 -0.0489 -0.1387
20257W        W33671  12.719  11.955  15.180 -0.1005 -0.3079  0.0978
20258W        W33672   0.069   0.583   2.479  0.1429 -0.2609 -0.1659
20259W        W33673   1.324   1.140  13.707  0.0433  0.2391  0.1154
20260W        W33674   3.207   4.038   2.840  0.1027 -0.0635  0.3112
20261W        W33675   7.501  16.834  14.639  0.0741 -0.0040  0.1364
20262W        W33676   7.963  12.030  16.735 -0.1179 -0.2220  0.0256
20263W        W33677  12.519  11.886  15.629  0.1114  0.1470 -0.0417
20264W        W33678  13.681  17.608  10.741  0.3826  0.0538  0.0337
20265W        W33679  12.379  15.401  15.707 -0.0340  0.0405  0.3816
20266W        W33680   6.141  12.879  11.627 -0.2264 -0.1693 -0.4329
20267W        W33681  15.456   6.443  14.780  0.0286 -0.1602 -0.0228
20268W        W33682   1.189   0.521   0.000  0.1554 -0.1187  0.0148
20269W        W33683   3.759  10.306  13.907  0.1319  0.0110 -0.4199
20270W        W33684   8.928   3.937   1.925  0.2554  0.0980 -0.1584
20271W        W33685  12.307  15.509  14.417  0.0872 -0.3435  0.1765
20272W        W33686   1.992  13.610  14.669 -0.2274  0.0623 -0.2126
20273W        W33687  11.756  16.365  11.594  0.0460 -0.1138 -0.3342
20274W        W33688   5.884   7.766   5.384  0.1271 -0.0587  0.2449
20275W        W33689  11.169  13.118   4.438  0.0086 -0.0953 -0.0177
20276W        W33690  17.381  16.838  10.175 -0.0154 -0.3242 -0.3234
20277W        W33691   1.478  10.615   4.310 -0.0069  0.0402  0.1280
20278W        W33692  12.632  17.360  15.414 -0.1047 -0.1294  0.0803
20279W        W33693  13.081  16.387  16.565  0.3225  0.1374 -0.2847
20280W        W33694  12.671  15.657   4.376 -0.0959 -0.1900 -0.5106
20281W        W33695   4.244  17.263   4.686  0.0695  0.1098  0.2372
20282W        W33696  16.848  12.084   2.351 -0.3686  0.0192 -0.2901
20283W        W33697  14.774   3.020   0.433 -0.3287  0.2096 -0.1767
20284W        W33698   4.260   9.179  10.954  0.1199  0.2568  0.0662
20285W        W33699   5.009   8.687  15.025  0.0787  0.3041 -0.0850
20286W        W33700   4.646  11.235  13.804 -0.1564 -0.2930 -0.0648
20287W        W33701   4.323  10.741   0.948 -0.0555 -0.2799  0.0144
20288W        W33702   5.017  13.711   0.518 -0.4093  0.3201  0.0106
20289W        W33703   5.182   8.847   1.201 -0.1656  0.0798 -0.0327
20290W        W33704   0.199   8.679  12.006  0.2496 -0.1560  0.0535
20291W        W33705   4.671   9.968  13.833 -0.0631 -0.0022  0.0040
20292W        W33706   2.690  17.279   1.245 -0.3082 -0.4002  0.1098
20293W        W33707   1.803  11.242  14.808  0.0153 -0.0090 -0.0724
20294W        W33708  17.299  11.664  13.753 -0.0689 -0.0120  0.2428
20295W        W33709  16.148   1.990   3.822  0.6487 -0.0686  0.0211
20296W        W33710  14.542   0.814   0.408 -0.1307 -0.0071  0.0467
20297W        W33711   3.646   5.092  16.091  0.1838 -0.0492  0.2559
20298W        W33712   7.141  14.528   4.200 -0.0735  0.1520 -0.0334
20299W        W33713  10.670   6.981   2.769 -0.1372 -0.0929 -0.1608
20300W        W33714  14.012  14.052  12.402 -0.1998  0.3127  0.0535
20301W        W33715   9.749   8.949  13.849 -0.3266 -0.0414 -0.1379
20302W        W33716  12.714   2.068   3.449  0.0958 -0.0662  0.2153
20303W        W33717  10.402  13.451   2.030  0.0736 -0.1984 -0.1879
20304W        W33718   6.119   3.452  10.695  0.0299 -0.1127  0.1908
20305W        W33719  14.731  15.483  15.689  0.3953 -0.0047  0.0046
20306W        W33720   0.410   3.648  14.048  0.2788 -0.0267 -0.0581
20307W        W33721   3.822   0.635   4.797  0.1291  0.1027 -0.1831
20308W        W33722   2.762   4.757   0.763  0.1237  0.2785 -0.1115
20309W        W33723  12.003  12.821   4.740  0.0543 -0.2536  0.0559
20310W        W33724  11.244   2.240  11.259  0.0482 -0.1760 -0.4165
20311W        W33725   9.318  16.533   2.530 -0.2097 -0.4452 -0.3276
20312W        W33726  13.397  15.460   1.204 -0.2545  0.0397  0.0310
20313W        W33727   3.591  15.727  16.179 -0.0162 -0.1388 -0.0239
20314W        W33728   4.410   9.508  13.155  0.0019  0.0892  0.0847
20315W        W33729   6.863  10.989  12.052  0.0453  0.1704  0.0362
20316W        W33730  16.219  16.974   2.818 -0.0036 -0.0380  0.1110
20317W        W33731  14.643   8.870   6.425 -0.1990  0.1488  0.0158
20318W        W33732  15.012  16.239  15.270  0.1554 -0.0376 -0.3817
20319W        W33733  16.447  17.678  15.359 -0.1042 -0.2476 -0.1544
20320W        W33734  12.945   3.278   4.273 -0.0027 -0.0569  0.0032
20321W        W33735   0.531   0.344  14.349 -0.0952 -0.0837  0.2736
20322W        W33736   7.398   1.436  15.199 -0.3374 -0.2366  0.1618
20323W        W33737   5.492  10.780   3.332  0.0344  0.3127 -0.1870
20324W        W33738   4.530   3.127  14.460 -0.2137  0.0462 -0.2945
20325W        W33739  13.290   5.271  16.159  0.2092 -0.0022 -0.0569
20326W        W33740  11.507  16.440  16.485 -0.1751  0.1205  0.0016
20327W        W33741  14.048  14.709   3.534 -0.1831  0.0457  0.1946
20328W        W33742   7.013  11.457  13.250  0.1175  0.0775 -0.1586
20329W        W33743   9.988  17.579   2.617  0.0688  0.1069  0.2236
20330W        W33744  17.515  14.954  15.345 -0.0800 -0.1560  0.0050
20331W        W33745  14.589   3.140  12.414  0.1806 -0.0852 -0.0936
20332W        W33746   1.786   5.667  13.974 -0.2976  0.0416  0.0486
20333W        W33747  13.961   1.175  15.019 -0.1681  0.2080  0.4327
20334W        W33748  14.002   3.134   2.409  0.2188  0.0584 -0.2829
20335W        W33749   1.013   3.011   1.442 -0.0774  0.1240  0.0680
20336W        W33750   8.136   9.838  16.097  0.1166  0.0324 -0.2873
20337W        W33751   5.696   7.068  12.499  0.0400 -0.0645  0.0733
20338W        W33752   2.269   2.913  16.117 -0.3000 -0.4147  0.0790
20339W        W33753  13.073  15.442  13.916  0.1026  0.2555 -0.0530
20340W        W33754   4.297   6.026  15.881 -0.0729 -0.4982 -0.0468
20341W        W33755  11.975  15.145   1.912  0.2297 -0.1830  0.0490
20342W        W33756   5.756  17.928   3.127 -0.1971 -0.0412 -0.2839
20343W        W33757   3.001   2.784  16.038  0.3277 -0.1065 -0.0275
20344W        W33758  13.835   0.183   3.350  0.2867  0.1151 -0.1478
20345W        W33759  16.947  10.227   2.232 -0.3194  0.0033 -0.4362
20346W        W33760  10.840  13.062   0.808 -0.0655  0.0193  0.1696
20347W        W33761  11.007  11.431   4.704  0.0826 -0.0753 -0.0175
20348W        W33762  13.800   9.578   0.099  0.2502  0.2689 -0.1290
20349W        W33763  13.547   2.058  11.539 -0.1617  0.0496 -0.1326
20350W        W33764   9.291  16.901   2.868 -0.3484  0.1780  0.0307
20351W        W33765   0.483   9.503   1.071 -0.0305 -0.3123  0.1992
20352W        W33766   8.132   6.029   5.525  0.1592 -0.4000 -0.0338
20353W        W33767   8.844   7.009  12.222 -0.1049  0.3743  0.2308
20354W        W33768  17.706   6.340   2.806 -0.1477  0.1606  0.0172
20355W        W33769   7.320   6.785  14.717 -0.2055 -0.0302  0.1129
20356W        W33770   0.674   1.589   4.435 -0.2838  0.0106 -0.1146
20357W        W33771  11.424  10.401   0.588  0.1949  0.2475 -0.1620
20358W        W33772   4.271   0.770  12.279  0.4911  0.0767 -0.0770
20359W        W33773  14.888   7.978   3.573  0.1958 -0.1320  0.0997
20360W        W33774   0.504   7.909   0.208 -0.2899 -0.0456 -0.0770
20361W        W33775  17.598  12.606   3.839  0.4254 -0.0322 -0.2502
20362W        W33776  10.114   4.307  10.922 -0.0792  0.0056  0.1000
20363W        W33777  10.484  14.806  15.744 -0.1106  0.2430 -0.1548
20364W        W33778  12.852  17.577   2.776  0.0214  0.0631  0.1266
20365W        W33779  13.998  16.952  14.647  0.0589  0.1251 -0.0873
20366W        W33780  13.207  11.916   4.137  0.0084 -0.2259 -0.0979
20367W        W33781   3.328   9.007   1.762 -0.0638  0.2688 -0.1479
20368W        W33782  17.657  11.470  14.035 -0.1318  0.2856 -0.0799
20369W        W33783   7.365  14.046   5.136 -0.0430 -0.0150  0.1881
20370W        W33784  13.633   1.824   1.818 -0.1654  0.1668 -0.0617
20371W        W33785  10.451  14.316  13.442  0.0696 -0.2116  0.1421
20372W        W33786  15.798   2.305   5.179  0.1412  0.0937  0.0614
20373W        W33787  13.926   0.258   5.116 -0.2801 -0.0933  0.1331
20374W        W33788  13.807   1.354  14.547 -0.0548  0.2569  0.1890
20375W        W33789   0.693   7.585   5.454  0.3373  0.1429 -0.1213
20376W        W33790   6.227  15.207  13.225 -0.1535 -0.1757 -0.3037
20377W        W33791  16.984   6.581  11.267 -0.0104 -0.1085  0.2249
20378W        W33792  17.383   7.367   3.730 -0.1112  0.2097 -0.0727
20379W        W33793   6.659  13.555  13.956 -0.0116 -0.0385 -0.3574
20380W        W33794   9.694   5.075   3.990 -0.1042 -0.0512  0.0422
20381W        W33795   7.555  17.855  15.632  0.0116 -0.0659 -0.2729
20382W        W33796   5.952   9.955   5.460  0.0042  0.2943 -0.2042
20383W        W33797   4.789   5.290   3.878  0.3014 -0.0390  0.0386
20384W        W33798  17.018   1.277  12.818  0.1447  0.5098 -0.0969
20385W        W33799  14.433   7.120  14.970 -0.3191 -0.1308 -0.1369
20386W        W33800   3.860   5.199  11.022  0.0268 -0.1260 -0.0391
20387W        W33801   6.387  10.295  16.623 -0.0192  0.1127 -0.0231
20388W        W33802   2.961   2.438  15.587 -0.1740  0.3331 -0.0911
20389W        W33803  17.222   8.257   6.543 -0.0757  0.1303 -0.1586
20390W        W33804  13.282  13.676   4.911  0.2016  0.1762  0.0373
20391W        W33805   5.793   5.469   3.247  0.1680  0.1086 -0.0364
20392W        W33806   7.219  10.652  13.392 -0.1919 -0.0057 -0.3023
20393W        W33807   9.598  16.861   5.223 -0.3350 -0.1452 -0.1238
20394W        W33808  16.412   1.978   5.102 -0.1036  0.1301 -0.3771
20395W        W33809   4.467   4.499  11.197 -0.0579 -0.0740 -0.0482
20396W        W33810  15.724  11.639   2.410  0.1983 -0.2003 -0.1939
20397W        W33811   0.845   7.151   3.107 -0.1312  0.2777  0.1238
20398W        W33812   6.546   3.644  15.659  0.0638  0.1269 -0.0079
20399W        W33813   0.371  12.827  14.990 -0.0224  0.2378  0.0888
20400W        W33814  14.945   4.818   2.019  0.0544  0.0374 -0.0768
20401W        W33815  17.269   1.730  11.531 -0.0542 -0.0060 -0.2117
20402W        W33816   8.100  17.014  11.107  0.0853  0.1191 -0.1030
20403W        W33817  11.816   2.998  16.462  0.1367  0.3809  0.0623
20404W        W33818  14.117   4.260   3.288 -0.2676 -0.0020 -0.0159
20405W        W33819   5.673  14.122  11.984  0.0168 -0.1485  0.0495
20406W        W33820   0.487   5.727   0.748 -0.0365  0.0605  0.1683
20407W        W33821   9.649   1.324  11.416  0.0843 -0.0209  0.2462
20408W        W33822  16.548   4.688   2.892 -0.0998  0.1626  0.0509
20409W        W33823   3.114  12.715   4.066  0.0166  0.0143 -0.0251
20410W        W33824  15.377   7.485  13.259 -0.0228  0.2370 -0.1255
20411W        W33825   5.558   3.181   9.677  0.1010 -0.1213  0.2329
20412W        W33826   7.080   5.217   4.824  0.0026  0.1860 -0.0711
20413W        W33827   7.359   9.533  14.180  0.0079  0.0669  0.1357
20414W        W33828   3.308   0.464   0.492  0.0530  0.2204 -0.2031
20415W        W33829   3.447  13.619  10.883  0.0927 -0.0688  0.0124
20416W        W33830   4.407  16.697   1.133  0.0998  0.2412  0.0750
20417W        W33831   1.729  13.322  13.405  0.0084 -0.1583  0.1449
20418W        W33832   1.571  10.952   1.488  0.1943  0.0231  0.2082
20419W        W33833  13.139   3.252  13.755  0.1341 -0.0906  0.2787
20420W        W33834  12.424   4.280   1.376  0.0888 -0.1900  0.1180
20421W        W33835   5.893  11.076  16.557  0.0338  0.2313 -0.1253
20422W        W33836   4.227   2.282   0.270  0.0474  0.1291 -0.1361
20423W        W33837   5.555   7.256   3.153  0.1512 -0.1287  0.0657
20424W        W33838   3.000   7.771  11.599 -0.3508  0.2976 -0.0361
20425W        W33839   4.186   3.577   4.831 -0.3287  0.1071 -0.1070
20426W        W33840   3.559   3.731   0.835 -0.2707  0.0542 -0.0040
20427W        W33841   9.150  13.545   1.950 -0.1600 -0.0600  0.0499
20428W        W33842  11.508   5.134  16.694  0.1608  0.0404  0.0069
20429W        W33843  15.001   8.185  13.558 -0.3078  0.2172 -0.2616
20430W        W33844   8.632   1.613   3.815  0.1881 -0.0152 -0.2585
20431W        W33845  13.901  14.768   6.165 -0.2460 -0.2307  0.2038
20432W        W33846   0.709  15.357  11.361  0.3365 -0.2159  0.0570
20433W        W33847   2.673  17.452  12.259  0.1165 -0.0672 -0.0857
20434W        W33848   6.892   2.827   1.893 -0.3250  0.1531 -0.0809
20435W        W33849   2.940  13.023  14.241  0.1009 -0.1928  0.0139
20436W        W33850  17.361   5.104  15.517 -0.2067  0.1886 -0.0722
20437W        W33851  15.542  14.439  13.429  0.0496  0.0182  0.1481
20438W        W33852  13.755  16.886  15.480  0.0014 -0.0105 -0.0859
20439W        W33853   6.748  10.073   0.682 -0.1480 -0.0500 -0.0845
20440W        W33854   9.497  14.936  12.423 -0.1565 -0.0393  0.2746
20441W        W33855   9.975   4.743   5.377  0.0995 -0.3234 -0.2068
20442W        W33856   8.209   5.699  15.137 -0.2086  0.2355  0.0067
20443W        W33857   4.572  13.144  16.433 -0.0121  0.2287 -0.1724
20444W        W33858  15.098   3.959  16.347 -0.0084  0.2093  0.2311
20445W        W33859  10.547  10.261   3.521  0.5092  0.1424 -0.1161
20446W        W33860  11.660  12.275   0.310 -0.1632 -0.0987  0.0078
20447W        W33861  16.432  16.394   2.213 -0.2455 -0.1795 -0.1712
20448W        W33862  17.067   0.316  12.889  0.2194 -0.2475 -0.2967
20449W        W33863  15.886   4.394   5.107  0.2263 -0.1427 -0.0417
20450W        W33864  11.750  13.044  13.011  0.1860  0.2728 -0.2973
20451W        W33865  14.815  16.807   0.156 -0.3534  0.1098  0.1619
20452W        W33866  14.364   0.179  11.072  0.0537 -0.0033 -0.0797
20453W        W33867  14.585  14.852  13.837 -0.0042 -0.1390  0.1466
20454W        W33868  17.510  15.857  11.114  0.2459 -0.2404 -0.2661
20455W        W33869  12.813  11.543  15.908  0.0541 -0.1082 -0.2612
20456W        W33870  11.285  10.077   3.845  0.0254  0.1365  0.2613
20457W        W33871   5.029  11.246  15.401  0.0728 -0.3129  0.0743
20458W        W33872  13.769   5.248   4.054 -0.3794 -0.3626  0.0878
20459W        W33873  11.220   0.533   4.195 -0.1983 -0.0867 -0.0553
20460W        W33874   5.699  15.065  13.786 -0.0862  0.0631  0.0250
20461W        W33875   2.213   9.142  12.500 -0.2471 -0.1791  0.0473
20462W        W33876   7.845   7.865   0.581  0.1405 -0.2885  0.3332
20463W        W33877  16.000  11.450  13.277 -0.2649 -0.1026 -0.1004
20464W        W33878   4.191  11.098   1.614 -0.1668  0.1642 -0.1041
20465W        W33879   9.715   5.494   1.348  0.1953 -0.1791 -0.2600
20466W        W33880   5.772   0.300   3.462 -0.0236 -0.1083  0.0077
20467W        W33881   7.081  11.127   4.414  0.2024  0.1296 -0.2533
20468W        W33882  11.737  12.196  12.369 -0.0098 -0.0532  0.2261
20469W        W33883   3.588   1.361  11.431  0.0876  0.0836 -0.1367
20470W        W33884  12.925  14.935   4.296 -0.0308  0.0642 -0.2180
20471W        W33885  17.857   4.476  15.714 -0.0192  0.2472  0.0288
20472W        W33886   8.581   6.704  13.377 -0.0393  0.3209  0.3367
20473W        W33887   2.999   1.089  15.252  0.5020  0.0273  0.0166
20474W        W33888   4.879  14.599   4.965 -0.0480 -0.1375  0.2357
20475W        W33889   9.718   1.177   3.264 -0.2428 -0.0445 -0.1306
20476W        W33890  12.333  13.089  12.254  0.2320 -0.2102 -0.1418
20477W        W33891  12.158   5.814   2.290 -0.0517  0.1057 -0.1161
20478W        W33892  10.277  12.268   0.464  0.3335  0.0107  0.1181
20479W        W33893  12.900  16.232   0.921  0.1055 -0.3236  0.1519
20480W        W33894  10.212   2.803  10.721  0.2984  0.3708 -0.1758
20481W        W33895  14.875   1.266  15.871  0.0778  0.0650 -0.1601
20482W        W33896  12.816   6.596   0.934 -0.0749  0.1604  0.0173
20483W        W33897   9.088  10.197   4.676  0.1073  0.0283 -0.1449
20484W        W33898   3.511   5.257  15.666 -0.0855 -0.0367 -0.1479
20485W        W33899  14.373  16.103   5.602 -0.2197  0.4639 -0.1858
20486W        W33900  17.442   7.561  13.491  0.3388  0.1116 -0.0349
20487W        W33901  14.001   4.350  12.202  0.0391  0.0462  0.0073
20488W        W33902   7.794   2.626  14.590  0.1825 -0.0597  0.0780
20489W        W33903   1.668  14.222   2.574 -0.0123  0.3804 -0.0168
20490W        W33904  17.557  14.736   1.339 -0.1656  0.1534  0.2155
20491W        W33905  11.064   6.250   0.892 -0.2535  0.0976 -0.2615
20492W        W33906   9.001  12.200  11.167  0.1021 -0.0574 -0.0672
20493W        W33907  17.341   9.186  16.145 -0.2281 -0.3998  0.1892
20494W        W33908   6.970   4.565  15.986 -0.1454  0.3000 -0.2511
20495W        W33909   6.042  12.976   6.109  0.0689  0.0267 -0.0494
20496W        W33910  15.006  14.617  13.614 -0.0510  0.1116 -0.0440
20497W        W33911   9.434   6.549  15.174 -0.3607  0.2244 -0.1558
20498W        W33912   8.984   0.695  16.419 -0.0556 -0.0177 -0.1685
20499W        W33913   3.063  15.777  13.383  0.3127  0.1233  0.0813
20500W        W33914  14.141   9.920   0.208  0.0709 -0.2841 -0.0253
20501W        W33915  10.464  11.094  10.942 -0.1425  0.3715 -0.4233
20502W        W33916  16.935   0.289  11.842  0.2235 -0.2599  0.1339
20503W        W33917  15.630  12.485  16.186  0.0609 -0.1703  0.1172
20504W        W33918  14.403   0.531  12.070 -0.2211  0.2155  0.1578
20505W        W33919  11.921  14.524   3.094  0.0251 -0.0358 -0.2280
20506W        W33920  16.552   2.431  12.733  0.0913 -0.1307 -0.0780
20507W        W33921   8.461  15.756   6.167 -0.0320  0.0956  0.0561
20508W        W33922  13.730   7.858   0.486 -0.0106 -0.0272 -0.1695
20509W        W33923   0.498  15.563   2.349 -0.0299 -0.1991 -0.1171
20510W        W33924   6.417   7.109   5.192  0.2758  0.1506  0.0345
20511W        W33925  14.834  10.574   5.368  0.1646  0.2704 -0.0710
20512W        W33926  17.365   9.697   4.958 -0.0736 -0.0813  0.0162
20513W        W33927  15.528   0.715  15.936 -0.0125  0.1691  0.0472
20514W        W33928   1.473   8.759   2.372 -0.3257  0.0854  0.2091
20515W        W33929   1.091   5.265  15.706 -0.0500 -0.0113 -0.2677
20516W        W33930   9.619  15.780  15.403 -0.0149  0.0169  0.0900
20517W        W33931   3.187   8.120  14.653  0.0371 -0.2433 -0.0575
20518W        W33932   3.595   5.673   4.828  0.0658 -0.0310 -0.0209
20519W        W33933   4.145  13.078  15.061  0.1514  0.0432 -0.3876
20520W        W33934  13.914  11.115   1.566  0.0501 -0.3317 -0.1554
20521W        W33935  15.020   0.537  11.194 -0.1183  0.1213  0.1174
20522W        W33936   5.458   0.439   1.168  0.1829 -0.2438 -0.0763
20523W        W33937   3.955  16.643   1.410 -0.2162  0.0705  0.0047
20524W        W33938  10.013   8.224   4.596  0.3750  0.0014 -0.6695
20525W        W33939   4.772   7.727   4.787  0.0052 -0.1014  0.1532
20526W        W33940  16.174  11.563   3.776  0.2654  0.0688  0.0116
20527W        W33941   3.859   5.422   0.119  0.3705 -0.1055  0.2561
20528W        W33942   0.517   9.136  15.553  0.0920 -0.0013 -0.1805
20529W        W33943   1.623   8.266   0.080  0.0494 -0.0608 -0.0779
20530W        W33944   1.831  13.750  11.433  0.0693  0.0480 -0.2104
20531W        W33945   9.948  14.772   5.787  0.0476  0.4521  0.1629
20532W        W33946   7.815   9.821   3.196  0.3002 -0.0012  0.0042
20533W        W33947  17.115   5.612   3.331  0.1382  0.0691 -0.0038
20534W        W33948  17.739   5.815   0.219  0.2159  0.0230  0.0903
20535W        W33949   8.292   6.579   0.635 -0.0221 -0.2484 -0.4142
20536W        W33950  17.328   6.545   1.907 -0.0079 -0.0586  0.2232
20537W        W33951   1.191  13.928   3.783 -0.2723  0.1009 -0.2314
20538W        W33952   5.490   0.465  14.973 -0.2394 -0.1963  0.3875
20539W        W33953  12.094  17.389   5.632 -0.2083 -0.0474 -0.2048
20540W        W33954  11.613   0.136  14.343 -0.1430  0.0340 -0.3100
20541W        W33955   6.401   4.644   1.347 -0.0413  0.0243 -0.0884
20542W        W33956  10.426  10.101  12.748 -0.2366 -0.2387  0.2446
20543W        W33957  14.941   2.494  13.662  0.2130  0.0377 -0.3254
20544W        W33958  17.391  10.531   2.571  0.2042 -0.0864 -0.0023
20545W        W33959   2.122   2.487   0.798 -0.2162 -0.2806 -0.1000
20546W        W33960   4.840  17.836  15.448 -0.1003 -0.0114 -0.1478
20547W        W33961  17.420  12.409  10.259  0.1809  0.0978 -0.0586
20548W        W33962  16.992  12.906   1.036 -0.0710 -0.0659 -0.1630
20549W        W33963   7.199  12.167  16.322  0.0434 -0.2742  0.1616
20550W        W33964   7.860   5.712   3.436 -0.0943 -0.2207  0.0280
20551W        W33965   0.769   2.861   0.905 -0.1133  0.1839 -0.1915
20552W        W33966  10.791  14.856   6.159  0.0287  0.0100 -0.2744
20553W        W33967  10.817   6.176   2.848  0.3300  0.2953 -0.0433
20554W        W33968   5.866   6.213   2.304  0.4621 -0.0322  0.0395
20555W        W33969   2.239  17.344   4.483  0.2074  0.2072 -0.2991
20556W        W33970   5.370   6.588  13.216 -0.1349 -0.6427 -0.1788
20557W        W33971   4.134   3.329  13.537  0.1050  0.2373 -0.0817
20558W        W33972  14.508  14.142   1.697  0.0084  0.0931  0.4946
20559W        W33973   1.421  17.370   2.802 -0.4176 -0.1657 -0.4625
20560W        W33974  14.893  10.505  14.677 -0.1018 -0.0798  0.1986
20561W        W33975  17.975   3.282  14.162 -0.0349 -0.1615  0.3771
20562W        W33976   2.944   6.277   1.054  0.1569 -0.0820  0.1178
20563W        W33977   9.799   7.694  15.908  0.3125 -0.0895 -0.2365
20564W        W33978  15.429   0.547   5.292 -0.0846  0.1716 -0.2082
20565W        W33979  13.595  15.776   0.268  0.5159 -0.3383  0.0709
20566W        W33980  16.875   2.069  13.502 -0.0636 -0.1524  0.0618
20567W        W33981  11.567  11.295  14.486 -0.2932  0.3487  0.2146
20568W        W33982  16.610   4.113   1.895 -0.0090  0.0035 -0.2420
20569W        W33983  14.952   5.649  15.886  0.0023 -0.5096  0.0875
20570W        W33984  16.623   6.928  15.999 -0.1100  0.1801  0.1936
20571W        W33985  11.283  10.996   2.819  0.1527  0.1147 -0.1710
20572W        W33986  15.969   5.443   1.717 -0.1084 -0.0559  0.0283
20573W        W33987  17.409   6.324  11.429  0.0134 -0.0912 -0.0446
20574W        W33988   2.199  12.505  15.559  0.1065  0.0722 -0.1476
20575W        W33989  13.146   7.053   1.180 -0.2238  0.2104 -0.0916
20576W        W33990  17.134  12.992  14.191 -0.1562  0.2148  0.3168
20577W        W33991  13.697  13.539  11.385 -0.0117 -0.1416  0.1499
20578W        W33992   0.376   6.150   6.493 -0.4208 -0.0463  0.1340
20579W        W33993   4.491   1.985  11.137  0.2089 -0.1096 -0.0168
20580W        W33994  11.977   7.596   1.071  0.1058  0.2053 -0.0035
20581W        W33995   5.106   6.966   4.711 -0.0602 -0.1476 -0.0973
20582W        W33996   9.349   4.922   1.964  0.1072 -0.1027  0.0831
20583W        W33997   0.609   9.394   5.477 -0.0374 -0.0777 -0.2598
20584W        W33998   7.928  15.968  12.495  0.2739  0.0698  0.1262
20585W        W33999  15.620   9.558   3.285 -0.0114  0.2857 -0.2837
20586W        W34000   9.095   3.174  16.676  0.0502 -0.2603  0.1459
20587W        W34001   3.736  15.401  16.777  0.1157  0.1431  0.2127
20588W        W34002  11.889  14.305  12.760  0.1616  0.0961  0.0371
20589W        W34003  12.243   0.489  13.151  0.0426 -0.2613  0.0221
20590W        W34004  15.697   3.311   3.712 -0.0381  0.2420  0.0325
20591W        W34005   0.390   9.624   1.599 -0.1150 -0.4049 -0.3243
20592W        W34006  12.686  13.524   1.858 -0.2768 -0.0709 -0.0412
20593W        W34007   4.283  17.423  14.048 -0.0024 -0.0323  0.0007
20594W        W34008   6.159   5.367  12.230 -0.0303  0.1455 -0.0698
20595W        W34009  16.351   7.542  13.733 -0.2121 -0.2583 -0.2823
20596W        W34010  15.167   8.112  12.618  0.0526  0.2546  0.1859
20597W        W34011   8.465   1.163   1.464 -0.1038 -0.0436  0.3454
20598W        W34012  12.978   1.992  12.730  0.0359  0.1968  0.0033
20599W        W34013  14.669  15.652   2.709 -0.1298  0.0518 -0.0797
20600W        W34014   1.767   5.074  14.837 -0.0764  0.1753 -0.2285
20601W        W34015   9.898   3.465  14.894 -0.1895 -0.0489 -0.0160
20602W        W34016   2.185   6.852   5.993  0.0070 -0.0107 -0.1654
20603W        W34017  16.026   1.188  14.003  0.2351  0.1008 -0.1437
20604W        W34018   3.257  11.341   2.201 -0.0960  0.1581 -0.1159
20605W        W34019  13.315  10.372  15.448  0.0182  0.3917  0.0054
20606W        W34020  12.880   1.733   3.046 -0.0319  0.1395  0.0484
20607W        W34021   8.929   5.614   3.042  0.0208  0.3282 -0.0202
20608W        W34022   2.450  17.152   9.512 -0.0072 -0.0836 -0.0902
20609W        W34023  15.523   3.357  14.632 -0.1800  0.1043  0.0743
20610W        W34024  17.277   8.112  14.479  0.0011  0.2344 -0.0786
20611W        W34025  13.295  17.434  13.138 -0.2155 -0.0060  0.3600
20612W        W34026   5.852  13.076   0.669 -0.2503  0.3649  0.0056
20613W        W34027   6.762   6.738   2.468  0.1410 -0.0045 -0.1200
20614W        W34028  16.539  13.411   2.521  0.4021 -0.0113 -0.0406
20615W        W34029   7.790   9.394   2.886  0.2570 -0.0968 -0.0159
20616W        W34030  17.827  12.572   4.962  0.1908  0.0157 -0.0424
20617W        W34031   5.722  10.525   1.389 -0.2522  0.0401  0.2683
20618W        W34032  14.120   1.928   0.713 -0.0413 -0.1258  0.2631
20619W        W34033   8.768  15.855   6.569  0.1642  0.1228 -0.2154
20620W        W34034   7.752   9.424  12.350  0.2737 -0.0948 -0.0827
20621W        W34035  12.629   8.659  14.308 -0.0029  0.1307 -0.0341
20622W        W34036   5.526   9.825   2.549 -0.0936 -0.2885 -0.0709
20623W        W34037  17.580  12.044   0.307 -0.1481  0.6052 -0.3959
20624W        W34038   5.156   5.907  12.951 -0.0782  0.0021  0.1383
20625W        W34039   2.830   8.246  14.311 -0.0528  0.0920 -0.1529
20626W        W34040   4.921   3.969   5.891  0.2026  0.1091  0.0946
20627W        W34041  16.043   0.989   3.377 -0.1853  0.0811 -0.1190
20628W        W34042   6.543   6.207  16.128 -0.1831  0.1783  0.1682
20629W        W34043   2.755   2.981  16.439 -0.0722  0.0559  0.0352
20630W        W34044  12.033  17.993   1.777  0.0295 -0.2588 -0.2620
20631W        W34045   5.770  16.923  15.399 -0.2446  0.1487 -0.0767
20632W        W34046   5.572   0.673  11.309 -0.3732  0.0821  0.1553
20633W        W34047   4.227   0.621  16.332  0.1100  0.1762 -0.2531
20634W        W34048   4.907  12.544   5.370  0.2841 -0.2047  0.3312
20635W        W34049   3.139  17.158   5.046 -0.4175 -0.0518  0.1949
20636W        W34050   3.954   6.989   4.535  0.0163  0.1585  0.1060
20637W        W34051  13.533  14.068  14.325  0.2296  0.1503 -0.0346
20638W        W34052   9.728  17.452  14.533 -0.2474 -0.2851  0.1082
20639W        W34053  17.810   8.894   1.114 -0.1650 -0.0549 -0.2907
20640W        W34054  12.281  13.719  15.024  0.5285  0.2410  0.4320
20641W        W34055   7.348   9.023  14.151  0.0489 -0.0220  0.1493
20642W        W34056   3.548  12.043   4.761 -0.0185  0.2111  0.1574
20643W        W34057  17.428   2.944   1.382 -0.0052 -0.2196  0.0377
20644W        W34058   6.577   2.122  12.312  0.0412  0.0611 -0.1442
20645W        W34059   0.466  13.607  15.532 -0.0142  0.1488  0.1620
20646W        W34060   5.148  11.283  13.690  0.0964 -0.0096  0.1250
20647W        W34061   8.145   9.126   2.701 -0.2122  0.2445 -0.0031
20648W        W34062  10.595  12.368  14.555 -0.1481 -0.2920 -0.1577
20649W        W34063   9.067   6.079   3.200 -0.1004 -0.2309  0.2253
20650W        W34064   5.274   6.644  11.866  0.0964 -0.0100 -0.4038
20651W        W34065   1.251   2.110  14.174 -0.0528 -0.2904  0.0938
20652W        W34066  11.964  10.047  13.986 -0.2621 -0.1335  0.1096
20653W        W34067  17.031   6.110  15.313 -0.0024 -0.2964 -0.1679
20654W        W34068   3.457   5.094   0.252  0.0712  0.0024  0.2253
20655W        W34069  14.980   3.941   3.207 -0.3662  0.3842  0.2242
20656W        W34070   4.626   6.581   5.705 -0.0021 -0.0790  0.0111
20657W        W34071  11.689   6.030  15.616  0.2157  0.0301 -0.0600
20658W        W34072  11.329   4.760   1.436  0.0282  0.0323  0.1578
20659W        W34073   3.923  12.785  12.849 -0.0981  0.0063  0.1244
20660W        W34074  16.909  15.135   4.304 -0.3425  0.1840 -0.2437
20661W        W34075  17.883  14.094  14.552  0.0241  0.0274 -0.0758
20662W        W34076  12.805   3.333  10.990 -0.4893 -0.3801 -0.2940
20663W        W34077   7.331   5.729   3.404 -0.1469  0.3888 -0.1593
20664W        W34078   3.915   9.176   3.180  0.4004  0.1512  0.1424
20665W        W34079   3.835   2.070  11.885  0.2973  0.1706  0.1218
20666W        W34080   4.696  17.630  14.251  0.2913  0.1648 -0.0168
20667W        W34081  13.454  12.875   3.545  0.1966 -0.1555 -0.0198
20668W        W34082   8.378  11.200   3.342  0.1672  0.0402 -0.0996
20669W        W34083   0.834  14.369  13.667  0.3722  0.0860  0.4446
20670W        W34084   5.819   1.324   3.242 -0.1385 -0.3585 -0.0303
20671W        W34085   8.641  15.551   5.061 -0.0383 -0.0189  0.1209
20672W        W34086   9.807   1.529   3.624 -0.0974  0.0713  0.5054
20673W        W34087   6.929  13.886   0.818 -0.0339 -0.0241  0.0668
20674W        W34088   7.474   8.796   0.325 -0.1437 -0.1278  0.1494
20675W        W34089   9.631  10.263  13.256  0.0386 -0.0802 -0.0288
20676W        W34090  11.080   7.215   1.958  0.0089  0.0336 -0.2423
20677W        W34091  12.181   6.725   2.682  0.0286 -0.0634  0.1205
20678W        W34092   1.820   7.499  12.090 -0.2365  0.0094 -0.0250
20679W        W34093  16.104   5.702   6.020  0.0130 -0.0178 -0.2310
20680W        W34094  15.334  15.336  12.603  0.3409 -0.2120 -0.1590
20681W        W34095   6.148  17.480  16.640 -0.2583 -0.1174  0.1010
20682W        W34096   8.061   1.237  12.987  0.1304 -0.1346 -0.1852
20683W        W34097   8.820  15.144   0.185 -0.4396 -0.1077  0.2435
20684W        W34098   3.556   4.131  11.389 -0.2867 -0.1497 -0.2933
20685W        W34099  17.421   1.525   2.692 -0.1231 -0.0083 -0.0900
20686W        W34100   9.880   8.015   0.716  0.2167 -0.0199  0.3903
20687W        W34101   0.494   5.161   1.743 -0.1222 -0.1793 -0.0230
20688W        W34102   5.025   9.237   5.649 -0.2442  0.1143  0.1273
20689W        W34103  10.098   3.636   2.740  0.1294  0.0025 -0.0528
20690W        W34104   9.972  11.170   3.928  0.1013 -0.3702 -0.1486
20691W        W34105  13.881   8.413   5.698 -0.0941 -0.1701 -0.0765
20692W        W34106  10.632   4.594  14.135  0.0878 -0.3684 -0.1100
20693W        W34107   4.736   7.079   5.576 -0.2962 -0.1574 -0.3932
20694W        W34108   7.952   2.541   0.179 -0.1773 -0.1445  0.0543
20695W        W34109  12.390  13.973  15.406  0.2187 -0.0926 -0.3919
20696W        W34110  12.881  15.206   5.260 -0.2214  0.0476 -0.2310
20697W        W34111  12.416   1.535   1.959 -0.1996 -0.2292 -0.2453
20698W        W34112  14.683   0.554   6.129  0.0818  0.3022 -0.0554
20699W        W34113   8.366   2.711  13.753  0.2000 -0.0535 -0.2738
20700W        W34114   7.736   6.213  13.405 -0.2303 -0.2447  0.0755
20701W        W34115   5.027  16.388  14.445  0.1943  0.0037 -0.0529
20702W        W34116   3.134   1.746  10.452 -0.1673 -0.0637 -0.0403
20703W        W34117   6.713  10.207  13.638 -0.0999 -0.0560  0.2054
20704W        W34118  11.277  16.629   1.914  0.1081 -0.0725 -0.1371
20705W        W34119  14.723   1.805  14.704 -0.0739  0.3561 -0.0126
20706W        W34120   9.368  10.410  16.697  0.2584  0.0213 -0.0413
20707W        W34121   9.900  12.012  11.459 -0.0279 -0.0437 -0.1252
20708W        W34122  10.348   8.136  16.278  0.2430  0.0496  0.0785
20709W        W34123  14.104  12.570  15.744 -0.1370  0.1294 -0.3720
20710W        W34124   8.154   8.647  11.954 -0.1746 -0.2494 -0.0782
20711W        W34125  10.653   8.914  15.734 -0.1979 -0.3449  0.1617
20712W        W34126  15.362   5.659  16.116 -0.3336 -0.1127  0.1875
20713W        W34127   0.659   1.667   2.897 -0.0804  0.0007  0.0422
20714W        W34128  10.130   1.109  12.070  0.1101  0.4019 -0.3030
20715W        W34129  15.180   6.142   0.121  0.2173  0.1325 -0.0055
20716W        W34130   2.329   3.155   4.064  0.1142  0.1348  0.0734
20717W        W34131  16.163   0.473  12.922 -0.3326 -0.0579  0.3754
20718W        W34132  11.697   2.990  15.434  0.0270  0.2591 -0.2849
20719W        W34133   5.455  12.904  14.671  0.1267  0.2973  0.0581
20720W        W34134   5.921  17.691  13.457 -0.0060  0.1146  0.3164
20721W        W34135  10.788   2.003  12.182  0.0843 -0.1363  0.3006
20722W        W34136   8.726  11.352  15.847 -0.4605  0.0978 -0.1147
20723W        W34137  15.961  15.738   0.165  0.2438 -0.2176  0.1997
20724W        W34138  10.615  14.279   5.218  0.3904 -0.1341  0.0243
20725W        W34139  17.389  17.156  13.441 -0.1176  0.1200  0.2282
20726W        W34140   9.449  12.106  11.363  0.3318 -0.1424 -0.1129
20727W        W34141  13.423   3.341   4.221  0.2946  0.0155 -0.0659
20728W        W34142   1.450  15.346  13.999  0.0497 -0.1867 -0.1183
20729W        W34143  16.173  15.322   2.452  0.2637 -0.1092 -0.1649
20730W        W34144   0.452   9.543   0.525 -0.2190 -0.1787  0.2292
20731W        W34145   3.766   9.231  14.655 -0.2370  0.1415 -0.1487
20732W        W34146   1.938   4.868  15.875 -0.0579 -0.4062  0.3837
20733W        W34147   8.023  13.118  15.910 -0.0225  0.1542  0.0882
20734W        W34148   1.871   6.349   5.820  0.1155  0.1764  0.2098
20735W        W34149   2.666  12.935   2.004  0.0385  0.2933  0.0739
20736W        W34150   5.439   8.042   4.338 -0.0531  0.2281  0.1436
20737W        W34151   4.854   9.317   0.443 -0.1731 -0.0637 -0.1777
20738W        W34152  13.953   7.839   0.010 -0.1813 -0.1107 -0.1650
20739W        W34153   3.479  12.551  16.712 -0.2961 -0.0740  0.0699
20740W        W34154   6.513   6.609   5.152 -0.1504  0.0900 -0.0252
20741W        W34155  13.740   1.760   2.792 -0.1047 -0.2675 -0.0211
20742W        W34156   9.030   0.041   0.708 -0.0565  0.2871 -0.1080
20743W        W34157  12.729  10.737  11.383  0.1203  0.0529  0.1853
20744W        W34158   0.478   5.385   2.710  0.1855  0.2701 -0.1499
20745W        W34159   3.045  16.469   0.206 -0.1850  0.1081  0.1695
20746W        W34160  16.728  10.764   2.244  0.1387  0.1051 -0.3676
20747W        W34161   9.972  17.971   1.272 -0.1669  0.1908  0.1189
20748W        W34162   5.394   3.827  15.112  0.1772 -0.0056 -0.0310
20749W        W34163  16.002  12.596  12.424 -0.0602 -0.3705  0.0582
20750W        W34164   9.059  17.758  10.399  0.2371 -0.1510 -0.0751
20751W        W34165  14.614  10.964   1.596 -0.2957  0.0929 -0.0090
20752W        W34166   3.015  10.766   3.740  0.2749 -0.1779 -0.3107
20753W        W34167  12.107  12.155  12.722  0.2728 -0.0213  0.2797
20754W        W34168   8.328   9.155  14.213 -0.2288  0.0031  0.1637
20755W        W34169  15.884   1.842   4.289  0.1657  0.0362  0.1129
20756W        W34170  12.541  15.042  14.349  0.1501 -0.1220 -0.1228
20757W        W34171  12.278   4.022  10.392  0.2801 -0.0868  0.0228
20758W        W34172   0.753   9.306  13.551 -0.2384 -0.1526 -0.1964
20759W        W34173  17.889   5.492  12.933 -0.2819  0.2543  0.1378
20760W        W34174   4.119  12.820   4.260  0.2354  0.1265  0.0913
20761W        W34175   3.716   8.518   6.725 -0.0245  0.1632  0.0360
20762W        W34176  10.338   7.839   1.226  0.2015 -0.1443 -0.0162
20763W        W34177   3.468  10.752  16.132  0.1316 -0.3276 -0.1470
20764W        W34178   0.044  16.099  13.569 -0.1466 -0.2366  0.3587
20765W        W34179   7.846  16.911   5.347 -0.1257  0.5874  0.0744
20766W        W34180  10.711   3.730   3.464 -0.1999 -0.2471 -0.2607
20767W        W34181  14.847   5.889  13.155 -0.1431  0.0981  0.0991
20768W        W34182   5.639   2.003   0.316 -0.2029 -0.0055 -0.0346
20769W        W34183  14.437  16.683   1.897  0.1195 -0.1209 -0.1581
20770W        W34184   4.037   6.527   2.500 -0.1171 -0.0029 -0.0770
20771W        W34185   8.511   8.966  11.240  0.0494  0.0135  0.0562
20772W        W34186   6.849   9.736   5.034 -0.1295 -0.0367 -0.0902
20773W        W34187   1.546  14.984  15.739  0.2241  0.1140  0.0900
20774W        W34188  14.015   2.109   2.990 -0.0981  0.0478  0.1287
20775W        W34189   8.716   5.804  14.169  0.0414  0.1337 -0.2166
20776W        W34190  16.984   6.779  10.659  0.0764 -0.0087 -0.1126
20777W        W34191  15.149  14.695   1.190 -0.2054 -0.2146 -0.0048
20778W        W34192  14.359   9.417  12.335 -0.1105 -0.0266  0.1660
20779W        W34193  10.911   6.610  11.796  0.1580  0.0577 -0.2044
20780W        W34194  15.715   4.866   0.016 -0.2201 -0.1735 -0.2127
20781W        W34195  15.800  10.255   0.050  0.0185 -0.1602 -0.1347
20782W        W34196  12.712   7.004  16.549 -0.0309 -0.1421  0.0188
20783W        W34197   1.840  11.083  11.330 -0.4817  0.3544 -0.1856
20784W        W34198  13.199  11.573   2.052 -0.1156  0.0819  0.1297
20785W        W34199   2.593  15.306  10.736 -0.0777 -0.1619  0.0074
20786W        W34200   0.921   1.216  14.067  0.0160  0.0282  0.0022
20787W        W34201  12.217  13.657   1.200  0.5641 -0.0115  0.3487
20788W        W34202  11.560  12.778   2.056 -0.1098 -0.2119 -0.2010
20789W        W34203   2.356   4.716   1.888 -0.1781 -0.0787  0.0324
20790W        W34204  11.413   5.293   3.513 -0.0271  0.0155  0.0565
20791W        W34205   9.294   6.793  16.020  0.1830 -0.0034  0.1234
20792W        W34206   0.349  15.081  16.169 -0.3046  0.1824 -0.1491
20793W        W34207  16.100  15.378   3.730  0.1206  0.1072  0.1008
20794W        W34208  16.349  15.968  16.116 -0.0529 -0.4040  0.1759
20795W        W34209  14.859   9.838  16.345  0.4129 -0.1235  0.1527
20796W        W34210  17.325   0.467  16.603 -0.1502  0.0051 -0.0626
20797W        W34211   2.862  11.062   5.219  0.2834  0.0175  0.1871
20798W        W34212   4.616   9.465  13.695 -0.0210  0.2261  0.1070
20799W        W34213   0.917  17.890  10.165  0.0705 -0.0083 -0.0430
20800W        W34214   5.056   7.397  11.119  0.1943  0.2769  0.2366
20801W        W34215  17.192  10.676   0.541 -0.0378  0.0534 -0.1046
20802W        W34216   6.739  15.097  13.339  0.0859  0.2038 -0.0740
20803W        W34217   7.375  11.242   6.068 -0.0587 -0.1346  0.1008
20804W        W34218  17.176   3.808  12.809  0.1586  0.1830 -0.2037
20805W        W34219   0.442   1.963   3.673  0.2218 -0.0326  0.1404
20806W        W34220   6.601   3.185  11.427 -0.1838 -0.2389  0.2139
20807W        W34221   3.063   7.295   1.304 -0.0150  0.0472 -0.0260
20808W        W34222   3.012   5.461  11.263 -0.2805 -0.1615 -0.2479
20809W        W34223   2.685  15.793  10.880 -0.1366 -0.0679 -0.0753
20810W        W34224   0.435   9.528   4.702  0.0758  0.1094  0.1184
20811W        W34225   4.378  12.024   2.634  0.0013  0.2294  0.0087
20812W        W34226  14.293   2.418   5.834  0.0087  0.2783 -0.0660
20813W        W34227   3.164   1.912   4.674  0.1875 -0.0876 -0.0886
20814W        W34228   5.883  11.902  15.155 -0.0341 -0.1153  0.0981
20815W        W34229  16.507   9.265   3.615 -0.1435  0.2001 -0.0277
20816W        W34230   1.024   7.639   0.978  0.0068 -0.1814 -0.2894
20817W        W34231   4.710   6.358  10.445 -0.0668  0.1176  0.0308
20818W        W34232   2.199  14.863  14.136  0.1214  0.0475 -0.0143
20819W        W34233  10.190  11.978   2.882 -0.1877  0.0290 -0.0401
20820W        W34234  17.619   8.760  11.942 -0.3179 -0.0510 -0.0407
20821W        W34235   0.766   9.466  11.129 -0.0806  0.1434  0.2930
20822W        W34236   6.522  15.765  13.561 -0.2054  0.1826  0.1479
20823W        W34237   0.173   4.392  14.780 -0.2426  0.0369  0.3286
20824W        W34238  17.398  14.868  11.468 -0.0291  0.0200 -0.1512
20825W        W34239  13.370   2.505   0.139 -0.1700  0.3228 -0.1793
20826W        W34240  10.557  13.976  16.778 -0.0880  0.2386  0.0083
20827W        W34241   4.411   4.862  14.751  0.0583 -0.2128 -0.0324
20828W        W34242   2.668   4.890   4.574  0.0230 -0.0212  0.1045
20829W        W34243   7.827  13.718  12.789  0.0625 -0.0603 -0.0539
20830W        W34244   7.346  12.465  15.900  0.2450  0.2012 -0.3364
20831W        W34245   3.751  11.132  15.790  0.0778 -0.2138 -0.2343
20832W        W34246  12.535  13.046  16.292  0.2363  0.1492  0.0791
20833W        W34247  16.711  16.336  15.425  0.4056  0.0173  0.1130
20834W        W34248  16.380  11.149   3.356  0.0535 -0.3621 -0.2229
20835W        W34249  10.348  17.979   0.115 -0.1647  0.1055 -0.2491
20836W        W34250  15.266   2.443  15.571 -0.2215  0.2593  0.1617
20837W        W34251  12.882  11.029  15.880 -0.0388  0.2898  0.0339
20838W        W34252  11.344   7.018  14.068  0.1285  0.3960  0.3321
20839W        W34253   2.813  15.937   4.573 -0.1515 -0.1179 -0.0256
20840W        W34254   0.214   7.480  12.906  0.1422 -0.2800 -0.1149
20841W        W34255   7.054   9.679   3.586  0.0174  0.0237  0.0721
20842W        W34256   3.554  10.875  16.708 -0.1258  0.1119  0.2208
20843W        W34257   6.165  17.494  15.868 -0.4442 -0.1205 -0.3417
20844W        W34258  11.666  12.930   1.509  0.1484 -0.0192 -0.2479
20845W        W34259  16.524   2.332  13.277  0.1362 -0.2036  0.0425
20846W        W34260   8.200   1.788   5.851 -0.1692  0.1278 -0.0806
20847W        W34261   5.735  16.814   4.422  0.2321 -0.0065 -0.1021
20848W        W34262  12.261   8.926   0.512 -0.1074  0.1873 -0.0095
20849W        W34263   8.567   2.873   0.502 -0.1623  0.0344 -0.2513
20850W        W34264  14.467   2.859  12.897  0.0019  0.1955  0.1478
20851W        W34265  13.305  15.018   4.939 -0.2978  0.1610 -0.1553
20852W        W34266  11.058   1.912   4.985  0.0268 -0.1075 -0.0900
20853W        W34267   7.403  13.688  11.513 -0.0036  0.0548  0.0663
20854W        W34268  13.943   8.186   2.464  0.0420 -0.1585 -0.0789
20855W        W34269  16.028   0.570  16.098 -0.0164  0.0106 -0.1091
20856W        W34270  14.526  15.493  13.044 -0.0376  0.0883  0.0168
20857W        W34271  17.855   6.233  10.710 -0.0382  0.2772  0.0769
20858W        W34272  16.006   8.382   2.171 -0.0745 -0.0718 -0.0454
20859W        W34273   3.068  13.853  11.214 -0.0059 -0.0869  0.0585
20860W        W34274  10.165  15.978   1.785 -0.0547 -0.1935 -0.1610
20861W        W34275   9.239   9.992  13.394  0.1391 -0.1352  0.0061
20862W        W34276   2.889   5.888  15.886 -0.0261 -0.1663 -0.3756
20863W        W34277  11.182   4.266  10.777 -0.0848  0.1902 -0.0546
20864W        W34278  12.145   9.504  15.389 -0.1447 -0.1805  0.2569
20865W        W34279   6.558  14.381  13.562  0.1103  0.0777  0.0327
20866W        W34280  10.769  16.504   2.149  0.2026 -0.0825 -0.0797
20867W        W34281   9.518  10.587   5.305 -0.0120  0.0308 -0.2019
20868W        W34282  16.401   1.346  15.951 -0.1974  0.3055  0.1139
20869W        W34283   4.390  15.937   2.538 -0.3210 -0.2888  0.0803
20870W        W34284  11.182  13.214   6.588 -0.0981 -0.0098 -0.3809
20871W        W34285   7.321  16.723  16.735 -0.3562  0.0155 -0.0491
20872W        W34286  12.117  11.682   6.942 -0.0761 -0.0965  0.6329
20873W        W34287   7.270   2.540   5.020 -0.1655 -0.0966  0.2714
20874W        W34288   9.904  13.074   2.805 -0.0144  0.0566  0.2306
20875W        W34289   3.022   5.475  15.589 -0.0104 -0.1324  0.0858
20876W        W34290  12.057  11.960   2.393 -0.1203 -0.1725 -0.0151
20877W        W34291  13.364  10.242  13.802 -0.0740 -0.0105 -0.1553
20878W        W34292   6.795  17.562   2.457  0.0005 -0.1161  0.1186
20879W        W34293   4.406  13.047  10.032 -0.0844  0.0184 -0.0953
20880W        W34294   2.386  12.418  14.171  0.0339 -0.1119 -0.0954
20881W        W34295  10.167   3.038   1.122  0.0451 -0.1517 -0.0490
20882W        W34296   5.522  13.789   0.479 -0.0896  0.2112 -0.2007
20883W        W34297  15.613  17.256  15.893  0.0129 -0.3585 -0.1790
20884W        W34298   6.338  13.762   3.445 -0.1563 -0.0989 -0.1305
20885W        W34299   8.834   9.299  14.233 -0.0912  0.0786  0.2535
20886W        W34300  14.669   8.172  14.534  0.1876 -0.1181 -0.0096
20887W        W34301  10.394  16.516  12.000  0.3777  0.0346 -0.1260
20888W        W34302  14.688  14.922  11.911  0.1257  0.1847 -0.0637
20889W        W34303   8.566   6.366   4.607  0.0840 -0.0661 -0.2576
20890W        W34304   5.724   9.932  14.722 -0.0554  0.2051  0.0326
20891W        W34305  13.563  11.818   4.862 -0.0418 -0.0481  0.0391
20892W        W34306   6.609  17.772  12.929  0.0716  0.0067  0.0221
20893W        W34307  10.550   3.186  13.887  0.1570 -0.0216 -0.3479
20894W        W34308   5.300  10.875   4.562 -0.0195  0.0210 -0.2744
20895W        W34309   0.386   0.461   1.676  0.0838  0.0345  0.0499
20896W        W34310   2.875  12.446  12.335  0.4357  0.0894  0.0853
20897W        W34311   1.391  11.661   2.724 -0.1891  0.2308  0.2717
20898W        W34312  16.950   7.725   5.710 -0.0948  0.0095 -0.0054
20899W        W34313   3.909  14.025  14.024 -0.0339 -0.0999  0.0922
20900W        W34314  15.128  13.497  11.316  0.0652 -0.2827 -0.2653
20901W        W34315   0.018   8.824  13.260 -0.2028 -0.1052  0.2957
20902W        W34316   3.402   0.966  10.529 -0.0867  0.0070 -0.0415
20903W        W34317  13.336   8.743  10.690  0.2478 -0.1240  0.1859
20904W        W34318  12.267   3.839   5.526  0.0732 -0.0182  0.1097
20905W        W34319  16.245   2.386   0.248 -0.1417  0.0260  0.2831
20906W        W34320   5.210   2.144   3.225 -0.0744 -0.4212  0.1508
20907W        W34321   7.575   3.979   5.274  0.0540  0.3347  0.1768
20908W        W34322  10.865   9.352  11.952 -0.2902  0.0295 -0.0240
20909W        W34323  15.309  17.959  15.160  0.4670 -0.0672 -0.2818
20910W        W34324   2.939   9.172  16.148  0.3138  0.0731  0.0910
20911W        W34325   1.780   8.908  15.982  0.2241 -0.0090  0.1188
20912W        W34326   5.892   0.361   4.839  0.1330  0.2187 -0.1372
20913W        W34327  13.673  11.354  12.073  0.1367 -0.1576  0.2972
20914W        W34328  16.906  14.514   2.565 -0.0501  0.1180  0.2376
20915W        W34329   2.288   8.139   4.266 -0.0801  0.0246  0.0316
20916W        W34330  11.044   6.109   4.679 -0.0513 -0.1440 -0.3086
20917W        W34331  13.878  16.089  11.279  0.0469 -0.1469 -0.2597
20918W        W34332   7.963   6.680   6.241  0.1771  0.2499  0.1251
20919W        W34333   1.243  11.231   6.018 -0.1679 -0.0095 -0.1124
20920W        W34334   1.811   7.483  13.110  0.1136  0.0727 -0.0644
20921W        W34335  13.605   9.475   1.497 -0.1762 -0.3327 -0.2986
20922W        W34336   4.198  10.003  13.108 -0.2298  0.0942 -0.0409
20923W        W34337   0.992   5.221   3.497 -0.0455 -0.2026 -0.0704
20924W        W34338   5.678   7.147  11.623  0.0415  0.0376  0.0127
20925W        W34339   2.000  14.593  13.678 -0.0820  0.0307  0.0877
20926W        W34340  17.722   5.203   2.909  0.0324 -0.2119 -0.0176
20927W        W34341  16.582   1.569  11.118  0.0009  0.3652 -0.1931
20928W        W34342   1.978   0.709   3.324  0.3225 -0.3425 -0.2124
20929W        W34343   9.648  11.793  11.817  0.2332 -0.2542  0.0237
20930W        W34344  14.185   6.012   0.504 -0.2914  0.0188 -0.0244
20931W        W34345  15.135   3.661  14.589 -0.0715 -0.0998  0.1141
20932W        W34346  12.822  10.145   1.131  0.1335  0.0162  0.0825
20933W        W34347  10.744   0.300   4.015  0.1621  0.1001  0.1311
20934W        W34348  13.529  10.017  16.555 -0.1068  0.1981  0.4927
20935W        W34349   4.600  17.893   5.036  0.0782  0.0457 -0.0012
20936W        W34350   5.904   5.677  14.908 -0.0071 -0.1806 -0.1854
20937W        W34351   2.999  14.355  13.344 -0.1869 -0.0149 -0.1518
20938W        W34352   3.904   5.817   2.276 -0.2767  0.3018 -0.2251
20939W        W34353   2.550  16.673   0.448 -0.0089 -0.1244  0.1230
20940W        W34354   9.639  10.251  14.069 -0.0838 -0.0649  0.0972
20941W        W34355  15.011   0.942   3.651  0.0904  0.0528 -0.2260
20942W        W34356   9.110   6.880   3.993 -0.0562  0.0515 -0.1722
20943W        W34357  14.911   9.425  14.538  0.4959  0.0987 -0.0692
20944W        W34358  16.381  15.919   2.474 -0.2611  0.0960  0.0894
20945W        W34359  10.837  15.249   5.850  0.0704  0.1953 -0.0518
20946W        W34360   6.067   2.609  10.942  0.1945  0.0170 -0.2501
20947W        W34361  17.627   2.639  10.603 -0.0597 -0.1486  0.1215
20948W        W34362  11.986  16.709  15.333 -0.1361 -0.1665  0.0210
20949W        W34363   6.966  15.413  13.885 -0.3021  0.0509 -0.1288
20950W        W34364  16.497  12.710   1.110 -0.2735  0.1144  0.0674
20951W        W34365   3.667  14.449  13.638 -0.1432 -0.0328 -0.0178
20952W        W34366  15.079  14.580  15.115  0.1074  0.1352  0.0978
20953W        W34367   5.563  15.734   3.158  0.1135  0.0541 -0.0694
20954W        W34368  13.955   2.425  16.130  0.1120  0.1394  0.0124
20955W        W34369   7.275   9.382   3.889 -0.2011 -0.1179  0.0002
20956W        W34370  16.826   7.621  13.584 -0.0694  0.2966  0.0867
20957W        W34371   7.499   8.215  14.289  0.3052  0.0499  0.2074
20958W        W34372  15.176   3.922  14.203 -0.1272  0.0524 -0.3969
20959W        W34373  15.054  11.714   5.317  0.0129  0.1821  0.0499
20960W        W34374   6.154  14.075   5.501 -0.0592  0.4004  0.3389
20961W        W34375   9.848  15.167  11.683  0.0637  0.0009  0.0471
20962W        W34376   8.429  12.434  15.348  0.0939 -0.1876 -0.1679
20963W        W34377   3.366   5.900  16.128 -0.0392  0.0541 -0.1793
20964W        W34378  10.316  10.918   5.852  0.0263  0.1783 -0.0308
20965W        W34379   5.306   0.136   0.760 -0.1578 -0.0910  0.0733
20966W        W34380  10.628   2.774   0.844  0.0273 -0.1820  0.0434
20967W        W34381   6.352   4.739  14.781  0.1040 -0.0082 -0.0433
20968W        W34382  10.474   5.276  14.722  0.0375  0.0240 -0.0136
20969W        W34383   6.939  12.053   0.567 -0.0910  0.0061 -0.3058
20970W        W34384  10.928   7.880  11.305 -0.2303 -0.2770 -0.1854
20971W        W34385  13.899   8.895  12.987 -0.1779 -0.1218 -0.1843
20972W        W34386   5.155  16.431  15.787 -0.4223 -0.5625  0.0677
20973W        W34387   9.404  12.711   7.147  0.0488  0.1259 -0.2929
20974W        W34388   2.058  12.189  16.311  0.1883 -0.1033 -0.0612
20975W        W34389   2.168   2.621   5.053 -0.1410 -0.2542  0.1658
20976W        W34390  15.409   2.571  16.087 -0.0273  0.0699 -0.0675
20977W        W34391   8.723   6.186  15.611 -0.0780  0.0009  0.3836
20978W        W34392   6.464  14.137  13.075  0.1281  0.0830 -0.0815
20979W        W34393   7.475   0.048   3.330 -0.2070  0.0348 -0.0153
20980W        W34394   1.454   6.113  16.271 -0.1338  0.2080 -0.3873
20981W        W34395  13.009   0.666  13.377  0.0332 -0.0477 -0.0349
20982W        W34396  10.024  16.348   6.176 -0.0921 -0.4048 -0.1931
20983W        W34397  10.788  11.338  15.344  0.2536 -0.0949 -0.1651
20984W        W34398  14.711  15.570   1.353 -0.0751 -0.1154  0.3443
20985W        W34399   2.095  10.886   5.635 -0.1141  0.0081  0.1483
20986W        W34400   6.410   9.290   3.528 -0.0839  0.3441 -0.0565
20987W        W34401  12.894  13.626  11.576  0.2007 -0.3546 -0.1484
20988W        W34402   8.609  16.811  10.944  0.0128  0.0476  0.1755
20989W        W34403   7.885   7.310   1.973  0.0685 -0.0809 -0.2889
20990W        W34404   3.522   7.101   3.322  0.1324 -0.2233  0.0404
20991W        W34405   0.038  10.461   1.521 -0.2414  0.0500  0.0127
20992W        W34406  14.882   9.669  11.759  0.1400 -0.0716  0.0333
20993W        W34407   4.850   7.453   0.197  0.0545 -0.2559 -0.1189
20994W        W34408   7.343  11.086   2.092  0.0436  0.1389  0.1650
20995W        W34409   5.345   8.764   0.026 -0.1108 -0.2307 -0.0967
20996W        W34410  10.271  12.347  14.201  0.3017 -0.3212 -0.0601
20997W        W34411  11.565   0.013  12.959 -0.1114  0.0450  0.1094
20998W        W34412   2.432  14.108   1.301  0.2472  0.0210  0.2099
20999W        W34413  13.137  14.240  12.040 -0.1252  0.1146 -0.0852
21000W        W34414  12.274  17.802  14.750  0.0393  0.1494 -0.1472
21001W        W34415   1.486  11.695  10.538  0.1897 -0.1410  0.0328
21002W        W34416   1.617   0.282   0.119  0.2303 -0.0451 -0.0479
21003W        W34417  10.249  11.281   3.499  0.2165 -0.1722 -0.2668
21004W        W34418   3.055   5.891  13.842 -0.0640  0.0666  0.2408
21005W        W34419   9.476   8.135  16.172 -0.2384  0.2449  0.1417
21006W        W34420  14.620   1.375  14.464 -0.0229  0.1269  0.3403
21007W        W34421   9.909   0.462   1.406 -0.2813 -0.0351 -0.1516
21008W        W34422  11.190  16.443  11.628  0.1671 -0.0793  0.3264
21009W        W34423  11.965   2.635  14.243 -0.1065 -0.0796 -0.1328
21010W        W34424  14.519  13.837   2.636 -0.0374 -0.1082  0.0344
21011W        W34425  14.004  13.613  14.031  0.1973  0.0268  0.2722
21012W        W34426  14.839  17.266   3.992 -0.0338  0.0147 -0.6172
21013W        W34427  10.158   8.934   4.995 -0.2036 -0.1764  0.2323
21014W        W34428   6.178   7.379   2.233  0.0525  0.3531  0.1042
21015W        W34429   2.904   2.736   0.095 -0.0971  0.1812 -0.0566
21016W        W34430   9.908   2.134   1.019  0.0744  0.0368 -0.1393
21017W        W34431   8.293  13.257   6.265  0.4414 -0.0941 -0.2824
21018W        W34432   0.825   9.340   2.894 -0.1658  0.0386 -0.0358
21019W        W34433   6.572  12.522  13.079  0.1114 -0.1884 -0.0881
21020W        W34434   0.935  12.373  12.224  0.0392 -0.3079  0.0185
21021W        W34435  17.243   0.469   2.220  0.0024  0.0478  0.0356
21022W        W34436  16.228   4.000  11.522 -0.1504  0.2274  0.0147
21023W        W34437  14.718  16.625  12.230 -0.1772  0.0230 -0.2646
21024W        W34438   6.080  10.259  12.844 -0.2172 -0.2395 -0.1958
21025W        W34439  11.796   2.690   0.101  0.0020  0.1834  0.2725
21026W        W34440  11.969  17.224   4.726 -0.2819  0.1840 -0.1490
21027W        W34441   9.653  15.017  16.351  0.1719  0.0955 -0.0275
21028W        W34442   9.551   5.827   2.649  0.1130  0.0112  0.0284
21029W        W34443   9.429  16.412  10.986 -0.1047 -0.0213  0.0971
21030W        W34444   6.778   8.359   1.727  0.1633  0.1001 -0.1062
21031W        W34445  13.857   2.552   0.344 -0.0482  0.0234  0.1185
21032W        W34446   3.136   0.600  15.230  0.0243  0.0269 -0.2072
21033W        W34447   5.965  16.835  13.683 -0.3125 -0.3232  0.0116
21034W        W34448  13.724   7.054   2.940  0.0454 -0.1462 -0.1291
21035W        W34449  10.517   4.770   5.541 -0.2901 -0.0030 -0.1114
21036W        W34450  13.141  11.926  16.032  0.0749  0.0043 -0.1353
21037W        W34451  13.524   7.633  13.823 -0.0211  0.0547  0.1039
21038W        W34452  17.681   7.769  16.243 -0.0425  0.0376 -0.0198
21039W        W34453  15.767  10.391  14.617  0.1421  0.3051  0.0074
21040W        W34454  11.323  12.469  15.251  0.0839 -0.0952  0.1901
21041W        W34455   6.507   1.967  13.137  0.2247  0.3513  0.0516
21042W        W34456   7.711   5.269   3.299 -0.1529  0.2912 -0.0027
21043W        W34457  17.026   7.650  11.228  0.1525 -0.2683  0.2077
21044W        W34458   6.234  15.068  15.164 -0.0205  0.1358  0.0256
21045W        W34459   7.579   9.662   3.582 -0.0095  0.1036 -0.0542
21046W        W34460  17.504  16.969  12.941 -0.0851  0.1496 -0.0867
21047W        W34461  17.823  15.677  15.646 -0.0211  0.3146  0.0225
21048W        W34462   8.286   2.549  14.784 -0.0452 -0.1546  0.1240
21049W        W34463   8.387  12.981   2.762 -0.1523 -0.0362 -0.1437
21050W        W34464  12.268  14.913   3.024 -0.0299  0.1177  0.0348
21051W        W34465   2.028   8.685   3.257  0.0141  0.2459  0.0289
21052W        W34466  11.615  14.105   0.961 -0.2191  0.1105  0.2973
21053W        W34467   6.552   8.940  14.527 -0.1455  0.2095  0.0729
21054W        W34468   0.227   8.376   2.980  0.1734  0.2072 -0.1220
21055W        W34469   2.670   7.033   2.783  0.0535  0.1456 -0.0537
21056W        W34470   9.282   2.747  13.049 -0.0977  0.0319  0.0902
21057W        W34471  13.305   6.921   4.799 -0.0925  0.4191  0.2156
21058W        W34472  14.643  13.863   5.466  0.0081 -0.3446  0.1488
21059W        W34473   1.343   8.035   1.852  0.0854 -0.4140  0.0004
21060W        W34474  16.110   0.134  12.492 -0.1606 -0.3838 -0.3200
21061W        W34475  15.150   9.277  12.691  0.0179  0.2905  0.1325
21062W        W34476   2.745   6.942  11.973  0.1160 -0.0225  0.0289
21063W        W34477   3.947  12.877   2.692 -0.0580  0.2404 -0.2572
21064W        W34478  11.482   7.253  13.173 -0.0270 -0.2135 -0.1118
21065W        W34479   3.802   4.268   1.118 -0.0979 -0.0224  0.0748
21066W        W34480   0.334  17.779  15.681  0.0651  0.1281 -0.1004
21067W        W34481   9.376  15.850  13.332  0.1858  0.2778  0.0878
21068W        W34482   8.887  11.776   5.202  0.4011 -0.3872  0.0064
21069W        W34483  15.074   1.853  16.417 -0.1711  0.2411  0.0326
21070W        W34484  14.946   6.694   3.651  0.1756 -0.0995 -0.3007
21071W        W34485  15.839   1.098   3.875 -0.1956  0.1634  0.2898
21072W        W34486   9.488  12.358  16.594 -0.2744  0.0561 -0.1296
21073W        W34487  17.068   7.681  11.708 -0.2015  0.4292  0.0880
21074W        W34488  15.991  16.651  15.980 -0.1085 -0.3268  0.2548
21075W        W34489  16.736  12.377  12.744 -0.2428  0.0779  0.1246
21076W        W34490  12.028   6.914   3.565  0.1550 -0.1540  0.0275
21077W        W34491   9.495   1.495  16.292  0.4737  0.0316 -0.0421
21078W        W34492  17.314   0.648  14.233  0.0222  0.1281  0.0730
21079W        W34493  13.427   4.140  10.731 -0.2203 -0.0776  0.1252
21080W        W34494   4.600   7.022   0.295  0.1904  0.1321 -0.0502
21081W        W34495  14.381   0.450  12.996 -0.0785 -0.2437 -0.1931
21082W        W34496   7.387   6.074  15.226  0.0157 -0.1118 -0.1992
21083W        W34497  17.480   3.157  10.646 -0.2156 -0.0612 -0.1214
21084W        W34498   8.538  12.404   1.724  0.0649  0.2969  0.1626
21085W        W34499   9.747   6.742   5.521  0.0040  0.0284 -0.0922
21086W        W34500   7.225  11.796  16.711  0.2500 -0.1472 -0.1702
21087W        W34501   6.160   6.954   4.122  0.2730  0.0714 -0.0532
21088W        W34502   1.271  17.821  14.777  0.3190  0.1528 -0.0194
21089W        W34503  13.111   4.659  11.569 -0.0317  0.0579  0.2412
21090W        W34504  10.413   6.471  11.520 -0.0067 -0.1017 -0.3344
21091W        W34505  14.181   8.148   6.047 -0.0320  0.5421 -0.0386
21092W        W34506   8.038   4.389   0.158  0.3838  0.2359 -0.0566
21093W        W34507   8.659   2.644   4.771 -0.2333  0.2267  0.1344
21094W        W34508   1.758  16.868   2.049 -0.2714  0.3348 -0.1609
21095W        W34509   3.671   6.762  14.067  0.2484 -0.0997 -0.1487
21096W        W34510   3.564  17.685  11.877  0.4040  0.0697  0.1579
21097W        W34511   1.708   4.188   0.577 -0.0951  0.2289 -0.0579
21098W        W34512   5.256   3.125   2.213 -0.0469  0.0744  0.0185
21099W        W34513  10.957   0.563   4.927 -0.0173 -0.2536  0.0689
21100W        W34514   4.843  11.251   2.978  0.1683  0.1335 -0.0788
21101W        W34515   2.353  17.181   0.380 -0.0517  0.2856  0.0501
21102W        W34516   9.416   3.684  14.622 -0.0298  0.1388 -0.0541
21103W        W34517   3.856  14.339  11.495 -0.1316 -0.0243 -0.3957
21104W        W34518   2.581  12.520   5.476  0.1063  0.3249  0.0738
21105W        W34519  16.362  13.569   3.367 -0.0485 -0.0547 -0.0531
21106W        W34520   1.935   5.687  11.245  0.1771 -0.2791  0.2068
21107W        W34521   2.571   8.094   1.196  0.0986  0.1438  0.0702
21108W        W34522   8.017  13.010   3.080 -0.1435 -0.1231  0.0526
21109W        W34523   3.711   1.896  13.326 -0.1686  0.0770  0.1129
21110W        W34524   0.227   1.017  13.443  0.1874 -0.1399  0.0157
21111W        W34525   0.133   8.099   5.081 -0.3432  0.1553 -0.1533
21112W        W34526  12.246   3.297  16.339  0.2688  0.1304  0.3150
21113W        W34527   5.265   5.469   4.725 -0.2041  0.1835 -0.0761
21114W        W34528   0.842  17.336   1.668 -0.0086 -0.1472  0.0689
21115W        W34529  12.091   5.288  16.073 -0.1757  0.3704  0.1619
21116W        W34530   2.711  16.462   0.922 -0.2870 -0.1637 -0.0969
21117W        W34531   5.752   2.195   5.839  0.0947  0.2544  0.0809
21118W        W34532   0.699  12.647  11.320 -0.0297  0.0774 -0.0349
21119W        W34533   6.913   8.504   4.402 -0.2608  0.2113 -0.0334
21120W        W34534   8.433  16.915   2.426 -0.0784  0.2961 -0.0721
21121W        W34535  10.399  14.584  10.987  0.2042  0.1365 -0.1269
21122W        W34536   6.998  17.958  16.618 -0.1461 -0.1317 -0.1116
21123W        W34537   6.905  11.996  13.745 -0.0074  0.2279 -0.3055
21124W        W34538   0.032   7.953   1.115 -0.3753  0.1958  0.2858
21125W        W34539   7.519  17.162   4.575 -0.2122  0.1839 -0.0825
21126W        W34540  15.048   7.147   0.787  0.0314 -0.0847 -0.0904
21127W        W34541  17.435   4.391  16.695 -0.0557 -0.0867 -0.0312
21128W        W34542   6.029  10.283  12.143 -0.0501 -0.4369  0.1736
21129W        W34543  10.631  16.430   4.208 -0.0028 -0.0971 -0.2858
21130W        W34544   0.681  14.918  12.164  0.0675  0.0842 -0.0023
21131W        W34545   3.691  17.343  11.489 -0.2616  0.0715  0.0283
21132W        W34546   7.866   1.175   2.688 -0.0624 -0.1504 -0.0886
21133W        W34547   5.675   9.027  12.535  0.1365  0.0453 -0.0071
21134W        W34548   4.650  11.535  16.564  0.0105  0.0949  0.2220
21135W        W34549  12.524  17.131   2.418  0.0549 -0.1132 -0.1873
21136W        W34550   7.346   0.143   4.611  0.0308 -0.3183  0.0944
21137W        W34551   3.661  12.336  15.545 -0.1226  0.1826 -0.1148
21138W        W34552   0.483   4.323   0.108 -0.0094  0.0699 -0.2901
21139W        W34553   8.370   4.864   3.518 -0.0498 -0.1566 -0.2986
21140W        W34554   0.303   3.509   1.339 -0.2700  0.2668  0.1187
21141W        W34555   8.491   8.541   5.525 -0.0884  0.0403  0.2291
21142W        W34556   5.419   1.111   3.455  0.1410  0.2081 -0.0934
21143W        W34557   3.841  13.358   5.265  0.0915  0.5057 -0.2445
21144W        W34558  15.241   2.841  13.475 -0.0834  0.1666  0.1852
21145W        W34559  10.883   5.164   1.225 -0.1845 -0.1398  0.0424
21146W        W34560  14.995  17.367   2.741 -0.2297  0.1023 -0.0474
21147W        W34561   7.831  10.778  13.688  0.0615 -0.0152 -0.0938
21148W        W34562   5.570  10.130   5.741  0.0370 -0.2029  0.1313
21149W        W34563  15.714   6.628  10.903 -0.0184 -0.3251 -0.2141
21150W        W34564   2.851  14.302  15.299  0.1855 -0.0259 -0.0736
21151W        W34565   8.317  11.623   1.632  0.2334  0.1314  0.1454
21152W        W34566   5.230   7.400  14.226 -0.1049 -0.0158 -0.0745
21153W        W34567   6.966   4.022   3.569 -0.3011  0.1683  0.1235
21154W        W34568  17.127  12.217   2.844 -0.0666 -0.0879  0.1823
21155W        W34569   0.248   1.295   2.884 -0.0532  0.1392 -0.1831
21156W        W34570   8.230   5.480   4.318 -0.0680  0.1375 -0.0662
21157W        W34571  16.610   1.726   2.934  0.0312  0.0053  0.2343
21158W        W34572   0.487   8.969   3.573  0.1365 -0.0163 -0.1928
21159W        W34573   1.437  15.635  11.552 -0.1570 -0.1479  0.0413
21160W        W34574  15.654   2.906   4.087  0.0315  0.0900  0.0172
21161W        W34575  11.813   0.304  11.497  0.0597 -0.0089  0.2359
21162W        W34576  17.367  16.715   5.759  0.0739  0.2271 -0.0378
21163W        W34577   1.291   8.132   3.964  0.1462  0.1187 -0.3066
21164W        W34578   9.947   2.189  12.931 -0.3524  0.0343 -0.0445
21165W        W34579   5.863   0.334  15.959  0.1232  0.0139 -0.2077
21166W        W34580   4.732  10.214  16.516 -0.2411  0.1212 -0.0437
21167W        W34581   4.015   4.186  16.372  0.1071 -0.2739 -0.1293
21168W        W34582   7.456   3.442  13.133 -0.2451  0.0900 -0.4181
21169W        W34583   2.277  12.111  13.757 -0.2611 -0.1269  0.0674
21170W        W34584   5.602   2.581  11.118  0.2788 -0.0614 -0.1566
21171W        W34585   8.476   0.590   0.716 -0.1066 -0.1398  0.2471
21172W        W34586  13.729   6.211  12.307  0.1471 -0.0002  0.3286
21173W        W34587   5.958  11.560   3.777  0.0907 -0.1808  0.0075
21174W        W34588   3.543   1.720   0.406  0.2514  0.0011  0.2424
21175W        W34589  17.906  15.514  13.669 -0.1113 -0.1019  0.1526
21176W        W34590   5.915   3.186  14.753 -0.0705 -0.0508  0.1566
21177W        W34591  14.480  15.536   1.776  0.0696 -0.1212 -0.1408
21178W        W34592  10.667   0.524   2.227 -0.2816 -0.0611  0.1423
21179W        W34593  14.220   7.180   2.127 -0.0708 -0.0253 -0.0830
21180W        W34594  12.783   9.953  11.368  0.2199 -0.0397 -0.2563
21181W        W34595  15.074   8.648   5.517  0.0945 -0.0819 -0.1545
21182W        W34596   0.385  12.038  13.352 -0.2378  0.2596  0.4049
21183W        W34597  10.886   2.285  14.527  0.0057  0.1878  0.1289
21184W        W34598  13.401   4.310  11.734  0.1368 -0.0519  0.0457
21185W        W34599  11.250  12.229   0.532  0.0990  0.4841 -0.0635
21186W        W34600  17.235   0.880   0.085 -0.0791 -0.0768  0.1681
21187W        W34601   2.786  16.446  15.376  0.0718 -0.1641 -0.0055
21188W        W34602   4.590   3.393  16.737  0.3768  0.0452 -0.0242
21189W        W34603   2.782   9.617  15.873 -0.0719 -0.1834  0.1212
21190W        W34604   2.635  10.157   4.277  0.1408 -0.1562  0.1799
21191W        W34605  15.282  11.860   2.612  0.0109 -0.0005 -0.0254
21192W        W34606  17.113   6.820   0.906  0.2808  0.2026 -0.1178
21193W        W34607   5.511  14.910   3.152  0.2350 -0.2276 -0.1533
21194W        W34608   4.644   1.447   0.030  0.0736  0.1321 -0.1199
21195W        W34609   7.447   9.882  13.834  0.0228 -0.0217  0.2445
21196W        W34610   9.630   3.124  13.284  0.0145 -0.1270 -0.1198
21197W        W34611   6.098  16.013  12.735 -0.1465  0.0111 -0.1611
21198W        W34612   6.359   2.472   9.814  0.1872 -0.1011 -0.3677
21199W        W34613   5.994  12.702  12.358  0.0270 -0.2245 -0.0726
21200W        W34614   9.834   5.424  16.654 -0.0087  0.1746 -0.1567
21201W        W34615   5.163   6.474   1.708  0.1003  0.0430 -0.2662
21202W        W34616  16.666  17.955  12.173 -0.2616 -0.1669 -0.1271
21203W        W34617   0.717  11.827   0.687  0.0305  0.2474  0.2505
21204W        W34618  13.539  17.624   1.548  0.0197  0.2181  0.2237
21205W        W34619   0.557   4.992   0.848 -0.0260 -0.1644 -0.0935
21206W        W34620  14.365  10.163  12.975  0.1577 -0.2395 -0.3264
21207W        W34621   7.616  12.176   1.489  0.1013  0.0305  0.1594
21208W        W34622   5.780   3.996   1.920 -0.0407  0.0738  0.1181
21209W        W34623  13.984   8.703   4.153  0.3900 -0.1943 -0.0777
21210W        W34624  13.549   4.807   6.618 -0.0435 -0.0345  0.2391
21211W        W34625  10.789   6.980  16.421  0.1521 -0.1911  0.1147
21212W        W34626   7.394   6.327  12.059  0.0130  0.1653  0.0888
21213W        W34627   4.073   9.635  10.652 -0.0036  0.0255 -0.1672
21214W        W34628   1.850   7.035  13.454 -0.2228  0.0448 -0.0051
21215W        W34629  15.583  17.969   3.524 -0.1679  0.1274 -0.2904
21216W        W34630   9.963   9.403  12.952  0.3857  0.2870 -0.0885
21217W        W34631   8.663   4.767   1.393 -0.0210  0.2634 -0.1136
21218W        W34632  11.343   1.299  13.399 -0.0534  0.0824 -0.0248
21219W        W34633  15.097   7.839   4.357 -0.0351 -0.0261  0.0625
21220W        W34634   8.673   8.625   4.393  0.2848 -0.0377 -0.2929
21221W        W34635  11.701  17.735  14.607  0.0083 -0.1527  0.0405
21222W        W34636  15.054  14.283   3.791  0.1705 -0.3678  0.1089
21223W        W34637  13.573   0.877   5.872  0.0432 -0.0572 -0.0016
21224W        W34638   1.295  17.454   1.510  0.2008 -0.0195  0.0168
21225W        W34639   8.150  17.400  16.743  0.0157 -0.2392  0.0524
21226W        W34640  17.680   2.511  11.521  0.0191  0.2953  0.0311
21227W        W34641   4.549  12.774  14.953  0.0693 -0.1105  0.1242
21228W        W34642   6.756  10.374   1.485  0.0232 -0.0720 -0.1654
21229W        W34643   6.663   7.005   6.057  0.2051  0.0405 -0.0617
21230W        W34644   1.037   4.232   1.355  0.0927  0.0116  0.1605
21231W        W34645  10.161   7.070  13.466 -0.0744 -0.0992 -0.0931
21232W        W34646  13.859  10.430   5.132 -0.2164  0.3430 -0.2094
21233W        W34647   0.929  11.938   5.521  0.1140 -0.0338 -0.2729
21234W        W34648   9.043   0.384  14.770 -0.0254 -0.1819 -0.2110
21235W        W34649   3.675   7.900   5.532  0.2410 -0.1112 -0.1612
21236W        W34650   3.773  10.343   1.347  0.0818 -0.4557 -0.0742
21237W        W34651   7.379  15.379   4.411  0.0217 -0.0286  0.2855
21238W        W34652   4.976  13.244  13.724 -0.0837 -0.1330  0.1649
21239W        W34653   1.339   5.745   2.488 -0.0848 -0.3306  0.1215
21240W        W34654   1.591  12.764  15.229 -0.0084 -0.1432  0.3028
21241W        W34655   1.540   3.942   1.406  0.2459 -0.1356  0.1053
21242W        W34656  10.208   9.769   0.269 -0.1214  0.0069 -0.3372
21243W        W34657   3.652   8.026   6.063  0.3134 -0.2105  0.3330
21244W        W34658  15.878   7.992   2.541  0.1019  0.0524  0.0999
21245W        W34659   4.533  13.333  13.297  0.2494 -0.1027  0.2218
21246W        W34660   1.345   2.267  10.542 -0.2353 -0.1991  0.1134
21247W        W34661  12.004   5.324  16.654  0.1544  0.1497 -0.0400
21248W        W34662   4.860   5.505   0.790 -0.0839  0.0722  0.4183
21249W        W34663  10.934   0.457  10.558  0.0412  0.1751 -0.0179
21250W        W34664   8.303   9.899   5.528  0.1730  0.1688 -0.1945
21251W        W34665  10.474  12.239   3.694 -0.0097  0.1123  0.0473
21252W        W34666   6.213   4.869   0.971 -0.6685 -0.1221  0.1156
21253W        W34667   0.389  15.582   0.402  0.1143 -0.0338 -0.2202
21254W        W34668  10.479   9.739  11.847  0.1000 -0.0710  0.1245
21255W        W34669  15.318  12.192   6.214  0.1177  0.2172 -0.1423
21256W        W34670  13.423   4.736   0.718 -0.2266 -0.0172 -0.1009
21257W        W34671  16.745   1.302   0.169 -0.1804 -0.0069 -0.0744
21258W        W34672  17.540  10.412   5.990 -0.1756  0.0392 -0.1724
21259W        W34673   6.076  12.551  12.805  0.0916  0.1534  0.0336
21260W        W34674  13.885  11.990   6.104 -0.0025  0.2607 -0.1702
21261W        W34675   3.412  10.983  10.458  0.2011  0.2346 -0.2304
21262W        W34676   0.976   7.313  13.914  0.0008 -0.0346 -0.1839
21263W        W34677  17.465   0.878   3.594  0.0367 -0.1548 -0.2968
21264W        W34678   3.559   0.442  14.821  0.1067  0.0967 -0.0841
21265W        W34679  12.351   2.428   2.590 -0.0419 -0.0063 -0.0620
21266W        W34680   3.400   7.427  11.618  0.4174  0.1540 -0.0427
21267W        W34681  17.495  11.634   2.065  0.0011 -0.2597  0.2753
21268W        W34682   5.255   9.798   4.824  0.2790  0.1380  0.0214
21269W        W34683   6.703   9.239   1.309 -0.0798 -0.0471  0.0032
21270W        W34684   9.203   8.105   2.057 -0.0014  0.0069 -0.1923
21271W        W34685   1.754  13.314  16.563 -0.0362 -0.1252 -0.2643
21272W        W34686   6.853  16.556  13.704  0.0225 -0.2009 -0.0145
21273W        W34687  15.039  13.292   0.194  0.1282 -0.0303  0.1123
21274W        W34688  16.475  13.984   3.171 -0.2030  0.0132  0.0207
21275W        W34689  13.596   3.600   2.558  0.1319 -0.0651  0.2124
21276W        W34690   6.931   6.732  16.191 -0.0200 -0.0379 -0.0494
21277W        W34691   7.650   7.202   3.419 -0.1016  0.1392  0.3623
21278W        W34692   5.185  10.584  14.517  0.1128  0.0404  0.1460
21279W        W34693   3.798  17.431   3.298  0.0961  0.2469  0.2348
21280W        W34694  13.106   6.100  15.374 -0.2411 -0.2559 -0.0458
21281W        W34695   1.099  14.435   0.581 -0.2394 -0.0795 -0.0373
21282W        W34696   0.733   7.281   2.185 -0.1176 -0.2526 -0.2469
21283W        W34697   2.964  10.680  10.004  0.0928  0.0247 -0.0870
21284W        W34698   0.441  15.263  11.839  0.0659  0.1749  0.2656
21285W        W34699  16.972   9.307  12.408  0.0731 -0.1387  0.1818
21286W        W34700   8.664   7.191  11.790  0.1566 -0.0843 -0.2701
21287W        W34701   3.725   1.957  14.570  0.0440 -0.0885  0.0067
21288W        W34702  14.591   3.167  11.762  0.2832 -0.1873 -0.0221
21289W        W34703  17.089   9.055  16.660  0.0674 -0.0148  0.0766
21290W        W34704   5.661   2.299  12.869  0.1136 -0.0938 -0.2738
21291W        W34705   1.731  11.634  15.540 -0.3375  0.1830  0.3253
21292W        W34706   8.797   7.102   3.700  0.0132 -0.3857  0.3703
21293W        W34707  10.642   1.735   5.681  0.0009  0.1191  0.0319
21294W        W34708  11.020  11.370   6.330  0.3097 -0.1765  0.1014
21295W        W34709   0.888   7.272   6.062  0.1950 -0.0593 -0.1833
21296W        W34710  12.008  10.784   3.572  0.0499  0.1498 -0.0749
21297W        W34711  11.122  15.760  14.040 -0.1870  0.3170  0.1233
21298W        W34712   2.806   4.564  13.195  0.2096 -0.1680 -0.1481
21299W        W34713   5.365   2.819   2.646  0.1009 -0.4779 -0.0096
21300W        W34714  16.009   1.599  13.713 -0.2461  0.4267  0.1996
21301W        W34715  13.992   5.064   3.130 -0.0122 -0.1318  0.1574
21302W        W34716  13.684  10.251  13.372  0.1066 -0.1765  0.0783
21303W        W34717   7.737  13.807   0.836  0.3745  0.1392 -0.2388
21304W        W34718   2.514   1.297  15.260 -0.2749  0.0643  0.0053
21305W        W34719  16.199   4.485   2.067 -0.3319  0.0567  0.4678
21306W        W34720  14.356   3.681  10.640 -0.1627 -0.1433 -0.0112
21307W        W34721   2.379   4.728   0.344  0.0413  0.0670 -0.1607
21308W        W34722   7.345   3.778  12.748 -0.1422 -0.1715 -0.1794
21309W        W34723  12.010  12.098   3.240  0.1182 -0.0636  0.0112
21310W        W34724  14.821   6.687   0.954 -0.1075  0.3795 -0.0551
21311W        W34725  14.612  12.672  15.901 -0.3327 -0.0017  0.0219
21312W        W34726  15.717   4.303   4.602 -0.2997 -0.0054  0.3689
21313W        W34727   2.438  11.833   2.698 -0.1746 -0.0188 -0.1459
21314W        W34728  11.026   2.437  14.100  0.1287  0.1530  0.3189
21315W        W34729   6.426   2.654  10.536  0.2382  0.2759  0.4759
21316W        W34730  15.561   4.884  12.965  0.2660 -0.0228  0.1289
21317W        W34731   6.036   8.855  13.382 -0.0166  0.2089  0.0436
21318W        W34732  13.526   0.910  15.570 -0.2197 -0.2928 -0.2177
21319W        W34733   6.353   2.566  13.770  0.0733 -0.1066 -0.1510
21320W        W34734   4.303  11.851  15.840  0.3512 -0.0062  0.3697
21321W        W34735   3.371  16.202  16.325 -0.2243 -0.0307  0.2827
21322W        W34736   7.431   5.520   0.674  0.0448 -0.0941 -0.1269
21323W        W34737   8.253  14.924   3.955 -0.1122 -0.0948  0.1208
21324W        W34738   0.579  11.126  12.259 -0.0479  0.1561  0.0247
21325W        W34739   4.113  14.532  14.667 -0.0726  0.2413 -0.0408
21326W        W34740   2.905   9.783  13.523 -0.2721 -0.1103  0.0763
21327W        W34741  15.793   4.341   6.375  0.1749  0.1293 -0.0939
21328W        W34742  15.907   3.642   1.209  0.2935 -0.2603 -0.0286
21329W        W34743  15.484   3.893   4.345 -0.0872  0.1938  0.0672
21330W        W34744  17.710  15.449   2.958 -0.0492  0.0942 -0.1339
21331W        W34745  10.017  13.060  16.662  0.1114  0.1766 -0.0909
21332W        W34746  11.384   3.037   3.078  0.1149 -0.0119 -0.1881
21333W        W34747  11.368  14.418   2.866  0.1984 -0.0637 -0.0943
21334W        W34748   3.382  11.274  11.244  0.2511 -0.0171  0.0901
21335W        W34749   0.397  17.120  15.057 -0.3368 -0.1938  0.0204
21336W        W34750   5.723   5.985   1.277  0.1736  0.1388 -0.0255
21337W        W34751  16.229   7.511   3.125  0.0275  0.0199  0.0272
21338W        W34752   0.966  12.725   1.024 -0.1655  0.0426  0.0840
21339W        W34753  12.244  16.896  12.322  0.2473  0.1296 -0.2186
21340W        W34754   8.082   7.808  15.369 -0.2103  0.1688 -0.0898
21341W        W34755  13.556   9.411   5.609  0.0988 -0.1086  0.1379
21342W        W34756   2.055  11.687  14.612 -0.2283 -0.1046  0.3351
21343W        W34757   2.994  14.707  11.400 -0.0680  0.1908  0.4592
21344W        W34758   4.977  16.651  11.078 -0.1531  0.1330  0.4124
21345W        W34759  13.500  12.912   3.049  0.1951  0.2186 -0.1695
21346W        W34760   5.145  11.161   2.493  0.0972 -0.0277  0.0962
21347W        W34761   3.494   0.081   1.802  0.2160  0.1024 -0.0011
21348W        W34762   0.919   2.628   4.207  0.1840  0.1304  0.2558
21349W        W34763   4.577   0.791  10.882 -0.1148 -0.0475  0.1850
21350W        W34764   5.642  13.302  14.426  0.0321 -0.0849 -0.0764
21351W        W34765   7.718  13.041  14.704 -0.2809  0.0630  0.0430
21352W        W34766   2.385   6.804   0.090  0.0939 -0.1377  0.1185
21353W        W34767   1.373  10.582  11.896 -0.1952  0.2261  0.1528
21354W        W34768  16.326   6.283   1.215  0.1428 -0.1102 -0.1967
21355W        W34769  14.930   3.378   3.031 -0.1683  0.0194 -0.1501
21356W        W34770  16.028   6.168  16.460  0.0728  0.1889 -0.1022
21357W        W34771  12.656   6.511  14.992 -0.2433 -0.0872 -0.2321
21358W        W34772   1.728  15.618   3.019 -0.0257 -0.2350 -0.0265
21359W        W34773   3.837  12.148   1.954  0.0459 -0.3600  0.1908
21360W        W34774   3.408   6.523  10.912 -0.1935  0.0769  0.1637
21361W        W34775   8.167  13.736   3.773 -0.1013 -0.1417 -0.0936
21362W        W34776  16.803  16.924  11.121 -0.1355 -0.0146  0.1947
21363W        W34777  14.821   0.032  15.699  0.1167 -0.1279  0.0680
21364W        W34778   7.242  13.949   4.318  0.1615 -0.3532 -0.2221
21365W        W34779   9.840  14.127  15.669 -0.1442 -0.3100  0.0742
21366W        W34780   6.707  13.082   1.963 -0.1057  0.1135 -0.1900
21367W        W34781  10.862  10.298   1.060 -0.0629 -0.3665  0.1048
21368W        W34782   9.066   4.699  15.691 -0.1686 -0.1340  0.2054
21369W        W34783   6.529   0.883  12.429  0.1038 -0.1291  0.0819
21370W        W34784   0.982  11.458  10.836  0.2150  0.0128 -0.1452
21371W        W34785   8.414   9.347   0.603  0.0135 -0.0552 -0.1847
21372W        W34786   0.911  11.982   3.133 -0.0641  0.0623 -0.3128
21373W        W34787   9.931   7.382   5.176  0.2354 -0.2969  0.0872
21374W        W34788  17.876  14.340  12.357 -0.1225  0.0184  0.1331
21375W        W34789   2.150  17.294  14.623 -0.1573  0.2363  0.0537
21376W        W34790  14.133  10.572  14.384  0.1003 -0.0957 -0.0412
21377W        W34791   2.082  11.112   2.365 -0.1843 -0.0074 -0.0630
21378W        W34792   3.634  17.135  16.120  0.2647  0.0542 -0.0720
21379W        W34793   6.793  13.473  16.654 -0.1158 -0.2685  0.1171
21380W        W34794   2.773   9.087   5.709  0.1729 -0.2404 -0.2253
21381W        W34795   2.413   9.492  11.782 -0.0986 -0.2262  0.1900
21382W        W34796   3.061   3.542   0.543  0.0799  0.1537  0.0792
21383W        W34797   9.709  16.086  11.574  0.2137  0.0495  0.1770
21384W        W34798  10.572   3.732  15.530  0.0169 -0.0272  0.1241
21385W        W34799   2.429  10.021   5.748 -0.0186 -0.0004 -0.4178
21386W        W34800   5.043  15.730   3.382  0.1667 -0.0763 -0.2471
21387W        W34801  16.692  15.139   6.382  0.0991  0.0515 -0.1875
21388W        W34802  17.699  12.828  14.170  0.3658  0.3351  0.2338
21389W        W34803   1.794   4.822  13.861 -0.2420  0.0080  0.1120
21390W        W34804  12.298  11.032   5.776 -0.1722  0.1721  0.0732
21391W        W34805   0.021   2.051   3.875 -0.3301  0.1085 -0.0956
21392W        W34806   0.996   8.149   1.019  0.1130 -0.0960 -0.1396
21393W        W34807   3.502  14.659   3.722  0.2806 -0.3579 -0.2323
21394W        W34808   2.560  16.492  12.250 -0.2330 -0.0255  0.1715
21395W        W34809  10.632   3.578   4.033  0.0347  0.0934  0.1782
21396W        W34810  17.399  12.434  11.699  0.2613  0.0783 -0.0659
21397W        W34811  12.032  16.028  11.892  0.0154 -0.0551  0.0250
21398W        W34812   0.804   1.573   1.012  0.0679  0.3478  0.3452
21399W        W34813  10.808  10.873   1.858  0.1093 -0.4767  0.0732
21400W        W34814  15.761   9.161   6.102  0.0115  0.1260  0.1792
21401W        W34815  13.118   7.917  16.455  0.0090 -0.0366  0.1047
21402W        W34816  16.075   2.644   2.670  0.2219  0.3025  0.2058
21403W        W34817   0.804  17.509   6.122  0.0246  0.0599 -0.0693
21404W        W34818   8.931   7.704  11.763 -0.0825  0.1522 -0.0613
21405W        W34819   5.722  12.011  16.521 -0.0998  0.0618  0.3102
21406W        W34820   2.467   2.291   3.227 -0.1340 -0.1089 -0.0886
21407W        W34821   5.344   6.335  15.774 -0.3374 -0.0424  0.0369
21408W        W34822  16.750  13.507   5.101 -0.4149 -0.0173 -0.4602
21409W        W34823  15.811   0.390  13.972 -0.0594 -0.2182  0.1059
21410W        W34824   7.208  12.775  11.799  0.0072 -0.2884 -0.0730
21411W        W34825  14.484   5.326  13.553 -0.0477 -0.0380  0.1862
21412W        W34826   7.297  10.747  11.191 -0.1584  0.1141 -0.2975
21413W        W34827  10.861   3.822  15.948  0.1818 -0.1554 -0.1898
21414W        W34828   2.834  14.449  15.899 -0.0430  0.0768 -0.1270
21415W        W34829   7.096  10.122  12.707 -0.0357 -0.0097 -0.2387
21416W        W34830   7.731  13.374   1.789  0.0128 -0.0440 -0.1626
21417W        W34831  10.423  12.001   6.449 -0.2947 -0.1405 -0.0838
21418W        W34832  15.582  15.555  11.194 -0.1613 -0.0885  0.3240
21419W        W34833  17.975   7.819   0.017  0.4441 -0.0806  0.2597
21420W        W34834  12.015  14.552   5.808  0.2102 -0.1387 -0.0247
21421W        W34835   5.666  17.818  13.029 -0.0433 -0.2438  0.3122
21422W        W34836   1.430   0.465   5.567 -0.1359 -0.1078  0.1976
21423W        W34837   0.865   1.999   1.304 -0.0572  0.0858  0.3444
21424W        W34838   3.984   4.295  13.652  0.2687  0.1859  0.0669
21425W        W34839  14.745  17.037   1.755 -0.1184 -0.1137  0.2339
21426W        W34840   6.869   7.705   0.196 -0.0572 -0.0047 -0.1097
21427W        W34841   0.082  14.494  14.826  0.1471  0.1918 -0.3803
21428W        W34842   4.123  12.528   6.616 -0.0598 -0.0372 -0.0943
21429W        W34843  12.505  16.227  12.531 -0.1246  0.5023 -0.2225
21430W        W34844   0.069   4.878  14.998 -0.1218 -0.0098  0.2588
21431W        W34845   0.722  11.216   0.796 -0.0924 -0.3507  0.1691
21432W        W34846   3.400  13.118  14.037 -0.3315  0.1091  0.0460
21433W        W34847  17.142   7.766   4.790 -0.1878 -0.1295 -0.2577
21434W        W34848   9.610   6.995   4.248  0.2662 -0.0417 -0.1581
21435W        W34849   2.418  17.066  10.833  0.2067  0.5116 -0.0151
21436W        W34850  12.467   6.730   0.173  0.0182  0.2899  0.1455
21437W        W34851  15.842   6.186   5.042  0.0546 -0.0697 -0.4244
21438W        W34852   3.201   1.099   1.018 -0.0724 -0.4072  0.0790
21439W        W34853  17.915   3.677   0.990 -0.2756 -0.2355  0.1559
21440W        W34854  13.714  11.264   0.481  0.0479  0.0185  0.1227
21441W        W34855  12.505   0.594  16.458 -0.1256 -0.0968 -0.0570
21442W        W34856   8.895  12.711  15.455 -0.2508 -0.0679  0.3220
21443W        W34857   1.426   3.377   0.908 -0.3008 -0.2039  0.2746
21444W        W34858  12.574   3.776  10.712  0.0109  0.1996 -0.2358
21445W        W34859   2.307   6.018   4.855 -0.0258 -0.0115  0.0943
21446W        W34860  10.477  13.568  10.979 -0.1208 -0.0128 -0.0088
21447W        W34861   2.712  15.097   5.174 -0.0856  0.0268 -0.0799
21448W        W34862  15.718  16.330   2.275  0.1745 -0.4913  0.0949
21449W        W34863   2.730  16.726  11.506  0.1580 -0.0511  0.1838
21450W        W34864  13.658   5.266  15.206  0.2101  0.1311  0.1295
21451W        W34865   6.432   7.403  11.491 -0.0118 -0.1220 -0.0352
21452W        W34866  17.997   8.291   0.303  0.0404  0.0936 -0.0185
21453W        W34867   9.103   0.477   1.952 -0.2025 -0.3656 -0.0877
21454W        W34868  10.355   4.899  15.114 -0.0657  0.2424 -0.1516
21455W        W34869  14.952  11.362  16.356 -0.2385  0.0265 -0.0676
21456W        W34870   2.640  15.775  14.743 -0.3084  0.2091 -0.1508
21457W        W34871   9.980   0.579   2.867  0.2941 -0.1602 -0.2074
21458W        W34872   0.857   1.605   3.859 -0.1764 -0.0716 -0.0369
21459W        W34873  12.709   8.413  11.933 -0.0572 -0.0283  0.4763
21460W        W34874   6.592   8.999   6.935  0.0889 -0.0967 -0.0754
21461W        W34875  17.974   4.597   2.170 -0.1721  0.0606  0.1145
21462W        W34876  11.873  15.665  16.352  0.0460 -0.2811 -0.0240
21463W        W34877   3.923   2.861  13.685  0.2558  0.2797  0.1095
21464W        W34878   0.750  17.509  15.909 -0.2740 -0.2639 -0.2402
21465W        W34879  11.972   3.175  12.443  0.4328  0.0398 -0.1066
21466W        W34880  16.003  13.076  12.172  0.0024  0.4589  0.1286
21467W        W34881  15.513   9.838   6.247 -0.0684 -0.0519 -0.3212
21468W        W34882   6.245   9.965  14.636  0.0198 -0.1886  0.0991
21469W        W34883  17.147   5.619  12.011  0.1161 -0.1853  0.2001
21470W        W34884   9.887   5.865   5.941  0.1920  0.2664 -0.0382
21471W        W34885  15.514  15.282   3.032 -0.0931 -0.3088  0.1227
21472W        W34886  11.539   9.817  10.826 -0.2495  0.0184  0.0241
21473W        W34887  17.971  10.108  13.658  0.1421  0.0185 -0.1913
21474W        W34888  12.676   1.661  12.997 -0.1249 -0.1212 -0.0335
21475W        W34889   2.689   8.423   0.532  0.2159 -0.1962  0.1185
21476W        W34890   9.315  14.471  14.425 -0.0177 -0.3122  0.2534
21477W        W34891  10.294  13.964  11.182 -0.0202  0.0611 -0.4102
21478W        W34892   5.977  15.581  14.302 -0.2213 -0.1294  0.0429
21479W        W34893   8.848   3.258   5.275  0.2602  0.2174  0.0095
21480W        W34894  10.348   6.635   2.121  0.0323 -0.0969  0.0489
21481W        W34895   8.098   5.106   4.615 -0.0002 -0.4728  0.0844
21482W        W34896   5.931  10.167   1.031 -0.0562 -0.0901 -0.2909
21483W        W34897  12.975   5.297   3.634 -0.1482 -0.0534 -0.0849
21484W        W34898   1.735  13.343   0.863  0.2651  0.2124 -0.0372
21485W        W34899  15.643  17.549   3.284 -0.1287 -0.3512 -0.3282
21486W        W34900   3.567  16.958  15.109 -0.0846  0.2140  0.0491
21487W        W34901   9.079  11.738   4.053 -0.0516 -0.3175  0.3511
21488W        W34902   7.084   9.893  15.089 -0.0908  0.1427  0.0173
21489W        W34903  16.476   6.681  10.526  0.2422 -0.4709 -0.2622
21490W        W34904  16.688   0.494   4.507 -0.2208  0.0974  0.1213
21491W        W34905  17.177  10.637   3.086 -0.0317  0.1280  0.1489
21492W        W34906  16.303  14.707   4.976  0.4184 -0.4092 -0.1171
21493W        W34907   3.816   4.248  13.178 -0.0045  0.3991  0.1396
21494W        W34908  12.869   1.114  15.300 -0.2502  0.2549  0.0228
21495W        W34909  13.300  12.796  12.594 -0.3512  0.0320  0.1821
21496W        W34910  11.626   2.650   3.413 -0.1855 -0.0691 -0.1683
21497W        W34911  11.373   5.310  10.743 -0.2008 -0.1822  0.2535
21498W        W34912   3.903   7.835   1.796  0.0304  0.0389  0.0993
21499W        W34913  16.315  13.206   1.296  0.0609  0.0223 -0.3311
21500W        W34914  15.095  13.315   3.867  0.0026  0.1130 -0.2522
21501W        W34915  11.765   8.398   2.725  0.2113  0.0299  0.0338
21502W        W34916   0.951   9.801   1.262  0.1613  0.0791 -0.0624
21503W        W34917  11.407  15.681  14.896 -0.0251  0.2188 -0.1353
21504W        W34918  16.244  17.872   5.015 -0.1393 -0.0743 -0.3024
21505W        W34919  11.111  11.893   4.996  0.1986 -0.2870  0.0005
21506W        W34920  14.858  12.306  13.038 -0.2408 -0.0420  0.0863
21507W        W34921   0.063   3.926   5.671 -0.0767  0.1377  0.0508
21508W        W34922  13.577  17.027   3.821 -0.0176 -0.0708 -0.1121
21509W        W34923  16.206   7.095  13.430  0.0155  0.0203 -0.2122
21510W        W34924   6.440   1.292  14.008 -0.2160 -0.1766  0.1523
21511W        W34925   2.495  17.169   4.902 -0.2613 -0.1566 -0.0309
21512W        W34926   8.826   4.380  10.730 -0.0024 -0.0896 -0.1930
21513W        W34927   3.703  17.774   2.110 -0.0353 -0.0538 -0.0570
21514W        W34928   8.820   2.742   9.733 -0.0499 -0.1694 -0.1037
21515W        W34929   1.644   1.864  13.851 -0.2201 -0.0837 -0.0207
21516W        W34930   4.719  17.014  11.408 -0.1198  0.2897  0.2028
21517W        W34931   1.406   6.124   1.998 -0.1739  0.0298 -0.3193
21518W        W34932  12.098   5.540  13.380  0.1636 -0.2207  0.5919
21519W        W34933   6.787  12.254   2.989 -0.0832  0.0323 -0.1400
21520W        W34934  17.101   3.580  14.447  0.0649 -0.0808 -0.0076
21521W        W34935  10.921   3.623  12.672 -0.3292 -0.2524  0.1682
21522W        W34936   3.204  12.508  11.854  0.1470  0.0890  0.3005
21523W        W34937  13.570   6.799   4.401 -0.0721  0.0350 -0.0816
21524W        W34938  10.628   6.018  13.210 -0.0177  0.0608 -0.1587
21525W        W34939   7.288   9.745  12.382  0.1708  0.0457 -0.1583
21526W        W34940  10.625   0.693  11.394  0.0806  0.2210 -0.3928
21527W        W34941   7.655   4.565   1.012 -0.0118  0.1748  0.0358
21528W        W34942   2.308   5.070   5.332  0.1336  0.1732 -0.2384
21529W        W34943   0.938   5.225  11.435 -0.3169 -0.3469  0.1280
21530W        W34944   6.635   7.227  11.895  0.3062 -0.0441 -0.1014
21531W        W34945   7.953   4.408  14.919  0.2935 -0.1480  0.0522
21532W        W34946  11.373   8.646   5.032 -0.0852  0.3262 -0.0852
21533W        W34947   5.309  16.977   4.099 -0.2521  0.3481 -0.3540
21534W        W34948  17.868   6.950  16.497  0.0862  0.0039 -0.0960
21535W        W34949   5.626   2.604   0.138 -0.0974  0.2438  0.1741
21536W        W34950   0.381   4.986   2.283  0.0243 -0.1390 -0.0281
21537W        W34951   8.877   2.693  16.552  0.1992  0.0194 -0.0615
21538W        W34952   2.708   4.356   0.420  0.1072 -0.1543  0.2408
21539W        W34953  16.697   7.977  12.810 -0.3423 -0.4473  0.1968
21540W        W34954   9.349  14.575   4.198 -0.1368  0.0375  0.1693
21541W        W34955   2.365  14.783   4.858 -0.1707 -0.0455  0.0103
21542W        W34956   4.893  12.648  12.932  0.0636  0.0592  0.1419
21543W        W34957   4.695   3.969  12.155  0.0933 -0.4633 -0.0016
21544W        W34958   8.831   5.427  14.468  0.0786  0.0879  0.1054
21545W        W34959  15.586   0.997   2.065  0.1391  0.0639  0.1497
21546W        W34960  13.696  12.246   4.331 -0.4808 -0.2483 -0.0050
21547W        W34961  12.135   4.925  15.167  0.1064 -0.2913 -0.0408
21548W        W34962  12.063   7.808   5.832  0.0875 -0.0639 -0.2905
21549W        W34963   3.276   3.853  16.512  0.4139 -0.0920 -0.3300
21550W        W34964  10.862   0.962  16.371  0.0611  0.1023 -0.0197
21551W        W34965  11.339   4.263   4.289 -0.0319  0.0528 -0.1152
21552W        W34966  11.309   3.063  15.745 -0.1578  0.0660  0.0348
21553W        W34967   6.159  15.118  16.325 -0.2671  0.1061 -0.4019
21554W        W34968   9.423  15.169   5.000  0.1122  0.0855  0.2705
21555W        W34969  11.273   4.051  15.704  0.0017 -0.0518 -0.4655
21556W        W34970  11.210  10.836   0.406  0.1283 -0.1374  0.4285
21557W        W34971   5.434  11.966   3.157 -0.2759  0.0286  0.0553
21558W        W34972   5.930   4.071  14.923  0.1087 -0.1510 -0.1152
21559W        W34973   8.064   0.208   2.588  0.0182 -0.1140  0.1885
21560W        W34974  12.757  17.755  12.642  0.0251  0.1440 -0.1138
21561W        W34975  16.137   8.232   5.108  0.0311  0.2186 -0.2093
21562W        W34976  14.834   8.213   6.735 -0.0999  0.1270 -0.1788
21563W        W34977   0.442   0.540  13.840 -0.0179 -0.2075 -0.0944
21564W        W34978   3.583   5.126  12.273 -0.3204 -0.0882 -0.1954
21565W        W34979  15.290   4.657   1.424  0.2428  0.1196  0.1817
21566W        W34980  16.063   9.184  15.124 -0.2441  0.0414  0.4268
21567W        W34981  10.876  13.374  14.976  0.1644 -0.0697 -0.2304
21568W        W34982   1.474  10.202  11.574  0.0522 -0.0798 -0.2028
21569W        W34983   9.973   1.215   1.946 -0.0615 -0.0174 -0.1524
21570W        W34984   0.689  16.924  12.029  0.0204 -0.0048  0.1854
21571W        W34985   7.450   4.723   3.373  0.3770 -0.1891  0.1777
21572W        W34986  16.272   1.580  12.517  0.0466 -0.1625  0.1505
21573W        W34987   1.354   9.320  15.776  0.2245 -0.1055 -0.2831
21574W        W34988   1.989  10.533   0.741 -0.0442  0.3761  0.1894
21575W        W34989   9.672   4.521   2.153 -0.1206  0.0591  0.2506
21576W        W34990   1.055  16.554  12.813 -0.1226 -0.1082 -0.0776
21577W        W34991  10.571  13.430   3.875 -0.1098 -0.0628 -0.2901
21578W        W34992   5.057  12.515   0.966 -0.0660 -0.1177 -0.0635
21579W        W34993  15.073   8.491  13.132  0.2510 -0.3833 -0.0440
21580W        W34994  15.370  17.136   2.498  0.0002  0.1558 -0.0810
21581W        W34995   2.203   5.543   4.609  0.0864  0.0222 -0.3458
21582W        W34996   3.710   4.942   5.311 -0.0302 -0.0401  0.0301
21583W        W34997   8.195  13.469   0.504  0.0216  0.0102  0.3005
21584W        W34998  10.206   1.330   1.499  0.0174 -0.0123  0.1820
21585W        W34999  16.785  13.318  16.389  0.1172 -0.0219 -0.1634
21586W        W35000   8.230   6.526   3.659  0.1900 -0.0640  0.0626
21587W        W35001   3.267   5.462  13.716  0.0607 -0.2037 -0.3419
21588W        W35002  11.099   7.046   3.407  0.1712 -0.1464 -0.1273
21589W        W35003  14.248   9.084   4.423 -0.0331 -0.0539 -0.0634
21590W        W35004  11.673   3.449  13.199  0.1433 -0.1652  0.0246
21591W        W35005  16.226  11.562   2.728  0.1862 -0.0560  0.2437
21592W        W35006   4.191  17.459   0.611  0.2427 -0.0939  0.0111
21593W        W35007  11.472   8.243  15.420  0.0888 -0.0702 -0.0548
21594W        W35008   9.058   7.324  14.852 -0.2335  0.0069 -0.0730
21595W        W35009  16.087  11.566   0.319 -0.2671  0.0877  0.2686
21596W        W35010   9.161   0.541  15.847  0.3851  0.3158  0.1335
21597W        W35011   9.706   8.561   1.465 -0.1531  0.2225  0.1220
21598W        W35012   1.673   2.576  14.880 -0.0228 -0.1578  0.0535
21599W        W35013  17.427   1.822   0.529 -0.2001  0.0386  0.1066
21600W        W35014   6.749   5.245   4.352 -0.0601  0.1770  0.2217
21601W        W35015   3.508   8.818  12.838  0.0235  0.1765  0.0999
21602W        W35016   0.871   0.034   3.513  0.1344  0.2047 -0.1633
21603W        W35017   6.316   7.528  10.956 -0.4371 -0.3399 -0.1866
21604W        W35018  11.979   7.236   2.912 -0.2573  0.2275  0.0452
21605W        W35019  11.722   5.198  14.163 -0.1906 -0.0055  0.1146
21606W        W35020  11.375   9.228  12.758 -0.2487  0.2246  0.1382
21607W        W35021   1.197  11.920   1.409  0.4077  0.1298  0.1169
21608W        W35022  17.820  11.652   4.694  0.0682  0.1156 -0.2637
21609W        W35023  16.890  13.678  14.370 -0.1555 -0.1648  0.3044
21610W        W35024  12.945   7.375   2.880 -0.1248 -0.3162  0.2489
21611W        W35025  11.525   2.495   2.187  0.1197 -0.0138  0.1285
21612W        W35026   3.166   5.583  11.715  0.0385 -0.1707 -0.1763
21613W        W35027  11.192   6.766   5.334 -0.1286 -0.0046 -0.0400
21614W        W35028  15.802  11.169   0.626  0.0694  0.1737 -0.0278
21615W        W35029   3.819  10.170   3.547 -0.0985 -0.1132 -0.1727
21616W        W35030   0.431  14.454   6.236 -0.2838 -0.0250  0.0592
21617W        W35031   9.178   8.172   1.091  0.2126  0.0259 -0.2262
21618W        W35032   7.189   6.462  10.755  0.3474 -0.2848 -0.0557
21619W        W35033  10.434  10.458   4.921  0.0484  0.1293  0.0606
21620W        W35034   8.838   4.834   5.876  0.0631  0.0188 -0.0014
21621W        W35035   3.352   3.235   1.620  0.2499 -0.1763 -0.1850
21622W        W35036  14.155   1.780  15.654 -0.2051  0.2764  0.2645
21623W        W35037   3.989  12.865   3.760  0.3723  0.2526 -0.1029
21624W        W35038   8.294   9.017   2.033  0.2706 -0.5101 -0.3032
21625W        W35039   8.684   3.269   3.947  0.0003 -0.1770 -0.3160
21626W        W35040   6.555  13.621  16.188  0.2761 -0.1219  0.0170
21627W        W35041   0.900   9.811   3.135 -0.3718 -0.1178 -0.2410
21628W        W35042  11.890  17.083  10.981  0.1456 -0.0228  0.0187
21629W        W35043   9.350   0.771  11.950  0.0168 -0.0038 -0.2903
21630W        W35044   8.512  17.314  11.035  0.1723  0.0190  0.0790
21631W        W35045  16.313   4.454  11.305  0.1562  0.1863  0.1920
21632W        W35046   2.340   7.053  15.474  0.2629 -0.1270  0.4304
21633W        W35047  17.604   1.111  14.142 -0.1593 -0.1813  0.0606
21634W        W35048   7.912   6.814  10.838 -0.2257  0.2375  0.0170
21635W        W35049  15.179  11.330  13.048 -0.4679  0.4112  0.1021
21636W        W35050  16.309  11.835  13.184 -0.1700 -0.1196 -0.0277
21637W        W35051  12.770   6.464  11.417  0.0950 -0.0130 -0.0105
21638W        W35052   6.882  15.420  10.997 -0.1354 -0.0011 -0.2860
21639W        W35053   4.678   0.452   4.813 -0.0542 -0.3974 -0.0838
21640W        W35054  12.363   0.772   4.716  0.0350 -0.0035  0.1691
21641W        W35055  16.485  10.859  16.008 -0.0742  0.3469  0.0898
21642W        W35056  16.531  17.432   4.188 -0.0523  0.1271  0.0276
21643W        W35057  15.896   8.676   1.335 -0.2562 -0.2273  0.0886
21644W        W35058   0.064   8.178  14.548 -0.1707  0.0337  0.2068
21645W        W35059   4.108   8.666   5.823  0.0703 -0.0040 -0.1370
21646W        W35060  17.504   0.487   0.804 -0.0367  0.2155 -0.0319
21647W        W35061  11.722   2.206   0.886 -0.0807 -0.3102 -0.3511
21648W        W35062  15.204   3.547   1.764 -0.0885 -0.2202  0.1021
21649W        W35063  15.512   2.852  14.548  0.1143  0.3203 -0.2451
21650W        W35064   9.373   2.031  10.003 -0.2531 -0.1095 -0.1224
21651W        W35065   1.813  17.407   5.607  0.3181 -0.1365  0.3712
21652W        W35066  15.281   5.500   1.400  0.0902  0.2146  0.2136
21653W        W35067   5.683   1.772   9.770 -0.0314 -0.0418 -0.1260
21654W        W35068  10.063   2.251  10.758  0.0673  0.0948  0.2913
21655W        W35069   5.217  11.168   1.642  0.1622  0.0244 -0.0581
21656W        W35070  14.667   6.917   0.461  0.1871  0.2094  0.1269
21657W        W35071  14.871  17.351   5.010  0.1838 -0.0109 -0.1915
21658W        W35072   6.949  12.219  12.949 -0.3188  0.1265 -0.0626
21659W        W35073  12.913  12.650  15.036 -0.3145  0.0062  0.2307
21660W        W35074  17.308   0.205   4.145  0.3223  0.1977  0.0920
21661W        W35075   2.441  17.769  12.900  0.0739 -0.2480  0.2283
21662W        W35076   9.242   8.895   3.761 -0.2101  0.1578 -0.2315
21663W        W35077  13.923   9.253   6.412  0.0390  0.0350 -0.0090
21664W        W35078   4.703   7.233  15.611  0.2143 -0.1718 -0.2351
21665W        W35079   8.997  12.744   6.244 -0.1116 -0.1844  0.1002
21666W        W35080   1.532  15.828   1.088 -0.1990 -0.1283 -0.2232
21667W        W35081  16.977   0.087   1.481 -0.1388  0.3107  0.0233
21668W        W35082   4.722   4.079  11.324  0.1192 -0.0668  0.0451
21669W        W35083  12.831  15.623   1.437 -0.1829 -0.3784  0.0760
21670W        W35084   9.032   6.580  13.120 -0.2185  0.0380  0.2066
21671W        W35085   5.281  13.907  11.710 -0.1222 -0.0142  0.0217
21672W        W35086  14.385  13.420  13.744 -0.1180 -0.0619  0.1990
21673W        W35087  15.814   3.753  12.492  0.0786 -0.1940  0.0152
21674W        W35088  16.516  16.130   1.756  0.0259  0.1669 -0.4729
21675W        W35089  10.096   5.620  13.795 -0.0952  0.2382  0.2204
21676W        W35090   3.530   4.154  15.802  0.1156  0.4944  0.1936
21677W        W35091   5.636  13.632  11.433  0.0572 -0.0546 -0.2156
21678W        W35092   8.669  10.232  13.901 -0.3967 -0.0581 -0.0620
21679W        W35093  12.096  10.875  12.898  0.0783 -0.3298 -0.1630
21680W        W35094  15.310   0.078   5.788  0.1539 -0.1162 -0.0998
21681W        W35095  16.316  17.983   2.298 -0.1240  0.0080  0.0036
21682W        W35096  15.870   1.971  16.469 -0.5640 -0.1567  0.1125
21683W        W35097  13.014   9.465  13.947  0.0879  0.2206 -0.1742
21684W        W35098  13.489   6.547   2.072 -0.1586 -0.1029 -0.0227
21685W        W35099   6.101   6.600  11.325  0.1843  0.0406 -0.2137
21686W        W35100   4.718   1.655   0.955 -0.0038 -0.1152  0.2738
21687W        W35101   7.978   7.430   0.916  0.1402 -0.1716  0.1613
21688W        W35102   0.923  15.429   0.458  0.0822 -0.0695 -0.0891
21689W        W35103  10.798   6.033  16.104 -0.1307  0.0713  0.0224
21690W        W35104  11.079  14.470   1.491  0.1887  0.1026  0.0897
21691W        W35105   0.156   0.482  11.243  0.2854  0.0340 -0.1184
21692W        W35106   9.886   9.452  15.952 -0.0631  0.1550 -0.1464
21693W        W35107  17.195   1.159  16.100  0.0851 -0.4922 -0.1156
21694W        W35108   1.696   0.521  13.275  0.1933  0.3494 -0.5091
21695W        W35109   7.535   2.698  12.131 -0.1043  0.2143 -0.4665
21696W        W35110   3.541   5.269   6.073  0.2254 -0.0292  0.0027
21697W        W35111   7.522   5.394   3.737 -0.2144 -0.1959 -0.0041
21698W        W35112  13.685  14.328  15.208  0.1381 -0.0385  0.3924
21699W        W35113   3.890  12.151  13.560 -0.1155 -0.2355 -0.0977
21700W        W35114   9.302   1.237   3.105 -0.0084  0.1660 -0.0847
21701W        W35115  16.304   3.937  12.348 -0.1853  0.2799  0.2771
21702W        W35116  12.652  15.231   0.103  0.0265  0.2048  0.1201
21703W        W35117  12.935  13.928  16.457  0.0135  0.2042 -0.2411
21704W        W35118  16.517   7.306  10.969  0.1783  0.2430  0.1986
21705W        W35119  16.912   7.461  10.173  0.0325 -0.0521 -0.0762
21706W        W35120  11.815  12.406  15.142  0.1644 -0.1629  0.2937
21707W        W35121   7.583   2.166   1.865 -0.0212 -0.2448 -0.1417
21708W        W35122   0.352   9.246  12.684  0.1460 -0.0273  0.0172
21709W        W35123  15.071   4.299  15.837 -0.2363  0.0342 -0.0001
21710W        W35124  14.754  12.803   6.145  0.1983  0.0144  0.0843
21711W        W35125  12.030   0.774   1.052  0.0491 -0.3276 -0.3948
21712W        W35126  12.056   1.592  16.272  0.3327 -0.1163 -0.0477
21713W        W35127   9.461   1.720   3.188  0.2045 -0.2596 -0.1664
21714W        W35128  11.903  13.266   3.061 -0.1416 -0.2323 -0.3446
21715W        W35129   2.597  13.502   4.147  0.0416  0.0368 -0.1141
21716W        W35130  16.467  17.566   1.962 -0.0559  0.1486 -0.1085
21717W        W35131   1.741   5.432   0.245 -0.1689  0.1483  0.1822
21718W        W35132   6.566  16.022   5.881 -0.1490 -0.0152 -0.0447
21719W        W35133   1.652   7.634   1.984 -0.0564 -0.0482  0.0538
21720W        W35134  12.276  10.725  13.304 -0.0814 -0.2699 -0.1154
21721W        W35135   8.028   8.043  14.899 -0.0570 -0.2128  0.0525
21722W        W35136  12.436  17.348  14.955 -0.1958 -0.1348 -0.3605
21723W        W35137   6.463   6.718  16.477 -0.1660  0.1054 -0.0319
21724W        W35138   1.971  11.186   1.359 -0.0666 -0.1154  0.1121
21725W        W35139  14.540  15.892  12.182  0.0100 -0.1523 -0.0235
21726W        W35140   2.607   0.830   3.948 -0.0944  0.1525 -0.0112
21727W        W35141  10.066   7.735  13.939  0.3251  0.1043  0.2283
21728W        W35142  12.729   1.176   5.535 -0.4957  0.0393  0.1383
21729W        W35143  13.737  13.210  14.314 -0.1314  0.0061  0.1385
21730W        W35144   9.070  13.267   3.957  0.1673 -0.2740  0.1043
21731W        W35145  12.841   2.249  14.550  0.2611 -0.0136 -0.1482
21732W        W35146   2.902  11.200  11.287 -0.3101  0.1713  0.1857
21733W        W35147  10.697  14.466   2.198 -0.0055  0.0289  0.1387
21734W        W35148  15.987   9.417  13.383 -0.1349  0.2231 -0.1050
21735W        W35149   5.156   3.553   4.189 -0.2047 -0.0370  0.2210
21736W        W35150  15.100  17.978   2.672  0.1245  0.2580 -0.0960
21737W        W35151  13.868   8.529  11.538  0.1344  0.0174 -0.5039
21738W        W35152   6.140   3.201  12.755 -0.1819 -0.1032 -0.0653
21739W        W35153   0.304  14.085  15.542 -0.2211  0.1177  0.0393
21740W        W35154  11.033   3.554   0.077  0.2026 -0.3311  0.0507
21741W        W35155   0.349   3.231   5.364 -0.1103  0.4743 -0.2786
21742W        W35156   5.078   4.595  14.400 -0.0763 -0.0666 -0.0499
21743W        W35157   2.298  11.378  14.271 -0.1515  0.2147 -0.2106
21744W        W35158  15.231   1.247   2.853 -0.0164  0.0227 -0.0689
21745W        W35159  17.311  14.526   0.779  0.0566  0.1436  0.0638
21746W        W35160  17.561  12.763  16.657 -0.2731 -0.0975  0.0498
21747W        W35161  14.796  13.911   4.072  0.1574 -0.1781 -0.2764
21748W        W35162   5.079  16.337   2.436 -0.1676 -0.0796 -0.2967
21749W        W35163  10.958   1.339  10.304  0.3283  0.0170  0.1697
21750W        W35164  10.780   5.768   3.203 -0.1588  0.0677  0.2572
21751W        W35165  15.300   3.705   2.845 -0.0939 -0.1962 -0.0287
21752W        W35166   0.320   1.008  12.920  0.1609 -0.0878  0.0601
21753W        W35167  10.834  13.031   6.072  0.2328  0.1511  0.0078
21754W        W35168  15.186   5.946   3.129  0.0171 -0.1992 -0.1308
21755W        W35169   8.577  11.224   2.885 -0.0407 -0.2363  0.1783
21756W        W35170  17.383  13.513   9.742  0.2394 -0.1413 -0.0382
21757W        W35171   1.654   3.926   5.008 -0.2169  0.2414 -0.0174
21758W        W35172   4.247   7.070  14.825  0.1260  0.0306  0.1040
21759W        W35173  10.153  13.275  15.500 -0.0499 -0.0226 -0.0194
21760W        W35174  11.448   8.643   3.571  0.0913  0.0245 -0.2988
21761W        W35175  10.933  12.497   5.866 -0.4133 -0.1660  0.0739
21762W        W35176   7.730   4.277  13.494  0.0516  0.1043 -0.0408
21763W        W35177   1.236   0.746  13.397  0.2384 -0.2234  0.0858
21764W        W35178  13.270   7.312  10.866  0.1388  0.2592  0.0403
21765W        W35179   4.727  15.045  12.320 -0.3494 -0.2126  0.0445
21766W        W35180   1.263  11.463   5.548  0.3224 -0.0126 -0.0766
21767W        W35181   2.983  10.517   5.542 -0.1247  0.3935  0.4296
21768W        W35182   4.645   9.489   3.764  0.1400 -0.0901  0.0210
21769W        W35183   0.178  17.857   0.456 -0.1190  0.0269 -0.0625
21770W        W35184   7.932   0.784   4.735  0.0218  0.0849 -0.0321
21771W        W35185   5.449   6.456  15.228 -0.0101 -0.3505  0.0042
21772W        W35186   6.034   4.082   3.385  0.1199  0.0692  0.2781
21773W        W35187   5.044   4.279  15.137 -0.0195 -0.0573 -0.0913
21774W        W35188  17.674   6.138   5.725  0.1536 -0.2458  0.2207
21775W        W35189  11.462  11.777   0.478  0.3012  0.1595 -0.2199
21776W        W35190  17.452   1.697  16.764  0.0629  0.1622 -0.0698
21777W        W35191   6.645  11.446  14.839 -0.0642 -0.1446  0.1090
21778W        W35192  14.583   8.083  13.770  0.0331  0.0590 -0.2199
21779W        W35193   2.616   2.913  13.786 -0.2544 -0.1670  0.0886
21780W        W35194  14.358  14.050   4.765  0.0579  0.4020  0.1023
21781W        W35195   5.791   7.016   2.071  0.0605  0.5696 -0.2152
21782W        W35196   8.717  17.156  15.480 -0.0776 -0.2199 -0.3334
21783W        W35197   5.018  11.927   0.105 -0.2061  0.1626  0.1034
21784W        W35198  15.822   6.613   5.393 -0.0325  0.0008  0.4588
21785W        W35199   9.793   2.765  16.322  0.2653  0.2867  0.1513
21786W        W35200   2.676   5.360  15.945  0.5616  0.1760 -0.0609
21787W        W35201  11.727  13.237  12.456  0.2903 -0.1623  0.2876
21788W        W35202  14.553  11.277   5.188  0.3869 -0.0624 -0.0407
21789W        W35203  17.058   8.115   1.276 -0.1877 -0.1562 -0.0887
21790W        W35204   3.584   3.129   3.661 -0.0659  0.2468  0.1089
21791W        W35205  10.833  17.813  12.102 -0.0838  0.0883  0.0884
21792W        W35206   5.589   6.757  11.316 -0.1034 -0.2095  0.2512
21793W        W35207  12.400   9.910  16.270 -0.1580  0.0845  0.3631
21794W        W35208  16.105   0.708  12.446 -0.2060 -0.0115 -0.2909
21795W        W35209   7.880   4.824   3.134  0.3639  0.1470  0.0462
21796W        W35210  10.255  16.454   4.698 -0.0441  0.2625  0.0623
21797W        W35211  17.886  16.333   1.467 -0.1004  0.1230 -0.0588
21798W        W35212  17.499   9.257  13.680  0.2771 -0.2663 -0.2446
21799W        W35213   5.426   2.628   4.195  0.2252 -0.1208  0.0840
21800W        W35214  15.604   6.534  16.077 -0.0881 -0.1022 -0.0501
21801W        W35215  17.551   4.751   3.111 -0.1764  0.2272 -0.0555
21802W        W35216  11.545  16.728   4.714  0.0528  0.0968 -0.2117
21803W        W35217   7.914   9.627  13.838  0.3876  0.2033 -0.0263
21804W        W35218   6.923   2.597  16.761 -0.4453  0.1513 -0.1298
21805W        W35219   1.037   8.968   1.661 -0.0171  0.0092 -0.1228
21806W        W35220  13.981  12.205  12.873  0.1682  0.1407 -0.0971
21807W        W35221  12.977   1.900  15.313  0.0042  0.4074 -0.1663
21808W        W35222   5.716  13.165   4.141 -0.0177 -0.0588 -0.1150
21809W        W35223  10.798   4.036  12.360 -0.1539 -0.0477 -0.0470
21810W        W35224   0.705   9.721   5.119  0.2472 -0.0032  0.1452
21811W        W35225  13.243  12.724  12.044  0.1541  0.4205  0.0072
21812W        W35226   0.664   2.436   4.574 -0.0057  0.0159 -0.2366
21813W        W35227   7.769   3.157  10.311  0.1068  0.0886  0.1450
21814W        W35228   3.228  17.313   0.875 -0.0470 -0.0387 -0.1978
21815W        W35229   2.446  13.285  13.882 -0.2132  0.1402 -0.0622
21816W        W35230  10.059  16.867   5.954  0.3471 -0.0688  0.0181
21817W        W35231  11.848   2.648  12.739 -0.1944 -0.1433  0.5600
21818W        W35232   9.253   7.224  14.382 -0.2745  0.2874 -0.1984
21819W        W35233   2.464   2.782  13.300  0.0776 -0.0238  0.3147
21820W        W35234  12.260   5.133   2.308  0.2361  0.0178 -0.0029
21821W        W35235   1.114  13.364   4.342 -0.0122 -0.1979 -0.0023
21822W        W35236   5.927  12.724  14.639 -0.2467  0.1954 -0.2177
21823W        W35237  10.427   4.988  10.328  0.0061  0.0085 -0.0645
21824W        W35238   7.128   7.257   0.210  0.2199 -0.0830  0.1154
21825W        W35239  17.445  12.314   5.162 -0.0588  0.2687 -0.0809
21826W        W35240   7.156  17.633  13.430 -0.0016  0.3526 -0.0015
21827W        W35241   9.984   6.098   2.814 -0.2925 -0.1549  0.0552
21828W        W35242   7.262   1.197  10.879  0.1655 -0.0531 -0.1178
21829W        W35243   2.086  13.567   0.098  0.1674 -0.1271  0.0204
21830W        W35244  15.301  10.339   0.628 -0.0622  0.3067 -0.1750
21831W        W35245   4.963   0.248  16.303 -0.2627 -0.0199 -0.1511
21832W        W35246  15.291  11.405  15.828  0.1191  0.1756 -0.2196
21833W        W35247  17.598  15.234   5.242 -0.3002  0.0441 -0.1240
21834W        W35248  13.372   7.136   0.371  0.2128  0.2561  0.1612
21835W        W35249   7.418  12.768  16.730 -0.0566 -0.3572  0.1003
21836W        W35250   1.970  10.312   3.213 -0.1319 -0.0834  0.3194
21837W        W35251  11.331  11.730   4.473 -0.2304 -0.3208  0.0977
21838W        W35252   5.921  11.092   2.180 -0.1974 -0.0061  0.0602
21839W        W35253   0.983  10.152  16.185  0.0798 -0.1180  0.0162
21840W        W35254   8.405   3.825  14.619  0.1774  0.1018 -0.2647
21841W        W35255  13.641   2.312   5.930  0.1947 -0.1520 -0.1044
21842W        W35256  15.757  12.502   0.012 -0.1214 -0.2547  0.2853
21843W        W35257   4.783   5.577   4.756 -0.1141 -0.2568 -0.0911
21844W        W35258  12.589   7.645  12.862 -0.4577 -0.3191 -0.0462
21845W        W35259  14.355  10.107   1.255 -0.1633 -0.1057  0.3157
21846W        W35260  16.694   2.058   3.892  0.2684  0.2044  0.1195
21847W        W35261  15.770  10.121   0.867  0.1223  0.1043 -0.2890
21848W        W35262   5.451  11.000  14.156 -0.0188 -0.3376  0.2239
21849W        W35263  13.305   2.672   3.523  0.1248  0.1464 -0.1354
21850W        W35264  17.751  12.935  13.264 -0.1033  0.1937 -0.3533
21851W        W35265  13.206  12.306  11.204  0.2150  0.2243  0.3174
21852W        W35266  10.318   2.978  12.114 -0.1801 -0.1344  0.0576
21853W        W35267  14.991  14.697  11.470 -0.0623  0.1216  0.0325
21854W        W35268  16.288  16.569   0.487 -0.2708  0.1549 -0.0870
21855W        W35269   7.821   0.644   4.111 -0.2284 -0.0133 -0.1394
21856W        W35270  10.423   6.981   4.833 -0.2109 -0.1319  0.2519
21857W        W35271   9.474  10.161  15.154 -0.2605 -0.0833 -0.3541
21858W        W35272   1.812   4.583   5.656 -0.3041  0.1996  0.2675
21859W        W35273  10.472  10.632   0.327  0.3355  0.2899 -0.0138
21860W        W35274   3.876   5.602   4.010 -0.1949  0.0139  0.2461
21861W        W35275   8.632   4.282   2.249  0.1875  0.0185 -0.1664
21862W        W35276  14.548   0.216   2.500 -0.1026 -0.0534  0.1168
21863W        W35277  13.599  13.233   1.909  0.0537 -0.0144  0.0511
21864W        W35278  17.106   3.376   5.530 -0.0515 -0.0675  0.1390
21865W        W35279   4.789  17.507  12.988 -0.0732  0.1143 -0.0155
21866W        W35280  17.225  16.085   0.218  0.2316  0.0217  0.2887
21867W        W35281  10.759   7.570   2.157  0.2355 -0.3287 -0.0492
21868W        W35282   6.584   2.736  16.426 -0.2579  0.0726  0.1496
21869W        W35283   9.685   3.658  13.301 -0.1332 -0.0204 -0.0055
21870W        W35284  15.180   1.449   5.600  0.0312 -0.1330  0.1445
21871W        W35285  13.391  14.824  15.168  0.1525  0.0542 -0.2626
21872W        W35286   2.450  11.879  14.227 -0.0424  0.2313  0.0534
21873W        W35287   9.583   2.762  10.368 -0.0834 -0.2361  0.0977
21874W        W35288   5.728  14.090   1.722  0.1069  0.0287  0.0067
21875W        W35289  11.426   2.393  11.935  0.0791  0.0763  0.1677
21876W        W35290  14.979  12.134   4.386 -0.3448  0.1003  0.1799
21877W        W35291   4.358   6.935   6.535  0.0686  0.2282  0.0235
21878W        W35292   2.894  10.694  15.053  0.0010 -0.0564 -0.1464
21879W        W35293   2.252  15.159  13.037 -0.1544  0.0137 -0.0981
21880W        W35294   2.229   2.089  16.386  0.0361 -0.1308 -0.1781
21881W        W35295   3.527  10.834   5.912 -0.3953 -0.0826 -0.1409
21882W        W35296  16.093  18.002  16.166 -0.2083 -0.1186  0.0995
21883W        W35297   1.137   5.276  11.923  0.2366  0.2341  0.1244
21884W        W35298  12.687  14.411   3.604  0.1962 -0.1331  0.1429
21885W        W35299   4.259   1.184   0.272 -0.1388  0.4036 -0.1182
21886W        W35300  15.748   9.307   2.785 -0.0518  0.1835  0.2376
21887W        W35301   9.697  15.486   3.260  0.1825  0.2991 -0.0741
21888W        W35302   4.566   6.700   3.843 -0.2856 -0.0139  0.2309
21889W        W35303  11.519  11.326   6.432 -0.0598  0.2119 -0.0200
21890W        W35304  16.210   7.569  13.217 -0.3073  0.0718 -0.0799
21891W        W35305   3.919  12.870   3.225  0.0541 -0.1312 -0.0051
21892W        W35306  15.148   9.506  15.086 -0.0272  0.2146 -0.4386
21893W        W35307   6.530  16.242  11.960 -0.1246  0.0740  0.0109
21894W        W35308   3.939   5.393   1.066 -0.1123 -0.0429  0.1027
21895W        W35309  10.766  16.822  14.789  0.0504 -0.1170  0.1820
21896W        W35310  14.617  17.001   4.722 -0.0295 -0.0924 -0.0198
21897W        W35311   2.793   3.422  14.351 -0.0875 -0.1235 -0.0095
21898W        W35312  13.999  13.231   2.772  0.2837  0.1884 -0.1792
21899W        W35313   0.339   7.725   3.645  0.0198  0.0375  0.1771
21900W        W35314   1.635  16.334  15.478 -0.0989  0.3401  0.0005
21901W        W35315  12.087   7.364   4.891 -0.1776  0.3898 -0.1833
21902W        W35316   5.294   9.889   3.066  0.1233  0.1290 -0.2259
21903W        W35317   6.469  11.773   3.311  0.2735 -0.3338  0.1596
21904W        W35318   5.285   8.041   3.021  0.0854  0.1111  0.2322
21905W        W35319  12.787   9.818  16.575  0.1768  0.1249  0.0081
21906W        W35320   2.281  10.687  12.473  0.1187 -0.2107  0.1187
21907W        W35321  15.157  14.982   0.355  0.0723 -0.0787  0.1462
21908W        W35322   2.617  16.400  16.661  0.1432  0.2083  0.0333
21909W        W35323  11.607   0.756   1.289 -0.0853  0.0398  0.0231
21910W        W35324  12.661  12.910   2.996  0.0398 -0.0046 -0.0567
21911W        W35325  12.695   7.736  13.341 -0.2373  0.1691  0.0810
21912W        W35326  13.632   6.638  13.560  0.0224  0.2753  0.1994
21913W        W35327   1.486  17.538   0.845 -0.2397 -0.1379 -0.0062
21914W        W35328  13.756  10.293  12.126  0.2656 -0.0430  0.1028
21915W        W35329   2.779   5.764   3.280 -0.2278  0.0498 -0.1006
21916W        W35330   4.801  13.342   3.881 -0.2090  0.1212  0.3469
21917W        W35331  14.844  11.527  12.559 -0.1811  0.0738 -0.3622
21918W        W35332   1.827   7.858  11.377 -0.1114  0.0960  0.0277
21919W        W35333   1.841   2.708   3.832 -0.0489 -0.1476  0.1493
21920W        W35334   3.070  11.738  12.972 -0.0879  0.2598  0.2879
21921W        W35335   0.297   7.212   3.743 -0.0934  0.3604 -0.2761
21922W        W35336   8.638   2.051  10.465  0.1783  0.1022 -0.0254
21923W        W35337   3.726   1.147  14.090 -0.0939 -0.2604 -0.2303
21924W        W35338  15.826   2.906   1.560 -0.0931  0.2942 -0.1508
21925W        W35339  11.661  15.551  13.030 -0.3649 -0.1690 -0.1376
21926W        W35340   1.356  15.459  16.358  0.0322 -0.0750 -0.1379
21927W        W35341  10.531   3.559   1.418 -0.0009  0.0357  0.0370
21928W        W35342  14.340   7.671  14.784  0.1593 -0.1377  0.0982
21929W        W35343   7.402  13.469   2.609 -0.3039 -0.0215 -0.1016
21930W        W35344  11.462   7.766  12.491  0.2182 -0.1747  0.0969
21931W        W35345  11.229   5.729  11.114  0.0240 -0.0253  0.1315
21932W        W35346   1.619   9.087   0.797 -0.0542  0.1641 -0.0694
21933W        W35347   3.529   2.459   5.426 -0.0110  0.2313  0.2062
21934W        W35348   1.961   6.338  16.675  0.4786 -0.0421  0.2549
21935W        W35349   8.013   5.376  11.115 -0.2939  0.2326  0.0930
21936W        W35350   6.446  14.523  14.066  0.1765 -0.1671  0.2982
21937W        W35351   2.789   2.392  13.502  0.0055  0.2059 -0.1911
21938W        W35352  12.492   2.981   1.352  0.1031  0.0190 -0.0309
21939W        W35353  17.448   0.562   5.549  0.2972  0.0428  0.0214
21940W        W35354  13.505  17.340  15.680 -0.1314  0.0704  0.1584
21941W        W35355  10.679   1.773   2.954 -0.0311  0.0817  0.0859
21942W        W35356   9.003   5.215  15.493 -0.0146 -0.0489 -0.1114
21943W        W35357   9.982   9.647  13.428  0.1865  0.1552  0.1064
21944W        W35358  12.884  13.012   4.209 -0.0302  0.1807  0.4957
21945W        W35359  13.177   7.750  12.198  0.0866  0.1332 -0.3479
21946W        W35360   6.068   6.206   0.361 -0.2589 -0.2997  0.0507
21947W        W35361  16.872  14.644   1.140 -0.2468 -0.2923  0.1472
21948W        W35362   7.614  10.028  11.054  0.1603 -0.1630  0.0497
21949W        W35363   8.856  10.382   2.263 -0.1678  0.3055 -0.1202
21950W        W35364  17.979  14.172  16.741  0.1781  0.2687 -0.0358
21951W        W35365   6.947  17.775  11.158 -0.1562 -0.1672  0.3450
21952W        W35366  12.939  16.385  14.077 -0.4065 -0.1917 -0.0981
21953W        W35367  15.408   0.330   0.615 -0.0593  0.2304 -0.3320
21954W        W35368   6.013  14.669   2.304 -0.2870  0.4427 -0.0719
21955W        W35369   0.003   6.929  13.999 -0.0463  0.6709  0.0257
21956W        W35370   6.123   4.798  13.021 -0.1349  0.2197  0.1240
21957W        W35371   3.721  12.978   5.623 -0.1119  0.0730  0.0940
21958W        W35372  13.772  17.239  11.058  0.1621 -0.0219 -0.3276
21959W        W35373   1.033   4.089   4.349 -0.0742 -0.2725 -0.0965
21960W        W35374  18.009  17.908   3.026  0.0783 -0.0251  0.2532
21961W        W35375  12.909  16.997  13.683 -0.0309 -0.0899 -0.1293
21962W        W35376   0.844  15.822  14.999 -0.1148  0.2720  0.0670
21963W        W35377   4.873   6.884   0.768 -0.1047 -0.1772 -0.2816
21964W        W35378   0.182   4.879  13.595 -0.2197  0.0421  0.0184
21965W        W35379   0.681   1.667   5.565  0.0313  0.1171  0.0773
21966W        W35380   9.779   8.714   6.094  0.2728 -0.1062  0.1251
21967W        W35381   3.638  15.797  14.967 -0.1414  0.1514  0.1282
21968W        W35382   8.919   7.217   0.269 -0.1070 -0.1080  0.0369
21969W        W35383   1.125  12.408   1.369  0.0640  0.1075 -0.1453
21970W        W35384  15.381  12.360   2.795  0.3025  0.2540  0.1380
21971W        W35385   4.923   3.727   3.826  0.2257  0.0959  0.1890
21972W        W35386   1.579  12.679   3.836  0.0970 -0.0089  0.0597
21973W        W35387   8.709   5.616  10.891  0.0361  0.0952 -0.2797
21974W        W35388  10.481   4.175  13.439 -0.1284 -0.2908 -0.1846
21975W        W35389   0.308   5.828   4.328 -0.1643  0.1787 -0.1798
21976W        W35390   3.388   8.327   3.825 -0.0498  0.0549  0.0673
21977W        W35391   1.857  11.774   4.336 -0.0638 -0.0434  0.3491
21978W        W35392   3.883  14.533  11.988  0.0852 -0.1818 -0.0838
21979W        W35393   5.402   9.812  15.620  0.3531  0.0623  0.2813
21980W        W35394   1.734   7.309   5.156  0.0934  0.2487 -0.0245
21981W        W35395   9.357  13.206  15.633  0.0229  0.1317  0.2720
21982W        W35396  13.945   6.696  11.433  0.0835 -0.0087  0.0361
21983W        W35397   7.813  15.520   3.008 -0.1746  0.0417  0.2043
21984W        W35398  14.592  15.179  14.761  0.1313  0.0758  0.0047
21985W        W35399  16.063   9.704   3.511 -0.0279 -0.0383  0.0086
21986W        W35400  17.603  13.332   2.773  0.0623 -0.2105  0.0329
21987W        W35401   9.163   6.697   0.164  0.0644 -0.0410  0.0591
21988W        W35402   5.042   9.196   3.632  0.1492  0.0933 -0.1419
21989W        W35403  10.212  17.435  12.465  0.0477 -0.0227  0.3564
21990W        W35404   8.238   7.366  12.284 -0.1178  0.0055  0.1912
21991W        W35405   2.613  11.191   1.101  0.1559 -0.0500 -0.0027
21992W        W35406   5.466   8.242  13.869 -0.1572 -0.1510  0.0132
21993W        W35407  14.330   6.315  15.856  0.0332 -0.0007  0.0546
21994W        W35408   3.184  16.450  11.941 -0.1665 -0.3769 -0.0498
21995W        W35409   1.290  12.989   0.329  0.1177  0.2889  0.0874
21996W        W35410  15.434   4.985   3.395 -0.2456 -0.1312  0.0635
21997W        W35411  11.580  15.931  16.655  0.0724  0.2616  0.2534
21998W        W35412   2.651   3.510   4.126 -0.2607 -0.1536  0.0631
21999W        W35413   8.191  11.440  10.427 -0.0479  0.1104  0.0968
22000W        W35414  15.396  10.871  13.004 -0.1144 -0.1835  0.0150
22001W        W35415  17.438   7.740   1.243  0.3190 -0.2260 -0.0033
22002W        W35416   4.783   7.897   2.856 -0.0889 -0.0017 -0.1979
22003W        W35417  13.458   8.478   5.928  0.1922 -0.0486  0.0834
22004W        W35418  16.751   5.838   2.581  0.1619 -0.0784  0.0534
22005W        W35419  10.708  17.464   5.416 -0.0604  0.0560 -0.1762
22006W        W35420   0.379  17.450   4.407  0.2040  0.4684  0.1727
22007W        W35421  10.452  12.840   4.134 -0.2647  0.4899  0.2104
22008W        W35422  16.058   6.663  14.892 -0.0083 -0.1575 -0.1751
22009W        W35423  12.084   3.663  14.580 -0.5366  0.0325  0.0461
22010W        W35424   1.080   6.289  14.839  0.1552 -0.0984 -0.0497
22011W        W35425   4.364  16.427  15.082 -0.0378  0.0667  0.0457
22012W        W35426  13.081   4.818   3.677  0.1686  0.0508 -0.0482
22013W        W35427   2.384  14.307   0.171  0.0097 -0.1040 -0.0104
22014W        W35428  11.761  15.843  15.911 -0.0253 -0.2943  0.0198
22015W        W35429  14.852   0.720   5.344 -0.4171  0.1856  0.1437
22016W        W35430  12.834   1.980  16.298 -0.0195  0.0635  0.0183
22017W        W35431   3.657   0.208  14.295 -0.0755  0.2709 -0.0445
22018W        W35432   4.197   3.504   4.246  0.2840 -0.2182 -0.1906
22019W        W35433   0.514   1.273   1.992  0.0621  0.2655  0.1686
22020W        W35434  17.402   7.867  15.390  0.0295 -0.1024  0.0471
22021W        W35435   8.384   4.366  13.006  0.0279  0.0373  0.3262
22022W        W35436  10.056  14.568  15.541  0.0913  0.0255 -0.3560
22023W        W35437   7.782   8.223   3.534 -0.0872  0.2855  0.1074
22024W        W35438  11.988   9.537   4.508  0.2254  0.0532  0.0810
22025W        W35439   5.214  17.300  15.990  0.1805 -0.0214 -0.1761
22026W        W35440  14.041  10.988   5.779  0.5664  0.1900  0.0938
22027W        W35441   3.670  13.218   3.460 -0.0213 -0.0150 -0.0298
22028W        W35442  10.629   0.853   5.250  0.2947  0.2562 -0.2446
22029W        W35443   3.325   8.227  10.938  0.1129 -0.1651 -0.1177
22030W        W35444   9.031  16.619   1.862  0.0640 -0.0894 -0.0040
22031W        W35445   8.939   3.220   2.961  0.0732 -0.1266  0.3184
22032W        W35446   5.090   6.505   5.497  0.0810  0.1711  0.1141
22033W        W35447   1.050  14.854  13.842  0.0564 -0.0297  0.0038
22034W        W35448   2.063   3.825   1.424  0.1875 -0.0336 -0.0707
22035W        W35449   4.329  17.681   1.588  0.2504  0.2316  0.1999
22036W        W35450   0.501   8.347   1.167 -0.0467  0.0224 -0.1248
22037W        W35451   0.824  14.871  11.232 -0.0152 -0.3182 -0.0941
22038W        W35452  17.062   5.544  11.107 -0.0779 -0.5036  0.3905
22039W        W35453   9.410  16.237   3.547 -0.0851  0.1479  0.1952
22040W        W35454  12.135   4.553   0.153  0.2515  0.0698 -0.0161
22041W        W35455   9.679   7.203   1.282 -0.2074 -0.1330  0.0433
22042W        W35456   4.268  11.360  15.687  0.2429  0.0480  0.0491
22043W        W35457  16.643   1.763  14.884  0.2874  0.0920  0.0007
22044W        W35458  14.634   3.363  12.853 -0.0060 -0.0357  0.3384
22045W        W35459   9.169  15.450   5.723 -0.1569  0.4350 -0.1336
22046W        W35460  16.076   9.151  12.949  0.3040  0.0169  0.2345
22047W        W35461  14.425  13.550   1.590 -0.0314 -0.0989  0.3275
22048W        W35462  17.804  16.469  11.888 -0.0320 -0.0985 -0.2175
22049W        W35463  15.757   6.550  12.470  0.3676 -0.3027  0.2377
22050W        W35464   9.691   6.223   4.422  0.3987  0.1206 -0.0909
22051W        W35465   6.596   8.821   3.552 -0.0430 -0.3817 -0.2177
22052W        W35466   5.832   2.769   3.910 -0.0813  0.3760 -0.3418
22053W        W35467  17.168   4.285  10.927  0.0452  0.1576  0.1492
22054W        W35468   0.507   0.427  10.894  0.0995  0.1143 -0.0279
22055W        W35469  16.075  17.534   2.971 -0.1583  0.0166 -0.1057
22056W        W35470   8.468   9.005  15.991 -0.0979 -0.0961 -0.0250
22057W        W35471   5.392   4.161  13.233 -0.1680 -0.0438 -0.2001
22058W        W35472   6.853   6.460   0.743 -0.0386  0.1186 -0.1471
22059W        W35473  17.499  12.453  16.165 -0.1696  0.1108  0.0132
22060W        W35474   3.592  15.348   2.205  0.1044  0.0724 -0.2009
22061W        W35475   3.724  13.932  15.006  0.3660  0.0069  0.0348
22062W        W35476   0.218  10.131  11.832 -0.3008  0.3440 -0.3155
22063W        W35477  15.989   6.970  16.102  0.0631 -0.0683 -0.1819
22064W        W35478  17.947  14.961   0.225 -0.1331  0.1427  0.1407
22065W        W35479   5.459   8.341   3.881  0.0482  0.2049 -0.2990
22066W        W35480  17.906   0.619   3.377 -0.1574 -0.0918  0.0424
22067W        W35481   4.152   6.364  12.890  0.1020 -0.3219 -0.2166
22068W        W35482  15.360   8.228   2.246  0.3393  0.3244  0.0318
22069W        W35483   5.434  13.470   3.844  0.1030 -0.3450  0.1318
22070W        W35484   1.036   3.873  11.622  0.1295  0.0716 -0.0270
22071W        W35485   5.778  12.349  11.938  0.1253  0.0299 -0.0756
22072W        W35486  15.848   8.832   4.872  0.3314 -0.1390 -0.2617
22073W        W35487   8.796   9.763   3.982  0.0087 -0.3098 -0.2681
22074W        W35488  13.920  17.208  15.115 -0.0461 -0.1124  0.4171
22075W        W35489  11.508   7.840   0.659  0.1048  0.0204  0.3048
22076W        W35490  11.326  12.444  12.732 -0.0863  0.0942  0.2014
22077W        W35491  17.710  12.776   1.320 -0.1407 -0.0351 -0.2032
22078W        W35492   1.740   2.322   4.445 -0.0571 -0.1089 -0.1624
22079W        W35493  13.043   0.902  14.311  0.0658  0.3295 -0.0549
22080W        W35494  12.254  13.527   5.226 -0.0297 -0.0674  0.1041
22081W        W35495  14.889   6.960   1.540  0.1396 -0.0943  0.0277
22082W        W35496  16.266  12.433   0.262 -0.3712  0.2535  0.0276
22083W        W35497   5.377  17.804   2.924  0.1958  0.0298 -0.0529
22084W        W35498   2.173  17.565   2.057 -0.5776 -0.0421  0.2060
22085W        W35499   6.572   9.872   4.370 -0.0824 -0.0408  0.2567
22086W        W35500  10.764   2.824  15.752 -0.0306 -0.3996 -0.4615
22087W        W35501  13.868   1.792  13.065  0.0533 -0.2704 -0.0095
22088W        W35502   7.701  11.867   4.528  0.1571  0.1171 -0.0510
22089W        W35503   5.645  10.096  16.024 -0.1315  0.0057 -0.2266
22090W        W35504  15.275  17.391   0.741  0.0698 -0.0721  0.0701
22091W        W35505  13.341   9.224  14.729 -0.1365  0.0653 -0.1688
22092W        W35506   0.789   3.014   2.312 -0.1144  0.0326 -0.1082
22093W        W35507   2.463  18.000   1.940  0.2103 -0.1163 -0.3573
22094W        W35508  15.726   9.539  15.106 -0.4627 -0.0254 -0.2046
22095W        W35509   1.644  13.464  14.999  0.2799 -0.0008 -0.0592
22096W        W35510   6.124   4.345   4.782  0.1759  0.1244  0.2207
22097W        W35511   0.036  11.805  11.475  0.2743  0.2093 -0.2402
22098W        W35512   5.812   3.821  10.933  0.1541  0.3275 -0.1575
22099W        W35513   8.767  14.541   3.286 -0.0920  0.1571  0.3468
22100W        W35514   6.600   3.528  11.028 -0.0475 -0.1422  0.0550
22101W        W35515  14.004  11.627  15.878 -0.0040  0.0642  0.0571
22102W        W35516   2.953   8.881   0.723  0.2546 -0.0483  0.1319
22103W        W35517  13.628  15.498   4.411 -0.1191 -0.0454 -0.4175
22104W        W35518   3.214   9.309  11.469 -0.2020 -0.0155 -0.0880
22105W        W35519  13.785   5.796  11.942  0.2020  0.0888 -0.5541
22106W        W35520   5.238  10.067  14.104 -0.3052 -0.0683  0.0766
22107W        W35521   2.584   2.897   5.450 -0.3153  0.4038  0.4217
22108W        W35522  16.609   4.040  15.032  0.0393  0.0296 -0.2811
22109W        W35523   6.572   9.852  15.107 -0.2043  0.0746  0.2809
22110W        W35524  16.415  14.300  15.066  0.1465  0.0201  0.1389
22111W        W35525   0.337   3.913   4.914 -0.0809  0.0209 -0.1412
22112W        W35526   1.294  10.637   1.015  0.0044 -0.0825  0.1096
22113W        W35527   3.093   8.033  15.558  0.4305 -0.4165 -0.1672
22114W        W35528   0.207  13.773  13.100 -0.3434  0.1625 -0.0712
22115W        W35529   6.493  16.814  14.708 -0.3100  0.0379  0.0100
22116W        W35530   6.915   0.777  14.497 -0.6257  0.2017  0.0564
22117W        W35531   6.808   9.520  14.844 -0.3419 -0.1439  0.2128
22118W        W35532  16.674  13.910  13.089  0.1788 -0.1892 -0.1674
22119W        W35533  12.730   6.163  13.733 -0.3581  0.2376  0.1937
22120W        W35534   2.705  13.893   1.717 -0.4740  0.3574 -0.0127
22121W        W35535   1.095  16.015   4.771 -0.4229  0.0490 -0.3824
22122W        W35536  17.674  12.155   5.623  0.1375  0.1672  0.2912
22123W        W35537  13.062   5.455   2.158  0.0512  0.2452  0.0847
22124W        W35538  12.310  11.664  14.058 -0.2112  0.1236 -0.1337
22125W        W35539  10.538   1.418  16.452  0.0235 -0.1830  0.0878
22126W        W35540   0.783  16.126  12.948  0.4215 -0.0629 -0.0792
22127W        W35541   3.716  16.278  11.289  0.0519 -0.0491 -0.1818
22128W        W35542  12.042  14.567  11.972 -0.1249 -0.1642  0.1192
22129W        W35543  15.607  10.601  16.319 -0.0333  0.0152 -0.1433
22130W        W35544  16.382  14.663   1.937  0.1498  0.0210 -0.0184
22131W        W35545  17.480  14.950  10.915  0.1321  0.0431 -0.1701
22132W        W35546  14.244   7.470   2.524  0.0015 -0.2674  0.2177
22133W        W35547  12.374  10.444   3.549 -0.2875  0.2583  0.1288
22134W        W35548   7.030  16.610  14.771 -0.0907 -0.1241 -0.0215
22135W        W35549   4.311   4.802   1.713  0.0120 -0.0352  0.1497
22136W        W35550  12.982  14.143   6.119 -0.1183  0.1291 -0.2173
22137W        W35551   2.220  16.259   5.166 -0.4143  0.3678  0.0018
22138W        W35552   2.220  17.432  12.504  0.0545 -0.0826 -0.0415
22139W        W35553   2.191  15.525  13.484 -0.2138  0.1312 -0.0579
22140W        W35554   9.342   3.541   0.167  0.3942  0.0296  0.3792
22141W        W35555   3.372  14.122  10.920 -0.2020 -0.1193 -0.4853
22142W        W35556   5.209   3.874   6.335 -0.0802 -0.1884 -0.1686
22143W        W35557   5.356   9.325  11.794  0.3135  0.1155 -0.0061
22144W        W35558   9.711   4.121   5.974 -0.2341  0.0226  0.1625
22145W        W35559  14.194  13.837   5.193  0.2074 -0.1876  0.0658
22146W        W35560   1.699  16.416  13.270 -0.1428  0.0536 -0.1800
22147W        W35561  11.479  11.208   5.390  0.3135  0.2292  0.0553
22148W        W35562  10.757   6.534   4.803  0.1485  0.1296  0.1174
22149W        W35563  11.874  14.962   3.426  0.0604  0.0873  0.0239
22150W        W35564   1.575  14.441   0.814  0.0880 -0.2028 -0.1093
22151W        W35565  15.875  10.844   3.221 -0.1969  0.1335  0.2884
22152W        W35566  14.824  15.949   5.201 -0.2529 -0.1186 -0.1749
22153W        W35567  16.174  16.699   5.533 -0.1076 -0.0513 -0.1647
22154W        W35568   4.011   9.025   1.980 -0.0495  0.1494  0.0255
22155W        W35569   7.580   4.837  15.307 -0.0849  0.2073  0.2035
22156W        W35570  17.636   8.051  14.091  0.1177 -0.1276 -0.0005
22157W        W35571   8.842  14.759  11.879 -0.3308 -0.0044 -0.0862
22158W        W35572   1.789   0.161  11.321  0.3319 -0.2064 -0.1705
22159W        W35573   4.584   8.067   4.298  0.0925  0.0966  0.0644
22160W        W35574  11.440   0.038   4.417  0.0597 -0.0376  0.2704
22161W        W35575  10.991   7.245  14.814  0.1356  0.0340  0.1065
22162W        W35576   6.282   9.410  10.958  0.2511 -0.2960 -0.1463
22163W        W35577  14.933  11.063   0.154 -0.1394  0.2440 -0.1005
22164W        W35578   5.861   9.345  12.171 -0.1374 -0.0151  0.1900
22165W        W35579  11.515  10.622   2.518 -0.1336 -0.1136 -0.4470
22166W        W35580   2.379  16.955   2.760  0.0991  0.0924 -0.0458
22167W        W35581   5.097   8.485  13.649 -0.0591  0.1934  0.0315
22168W        W35582   4.640   6.054   4.628  0.0832 -0.3373  0.0874
22169W        W35583   0.047  17.779   1.327  0.0662 -0.0320 -0.2764
22170W        W35584  14.183   1.645  16.559 -0.1982  0.0828 -0.0988
22171W        W35585   2.560   4.670   4.995 -0.0061 -0.0900 -0.1610
22172W        W35586  11.494   4.053   3.562  0.2301 -0.1347 -0.0646
22173W        W35587   5.768   1.675  13.558 -0.1571  0.1483  0.2400
22174W        W35588   6.763   0.575   0.352  0.3362  0.2703 -0.1607
22175W        W35589  15.574   2.587   4.839  0.6262 -0.1107  0.0320
22176W        W35590  10.768   7.830  13.356 -0.0591  0.0088  0.0614
22177W        W35591   3.225  16.995   9.686  0.1105  0.0052 -0.0687
22178W        W35592  10.186  14.828  11.370 -0.2768  0.0659 -0.0552
22179W        W35593   7.225   9.735  11.432  0.0907  0.1158 -0.0393
22180W        W35594  16.022  10.765  16.144  0.1997 -0.0856  0.1109
22181W        W35595  10.340   5.853  12.820 -0.0639  0.1200  0.1810
22182W        W35596   8.074   9.407   5.527 -0.0180 -0.0630 -0.1731
22183W        W35597   4.808   6.986  14.439 -0.1113  0.1531  0.0914
22184W        W35598   8.052  15.605  14.822 -0.0866  0.0031 -0.0260
22185W        W35599  16.281   4.896  16.566  0.2464 -0.1509  0.0251
22186W        W35600  13.849  11.729   0.567  0.0544 -0.0544  0.1957
22187W        W35601  11.604   8.959  16.151  0.1759  0.1926  0.0529
22188W        W35602  12.956  10.850  15.428  0.1142  0.0840 -0.2476
22189W        W35603   2.953  14.023  13.980 -0.0291 -0.0742  0.0572
22190W        W35604   2.654   5.721  14.591 -0.0583  0.3535  0.0856
22191W        W35605  17.001  12.750  11.897  0.0566 -0.1330  0.0569
22192W        W35606  13.096  11.218   1.713 -0.0914  0.1691 -0.0339
22193W        W35607   5.354   6.005  11.118 -0.0042 -0.0014  0.0383
22194W        W35608   9.644  17.763  12.255  0.0751  0.0983  0.1477
22195W        W35609  17.614  17.153  12.465  0.1376 -0.2281 -0.1248
22196W        W35610  11.000  13.629   5.297  0.0482 -0.0434 -0.2255
22197W        W35611   1.706  17.389  14.842 -0.0886  0.0234 -0.5256
22198W        W35612  14.791  13.480  14.089 -0.1740 -0.0562  0.0920
22199W        W35613  10.754  15.160  15.479 -0.0990  0.1119 -0.1844
22200W        W35614   8.842  10.868   0.590 -0.2055  0.1184  0.2159
22201W        W35615  15.301   9.924   2.611  0.1319  0.1644  0.1225
22202W        W35616  15.887   3.145   5.530  0.0681 -0.1927 -0.1501
22203W        W35617  14.454   2.203   1.590 -0.2230 -0.0024 -0.1945
22204W        W35618  14.709   7.732   1.283  0.0508 -0.2239  0.1558
22205W        W35619  12.808   8.646  15.259 -0.1125 -0.0496 -0.1924
22206W        W35620   8.520  16.177   2.892  0.0183  0.0222  0.0794
22207W        W35621  14.720  13.716   0.218  0.0977  0.1946 -0.0263
22208W        W35622  17.957   1.936  14.590  0.0423 -0.1079 -0.1430
22209W        W35623   5.712  10.225   2.253  0.2125  0.1510 -0.1330
22210W        W35624   4.042  13.265  13.894  0.1481  0.1407  0.1678
22211W        W35625   7.126  11.742  15.101  0.0166  0.3606 -0.2566
22212W        W35626  11.497   9.125   0.041  0.0381 -0.2146  0.1594
22213W        W35627  13.101   7.878   2.742  0.0854  0.0509 -0.2524
22214W        W35628   5.835   6.353  11.024  0.1494  0.2786  0.0256
22215W        W35629  17.234   3.808   5.988 -0.1775  0.0136  0.2364
22216W        W35630   7.703   1.193  13.630  0.2063 -0.0848  0.2372
22217W        W35631   4.606   5.852   5.104  0.3405  0.0407  0.2127
22218W        W35632  14.189   0.366   4.681  0.4449 -0.1984  0.3351
22219W        W35633   5.749   3.405   5.675 -0.0617 -0.0192 -0.0980
22220W        W35634   8.369  16.513  12.540 -0.1458 -0.1746  0.1893
22221W        W35635  17.115  15.598  16.152 -0.0696 -0.1421  0.0289
22222W        W35636  13.627   5.070  13.598 -0.2464  0.3128  0.1783
22223W        W35637   6.009  11.517   0.080  0.0232 -0.3942 -0.0895
22224W        W35638   1.252   4.395  10.982 -0.0630 -0.0011  0.0620
22225W        W35639   2.106   9.588   3.726  0.1510  0.1350  0.1289
22226W        W35640   3.548   4.698  11.493 -0.1349 -0.2488 -0.1527
22227W        W35641  13.351  15.133  12.091 -0.2431  0.0038  0.0649
22228W        W35642   7.286  17.452  11.264 -0.2821 -0.2619  0.3432
22229W        W35643   0.864  14.446  15.051 -0.1726  0.0585 -0.1361
22230W        W35644   0.817  14.787   2.167  0.1373 -0.0234  0.0830
22231W        W35645  17.025   9.164   1.627  0.4619 -0.2800  0.3827
22232W        W35646  11.446   7.850   6.257  0.2974 -0.1043  0.0264
22233W        W35647   5.469   8.856   5.330 -0.1249  0.2220  0.3100
22234W        W35648  14.527  10.855   1.112  0.5348 -0.0032 -0.1231
22235W        W35649   7.450   1.393   3.211 -0.1740 -0.0140  0.1965
22236W        W35650   8.515  16.790  13.003  0.1854 -0.1295  0.2560
22237W        W35651  13.912   4.480   1.537 -0.1072  0.0152 -0.1703
22238W        W35652   2.592   8.677   0.976  0.2876 -0.2054 -0.0066
22239W        W35653  14.378   1.021  15.857  0.2374 -0.1707 -0.2800
22240W        W35654  15.869   2.910  14.910 -0.2513  0.2809 -0.1781
22241W        W35655  13.375   8.698  11.289  0.1600 -0.1302  0.1054
22242W        W35656   2.741   8.882   3.843  0.0815 -0.1019  0.0057
22243W        W35657   4.766   6.773  11.545 -0.3202 -0.1830  0.1172
22244W        W35658   6.169  16.324   1.958  0.1292  0.1396 -0.1458
22245W        W35659   8.184  10.295   5.849 -0.3615 -0.1570  0.1622
22246W        W35660  16.431   1.023   0.601 -0.2353 -0.0947 -0.2258
22247W        W35661  16.443   6.805   3.726  0.1953  0.4336 -0.1588
22248W        W35662   9.326  16.372   5.930  0.0748 -0.0076  0.0679
22249W        W35663   2.769   8.047   4.117  0.0360  0.0005  0.3208
22250W        W35664   8.191   2.421   4.141 -0.0914  0.0153  0.0172
22251W        W35665   7.794  16.067  15.041  0.1747  0.3101 -0.1971
22252W        W35666  11.681   3.782   2.190 -0.0515 -0.2601 -0.1060
22253W        W35667   5.205   4.570  10.733 -0.1932 -0.0982  0.2360
22254W        W35668  11.345   6.536  11.045  0.0854 -0.1168  0.0607
22255W        W35669   0.123  13.678  15.080  0.0695  0.0735  0.0405
22256W        W35670   9.011   6.934   5.050 -0.0743  0.4058  0.1176
22257W        W35671   8.104   2.034   0.186 -0.2653 -0.2177  0.4201
22258W        W35672   0.679   9.438   5.985 -0.0109 -0.0805 -0.1049
22259W        W35673  12.033  14.841   5.343  0.0442  0.0457 -0.1707
22260W        W35674   2.463  11.175   5.768  0.0538 -0.0333  0.0243
22261W        W35675  10.722   7.489  11.617 -0.0181 -0.0727 -0.1511
22262W        W35676  13.422  11.412  16.005  0.0472  0.0607  0.3267
22263W        W35677  12.203   9.568   1.759  0.0919 -0.1079 -0.1331
22264W        W35678   7.785  11.209  15.649  0.2365  0.0621 -0.0251
22265W        W35679  11.107  16.559   4.476  0.1289 -0.0035 -0.0596
22266W        W35680   2.808   8.894   4.388 -0.1405 -0.0483 -0.0563
22267W        W35681   5.464  17.447   5.202  0.3501  0.0445  0.0575
22268W        W35682   6.894   2.813  10.560 -0.1399 -0.0270  0.2295
22269W        W35683   1.597   6.452  12.849  0.3007 -0.0982 -0.1350
22270W        W35684  11.725   1.392   6.382  0.2854  0.0508  0.1763
22271W        W35685   8.638  11.607   1.235 -0.2029  0.0936  0.0892
22272W        W35686   4.614  12.063  12.717 -0.1133  0.2216  0.1255
22273W        W35687   9.763   1.429   0.522 -0.0024  0.0966 -0.2780
22274W        W35688   1.643  15.654   5.853  0.1364  0.2315 -0.1667
22275W        W35689   8.294   1.920  10.874 -0.1347  0.0909 -0.2828
22276W        W35690   4.128   6.235   0.293 -0.4467 -0.1739  0.4064
22277W        W35691   1.106   6.741   4.617  0.1061 -0.1569 -0.0887
22278W        W35692  15.393  14.952  11.400 -0.0567  0.1353  0.1693
22279W        W35693   0.234  16.917   4.300  0.2259  0.1290  0.0976
22280W        W35694  14.987  13.129  15.702 -0.0788 -0.0640  0.1747
22281W        W35695  13.352   3.718   1.013 -0.0633  0.1615  0.3252
22282W        W35696   2.871  12.848  12.770  0.0147  0.2629  0.2656
22283W        W35697  17.572   4.241   4.424  0.0452  0.0824 -0.0130
22284W        W35698   4.483   7.359   5.270 -0.0052  0.1482  0.3234
22285W        W35699  14.028   6.534   4.548  0.0489  0.1565 -0.1797
22286W        W35700  17.575   0.542   4.396  0.0050  0.3609 -0.2673
22287W        W35701   6.694   2.368   2.010 -0.1235  0.0583  0.4757
22288W        W35702   1.388   3.939  16.127 -0.2860 -0.1575 -0.1562
22289W        W35703  15.853   5.701   4.750 -0.0826 -0.4410 -0.1643
22290W        W35704  14.071  11.198   4.340 -0.0195 -0.0600 -0.3808
22291W        W35705  17.980   1.552   0.862 -0.0660  0.2686 -0.2891
22292W        W35706   5.479  10.565   0.396  0.2959 -0.1886 -0.1658
22293W        W35707  11.175   7.874   0.217  0.2193  0.1096 -0.1327
22294W        W35708   4.004   1.120  11.945 -0.2676  0.1189 -0.0303
22295W        W35709   0.029  10.180   5.621  0.2199 -0.1092  0.2877
22296W        W35710   5.700  10.058   4.590  0.3626  0.0646 -0.0909
22297W        W35711   9.095  12.347   4.577 -0.2162 -0.0888  0.2428
22298W        W35712   4.287   1.730  14.743  0.2636  0.3550  0.0477
22299W        W35713  14.825  13.019   4.198  0.2223  0.0494 -0.1964
22300W        W35714  11.081  13.817   0.091 -0.3843 -0.2211  0.0803
22301W        W35715  11.714   5.873  14.557 -0.1106  0.1335 -0.1782
22302W        W35716  16.876   3.489  12.098 -0.1671 -0.1548  0.3182
22303W        W35717   3.939   9.347   4.447  0.2648  0.0045 -0.2134
22304W        W35718   9.521  11.490  14.199 -0.1762 -0.0878  0.0236
22305W        W35719   9.894  17.642   6.462  0.0074  0.1347  0.0321
22306W        W35720   1.708   3.784   1.917 -0.1804  0.0778 -0.1023
22307W        W35721   9.956  12.518  16.781  0.0005 -0.3005  0.2661
22308W        W35722  11.265  17.810   3.206  0.1274 -0.2640  0.0906
22309W        W35723   1.295  12.159   0.939 -0.0397  0.2481 -0.3212
22310W        W35724   7.254   9.719  14.672 -0.0060 -0.0421  0.1203
22311W        W35725   9.623  15.337   2.300  0.2252 -0.0994  0.0525
22312W        W35726  14.446  13.866  13.988 -0.2462  0.1410  0.1843
22313W        W35727  11.320  15.149   4.021  0.0405  0.1159 -0.3235
22314W        W35728   9.723   2.338  12.130  0.0451  0.1361 -0.0731
22315W        W35729  11.783  10.460   1.630  0.1199 -0.0444  0.0382
22316W        W35730   1.881   4.592  15.104 -0.2664  0.0513 -0.1921
22317W        W35731   8.752   0.496   3.366 -0.2330  0.2087 -0.0092
22318W        W35732   9.409  10.126   3.008 -0.1052 -0.2773  0.0779
22319W        W35733  16.609  11.000  11.345 -0.1435 -0.0351  0.1306
22320W        W35734  17.589  16.941   9.726 -0.0426  0.1666  0.2127
22321W        W35735   9.102   7.522   6.511 -0.2176 -0.0388 -0.0530
22322W        W35736  13.318  16.371   4.539  0.2631  0.2800 -0.0287
22323W        W35737   3.974  17.276  12.667 -0.1237 -0.0311 -0.3629
22324W        W35738  13.621   0.456   4.064 -0.1410  0.1555 -0.1087
22325W        W35739   5.509   9.203   5.739  0.1959 -0.0249  0.2238
22326W        W35740   3.612   8.972  15.041  0.1776 -0.1553  0.1110
22327W        W35741  16.642   3.101   1.082 -0.2825  0.2834  0.0988
22328W        W35742   5.000  12.045  11.913 -0.2374  0.3109  0.1141
22329W        W35743  17.542   0.199   5.916  0.1197  0.0367  0.2085
22330W        W35744   9.661  11.163  15.044  0.0513  0.3952 -0.1273
22331W        W35745  10.822   4.623  16.535  0.0163  0.3098 -0.0723
22332W        W35746   8.615   0.739   2.628  0.2540 -0.1916 -0.0556
22333W        W35747   5.018  12.522  14.802  0.2802 -0.0480 -0.0400
22334W        W35748  17.955   0.864   4.532  0.1434 -0.0128 -0.0272
22335W        W35749  16.424  11.487   1.243  0.0748 -0.0737  0.3181
22336W        W35750   6.056   7.232   0.247 -0.0275  0.4604 -0.0776
22337W        W35751  10.660   7.162  14.421 -0.0453 -0.1079 -0.0910
22338W        W35752  12.966   7.384  15.225  0.0745  0.2378 -0.1582
22339W        W35753   1.132  13.550   0.536 -0.2603  0.0712  0.0439
22340W        W35754  13.031  10.797  11.872  0.2981 -0.1775  0.0439
22341W        W35755   1.344   3.407   1.397  0.1373  0.1616 -0.2926
22342W        W35756   9.683  12.219   5.258  0.0508  0.2069  0.0387
22343W        W35757   4.925  15.476   4.847  0.1296  0.0982 -0.3233
22344W        W35758   0.700  12.789   0.544  0.0544  0.0635  0.0215
22345W        W35759   2.671  11.909  15.592 -0.3617 -0.2180 -0.0372
22346W        W35760   4.504   6.397  15.086  0.1194  0.3961 -0.0439
22347W        W35761   1.649  10.084   5.127  0.0353 -0.1992 -0.0072
22348W        W35762  14.366   8.918   5.189 -0.2362  0.2174 -0.3362
22349W        W35763   8.102   0.541  15.803  0.0809  0.1455 -0.3277
22350W        W35764   5.259   9.375   1.802  0.1456  0.2237 -0.0309
22351W        W35765  15.214  15.323  16.743 -0.0757 -0.1115  0.1106
22352W        W35766   3.902  14.079  13.344 -0.1636 -0.1037 -0.0565
22353W        W35767   4.753   7.926   6.159 -0.2074 -0.2050  0.1153
22354W        W35768   8.220   4.968   2.463  0.0495 -0.1171 -0.0284
22355W        W35769  10.227  14.129  14.376 -0.0036  0.0797 -0.1153
22356W        W35770   8.236  12.538   2.089 -0.0948 -0.0481 -0.2317
22357W        W35771   0.121   6.867  11.940 -0.1698  0.2801  0.0212
22358W        W35772  13.175   1.912   1.778  0.0829  0.0121 -0.3043
22359W        W35773  16.675   5.451  10.799  0.0498  0.1984 -0.0879
22360W        W35774  15.298  16.868   2.898 -0.0147  0.0127  0.0080
22361W        W35775   7.422   4.744  13.811  0.1925 -0.2261 -0.0214
22362W        W35776   3.888  13.118   4.807 -0.0487 -0.0816  0.4486
22363W        W35777  13.734  11.028  13.844 -0.3915  0.0092 -0.0168
22364W        W35778   5.909   9.376  11.628  0.2621  0.3217  0.1366
22365W        W35779  12.591  14.000   0.877  0.3172  0.1376  0.1633
22366W        W35780   2.101   7.026   0.456 -0.1400  0.0243 -0.2498
22367W        W35781   4.855   8.469   1.001 -0.2302 -0.4114  0.4701
22368W        W35782  12.224   0.342   5.101 -0.0273  0.1487  0.2420
22369W        W35783   9.088   6.608  16.430  0.1363  0.0068 -0.1103
22370W        W35784   5.110   8.332   6.719  0.0414 -0.1980 -0.1353
22371W        W35785  15.067  15.109   2.422 -0.0199 -0.1786  0.0717
22372W        W35786   5.596   9.081   0.366 -0.0290  0.1732  0.1255
22373W        W35787   9.257  10.185  15.900  0.2078  0.1530  0.1579
22374W        W35788   3.006  16.726  14.942  0.1156  0.2265  0.3016
22375W        W35789  13.214  12.296  12.354 -0.2223  0.0026 -0.2675
22376W        W35790  13.686   5.727   1.021  0.0624 -0.1160  0.0307
22377W        W35791   9.110   9.660   2.787 -0.0678  0.4320 -0.3605
22378W        W35792   7.683   5.293  14.458  0.0091  0.2227 -0.1314
22379W        W35793   4.148   3.101  14.105  0.1757  0.2458  0.0719
22380W        W35794   9.566   0.504  14.468  0.3535 -0.1405 -0.0437
22381W        W35795  13.638  15.375   5.336 -0.0192  0.2891  0.3036
22382W        W35796   2.617  13.648  11.455  0.0680 -0.5492 -0.0607
22383W        W35797  10.134   9.845  14.525 -0.2397  0.0996  0.3575
22384W        W35798   9.365   9.265   5.027 -0.0723 -0.0740 -0.0065
22385W        W35799   3.881   9.913   4.461  0.2818  0.0609 -0.2090
22386W        W35800  10.250   7.731   3.980 -0.0812 -0.1432 -0.0305
22387W        W35801  12.793   5.455  12.843  0.0702 -0.0276 -0.0899
22388W        W35802  14.479   2.341  13.875  0.0448  0.0930  0.1972
22389W        W35803  15.461  12.385   5.046  0.1871  0.3184  0.2428
22390W        W35804   3.274  16.411   2.540 -0.0967  0.2079  0.1833
22391W        W35805   3.242  14.280   0.190 -0.2792  0.2229 -0.0301
22392W        W35806  16.447   0.352  12.020 -0.1400  0.0454  0.1113
22393W        W35807   9.509  13.815   6.150  0.3082  0.1385  0.0836
22394W        W35808   4.694   0.917   0.429  0.1091  0.1355  0.0058
22395W        W35809   2.097   0.421   1.837 -0.0048  0.0658 -0.0829
22396W        W35810   1.672   5.804  15.362 -0.0262 -0.0325  0.1118
22397W        W35811  14.017   9.340   2.223 -0.1118  0.0311 -0.4639
22398W        W35812   8.320  13.789   2.087 -0.1092 -0.3770 -0.0968
22399W        W35813  17.533  12.481   2.981  0.0387 -0.0578 -0.0546
22400W        W35814   1.031  11.748  11.513  0.0566 -0.0492 -0.0086
22401W        W35815   8.860  12.674   2.412  0.1565  0.3075 -0.0330
22402W        W35816   2.463  10.654   1.038 -0.3436  0.2927 -0.0151
22403W        W35817  12.080  10.318   3.950  0.0304 -0.2562  0.2585
22404W        W35818  16.117   1.037  10.469 -0.1118 -0.0625  0.0980
22405W        W35819  17.675   8.931  15.709 -0.1037 -0.0450 -0.2555
22406W        W35820  17.956  13.142  10.147 -0.1447  0.2849  0.0748
22407W        W35821   6.146   0.701  14.536  0.1820  0.1775 -0.1831
22408W        W35822   9.817   7.155  12.526 -0.1898 -0.0032  0.0032
22409W        W35823  17.690  10.850  12.218 -0.0501 -0.0095  0.3632
22410W        W35824   5.594   7.612   5.020 -0.0349 -0.0793 -0.0239
22411W        W35825  11.545   7.572   3.551  0.1412 -0.2035  0.2185
22412W        W35826   4.184   7.664   5.518  0.0041 -0.0811 -0.0308
22413W        W35827   5.633  15.595   3.619  0.0611  0.0650 -0.1897
22414W        W35828  13.263   8.360  16.340  0.2740  0.2707  0.0936
22415W        W35829   6.693  10.717   0.203 -0.1880  0.4437 -0.1129
22416W        W35830   7.685   8.527  16.718 -0.1229 -0.0596 -0.2772
22417W        W35831  16.610  12.209  13.784 -0.2925 -0.1730 -0.0590
22418W        W35832   9.810   5.478  12.191  0.0243  0.1821 -0.1117
22419W        W35833  10.251  15.934   4.847 -0.1123 -0.1955  0.0072
22420W        W35834   2.448   2.035  12.787 -0.0225  0.1605 -0.1915
22421W        W35835  12.827   7.244  13.073 -0.1739  0.0146  0.2719
22422W        W35836  17.081  16.683   4.866 -0.0226  0.2661  0.2437
22423W        W35837   0.511  17.339  12.929 -0.0567  0.0653 -0.0083
22424W        W35838  16.715   2.991  13.988 -0.1100 -0.1048 -0.1304
22425W        W35839   3.105   7.702   2.331 -0.0442  0.0756  0.0272
22426W        W35840   8.154   1.559  15.730 -0.0262  0.1815  0.0280
22427W        W35841   1.205  15.630  13.545 -0.1522 -0.1991  0.0098
22428W        W35842   1.332   9.501   3.118  0.0123 -0.4124  0.0150
22429W        W35843   3.597   5.719  14.016  0.0933  0.0695 -0.0557
22430W        W35844   2.735  12.539  13.109 -0.2277 -0.0651 -0.1339
22431W        W35845  12.124   7.271  11.156 -0.0170 -0.2074 -0.0464
22432W        W35846  16.841  16.068  15.839  0.0618  0.2338 -0.0197
22433W        W35847  12.679  15.555   2.727 -0.1152  0.0831  0.0082
22434W        W35848   3.846   0.883   5.258 -0.0286  0.2239 -0.0212
22435W        W35849   0.476  10.446  16.456  0.3135 -0.0369  0.3533
22436W        W35850   3.090  15.085  15.012  0.1452 -0.0784  0.0517
22437W        W35851   4.181   1.065   1.467  0.2905  0.1432 -0.0872
22438W        W35852   3.321   1.064  13.821  0.0840 -0.2293 -0.0749
22439W        W35853   7.228   1.078  13.593 -0.1019 -0.2216  0.1391
22440W        W35854   2.607  12.421   1.367 -0.0953 -0.1343 -0.0017
22441W        W35855   0.829  15.501   4.025 -0.1630 -0.1302  0.1413
22442W        W35856  12.808  17.605   2.299  0.1927 -0.2416  0.0935
22443W        W35857   5.858   6.859  13.253 -0.1511  0.0563  0.0039
22444W        W35858   6.219   1.429   3.557 -0.1072 -0.0159 -0.1356
22445W        W35859  17.692   5.948  16.492  0.0455 -0.0174 -0.1328
22446W        W35860  13.921   4.391  14.810 -0.1789 -0.0096  0.3210
22447W        W35861  15.473   9.510   4.267  0.0238 -0.0171 -0.0074
22448W        W35862  13.259  17.872  15.083  0.0216 -0.0153 -0.2458
22449W        W35863  15.041   4.075   1.727  0.2380 -0.1730  0.0548
22450W        W35864  12.122  13.194   0.244 -0.2288 -0.2067 -0.2104
22451W        W35865   1.056   8.462  11.722 -0.1023 -0.0084 -0.1840
22452W        W35866   2.746   4.276   0.920 -0.1492  0.0794  0.0405
22453W        W35867   3.014   0.732  12.526 -0.0725 -0.2488  0.1993
22454W        W35868   9.148  17.758   4.567 -0.1855  0.2416  0.1389
22455W        W35869  16.338   6.866  15.321  0.1286  0.2149 -0.1124
22456W        W35870   4.014   4.009  12.781  0.0350 -0.0787 -0.2303
22457W        W35871  16.013   4.585  13.034  0.1962  0.1747 -0.1619
22458W        W35872  11.152  13.580   2.626  0.2234  0.1572  0.0060
22459W        W35873   8.964  16.105  11.880  0.1111  0.0898 -0.2476
22460W        W35874   8.074  10.486   6.626  0.3197 -0.3088  0.1495
22461W        W35875   7.235  13.227   0.744 -0.1005 -0.0447  0.0924
22462W        W35876  15.437   4.867  15.403 -0.2306  0.2435  0.0003
22463W        W35877   5.122  17.481  15.083 -0.2412  0.2611 -0.2989
22464W        W35878  12.728   8.231  15.002  0.0130 -0.1025  0.2519
22465W        W35879  14.760   3.973  14.508 -0.0976  0.1723 -0.0882
22466W        W35880  13.464  17.519   2.139 -0.2635  0.2538  0.1997
22467W        W35881   1.286  13.402  16.354  0.1677 -0.0223  0.0553
22468W        W35882   6.035  15.974   5.484 -0.2108 -0.3646 -0.0143
22469W        W35883  10.327  16.123   3.504 -0.0830 -0.1446  0.2149
22470W        W35884   7.555   0.845   0.171 -0.0420  0.0789  0.0823
22471W        W35885   6.760   0.438   2.520 -0.1059  0.1815  0.1728
22472W        W35886  17.706  10.004  13.118 -0.2819 -0.1109 -0.5005
22473W        W35887  15.918   8.170   3.518 -0.0422 -0.1392  0.1135
22474W        W35888   1.509  13.545   3.916 -0.1965 -0.2160 -0.0737
22475W        W35889  17.989  17.749   5.395 -0.0472  0.2647 -0.0748
22476W        W35890   4.433   7.811  14.073  0.2150  0.0799 -0.1009
22477W        W35891   5.848  13.349  13.316  0.0178  0.0426  0.0207
22478W        W35892  10.250   2.183   0.020 -0.3957  0.0983  0.0177
22479W        W35893   7.770  13.567   1.297 -0.0681 -0.0819 -0.0804
22480W        W35894   0.939   3.509   0.712 -0.0248  0.0114 -0.1706
22481W        W35895  16.801  14.538   1.655  0.0205 -0.1584 -0.1020
22482W        W35896  12.345  17.395   5.067  0.0797  0.0704 -0.0366
22483W        W35897   3.855   7.230   0.796  0.1458  0.1281  0.1365
22484W        W35898  10.321   1.845   1.006  0.1366 -0.0229  0.0682
22485W        W35899  11.507  16.658  14.351  0.4517  0.1394  0.4062
22486W        W35900   1.415  14.099   0.281 -0.0907 -0.0141 -0.3092
22487W        W35901  17.901   9.149  14.478  0.0767  0.1369  0.2710
22488W        W35902  15.093   7.335   4.863 -0.0600  0.2107  0.2879
22489W        W35903   7.432  12.206  12.772 -0.2744  0.1077 -0.1298
22490W        W35904   0.523   5.546  13.790  0.2307 -0.3621 -0.1951
22491W        W35905  13.740  10.529   3.497  0.1642  0.2260  0.0903
22492W        W35906  15.722   1.835   4.845  0.2983 -0.1710 -0.2045
22493W        W35907  14.539   6.197  14.939 -0.0929 -0.0833  0.0886
22494W        W35908   2.750   6.924   6.064 -0.1513 -0.1040 -0.1826
22495W        W35909   6.822   6.104  11.493  0.1076  0.0320 -0.0395
22496W        W35910  14.185   3.243  13.076  0.0792 -0.2694 -0.0060
22497W        W35911   5.526   2.407  16.397 -0.0648 -0.1293  0.0722
22498W        W35912  13.436  11.513   0.785 -0.1179  0.2842  0.0620
22499W        W35913  10.848  11.872   6.697 -0.0415 -0.1161 -0.2010
22500W        W35914   1.104   8.596  11.155 -0.2392 -0.2241  0.1367
22501W        W35915  10.744   2.615  11.389  0.0264  0.1016  0.2285
22502W        W35916   6.125  16.135  11.111  0.2311 -0.1677 -0.0487
22503W        W35917  14.135  16.754   4.540 -0.2152  0.1751  0.3007
22504W        W35918   7.909   9.035   5.954 -0.0283  0.2963  0.1266
22505W        W35919   5.104   5.700   2.649  0.1597 -0.0607 -0.0788
22506W        W35920   0.002   3.178  10.008  0.1126 -0.0406 -0.2399
22507W        W35921   7.346   8.361  12.197 -0.2012 -0.0916  0.3558
22508W        W35922   9.560  16.421   2.996  0.0850  0.1130 -0.0311
22509W        W35923   2.985   4.899   5.830  0.0709  0.3997 -0.2480
22510W        W35924  14.459  11.618   4.038 -0.1228 -0.0124 -0.4858
22511W        W35925   5.352  17.440  16.435  0.0652 -0.1437  0.1444
22512W        W35926   4.858   8.094   1.325 -0.3217  0.1272 -0.1425
22513W        W35927  13.664  12.747   2.576  0.0811  0.0200 -0.1980
22514W        W35928   5.669  15.912  13.555  0.1845  0.1257  0.0428
22515W        W35929   7.666  17.832   4.304  0.1639 -0.0132 -0.0925
22516W        W35930  16.178  16.552  12.703 -0.0003 -0.2010  0.1164
22517W        W35931  12.711  11.454   1.378  0.0028  0.1981  0.1940
22518W        W35932  13.763  11.662  16.723  0.0652 -0.1454 -0.5973
22519W        W35933   3.584  12.661   3.497  0.2531 -0.1075 -0.0582
22520W        W35934  11.404  12.051   0.972  0.0435 -0.1160  0.2096
22521W        W35935  12.154   2.031   1.095  0.1228 -0.1662  0.0172
22522W        W35936   4.052   0.352  13.890  0.2163  0.2683 -0.1549
22523W        W35937  13.093   6.312   4.044 -0.0053  0.0991 -0.1545
22524W        W35938  12.841   5.109  11.424 -0.0385  0.2642  0.3526
22525W        W35939  15.507  14.822   2.284 -0.0943  0.3233 -0.0504
22526W        W35940  10.972  11.761  12.068 -0.0096 -0.1413  0.1455
22527W        W35941   9.737   2.514  13.802  0.1795  0.1113 -0.1430
22528W        W35942  10.901  14.978  12.156  0.1781 -0.2048  0.1124
22529W        W35943   1.045  15.694  14.523 -0.1753  0.0790  0.2521
22530W        W35944   6.587  10.097  12.801  0.0727  0.0008 -0.0673
22531W        W35945  12.137   2.569  16.395  0.0151 -0.0064  0.0066
22532W        W35946   6.223   0.039  16.720 -0.0022 -0.1529  0.2607
22533W        W35947  11.345  15.706   6.351 -0.1061  0.1877  0.1274
22534W        W35948   3.404  17.608   3.947 -0.1210 -0.0115 -0.0694
22535W        W35949  10.399   6.413   2.887 -0.1979  0.0320 -0.1059
22536W        W35950  16.779   4.497   0.962  0.0470 -0.2646  0.2772
22537W        W35951  11.466   0.973   0.451  0.2475  0.0754 -0.2124
22538W        W35952  12.519  11.994  11.818 -0.2955 -0.4192 -0.0724
22539W        W35953   4.621   8.280   4.779  0.0565  0.1449  0.2947
22540W        W35954   9.502   2.049  12.943  0.0300 -0.0798 -0.1164
22541W        W35955  17.293   9.505  11.807  0.1759  0.3587 -0.2366
22542W        W35956  13.918   9.810   1.060  0.0006  0.0767 -0.0074
22543W        W35957   0.963   7.958   1.546 -0.1320  0.1028 -0.0190
22544W        W35958   0.754   6.997   3.715  0.4133 -0.0367  0.2105
22545W        W35959  11.493   8.080   3.490 -0.1729 -0.1220  0.2149
22546W        W35960   6.131   7.896   1.411 -0.0111  0.3493  0.1481
22547W        W35961  15.028   7.354   4.335  0.0331  0.1233  0.0132
22548W        W35962  14.404  16.464   4.037 -0.0728 -0.1445 -0.0978
22549W        W35963  12.022  10.100   4.474  0.1553 -0.0682 -0.3146
22550W        W35964   1.612  17.058  15.250  0.0407 -0.0087  0.1284
22551W        W35965   1.782   7.341   3.411  0.1067  0.2106  0.0088
22552W        W35966   9.651  14.064   5.098  0.0816 -0.0059  0.1794
22553W        W35967   6.879  13.825  13.087 -0.0251  0.0156 -0.0063
22554W        W35968   4.756   7.761   2.392  0.3609  0.2799  0.2077
22555W        W35969   6.387   9.112   5.571  0.0221  0.1978 -0.1828
22556W        W35970  15.700   0.174  15.029  0.0554 -0.0773 -0.1595
22557W        W35971   1.773   4.931   5.308 -0.0632  0.1108  0.1567
22558W        W35972  17.258  12.669  14.683  0.3075  0.0233  0.3523
22559W        W35973  12.613  15.014  11.135  0.3006 -0.1814 -0.0929
22560W        W35974   6.456  11.738  16.483  0.0854  0.2011 -0.0248
22561W        W35975   8.490  11.809  12.034  0.0728  0.3492  0.4686
22562W        W35976  15.093  11.364  13.567  0.2306 -0.0063  0.0609
22563W        W35977  13.603  11.299   5.709 -0.0705  0.5099 -0.3026
22564W        W35978   3.194   8.323   3.354 -0.1486 -0.1423 -0.0390
22565W        W35979  13.673   8.018   6.019 -0.1471  0.4343  0.1681
22566W        W35980  14.950  17.483  11.568 -0.0475 -0.2074  0.1877
22567W        W35981   5.693  10.734   2.858  0.2739  0.0946 -0.0273
22568W        W35982  15.448   4.313   3.638  0.0144  0.0250 -0.2162
22569W        W35983   7.768   4.542   4.015  0.1257  0.2693  0.1179
22570W        W35984  14.988   8.993   2.551  0.0955  0.1359 -0.2742
22571W        W35985   5.324   1.572   3.163 -0.1086 -0.1462  0.0986
22572W        W35986  14.442  10.192  14.693 -0.2443 -0.2690  0.0430
22573W        W35987   9.565   2.257  10.403 -0.1585  0.0417 -0.2366
22574W        W35988   4.301  14.507  11.735 -0.0227  0.2234 -0.0706
22575W        W35989   2.475   3.721   1.773 -0.1786 -0.3854  0.2414
22576W        W35990   0.945   3.154  13.498 -0.0470  0.1011 -0.1269
22577W        W35991   4.953   0.149   4.028 -0.1450  0.0522 -0.1591
22578W        W35992  14.464  16.620   5.008 -0.0771 -0.0891 -0.0355
22579W        W35993   3.725   2.186   2.780 -0.0015  0.1036 -0.1891
22580W        W35994   1.580   7.334   2.440 -0.0633  0.0517 -0.1756
22581W        W35995  10.879  15.703   5.604  0.1259  0.2876  0.0008
22582W        W35996   5.937   4.245  11.343  0.0770 -0.0657  0.0595
22583W        W35997  14.814  16.005  13.044 -0.1295 -0.0550 -0.1952
22584W        W35998  12.945   7.235   0.716  0.1263  0.3286 -0.1075
22585W        W35999   6.583  10.636   1.974 -0.0131 -0.0825 -0.2171
22586W        W36000  12.531   9.044   3.629 -0.0218  0.1032 -0.0496
22587W        W36001  14.451   0.688  10.991  0.1563  0.1155  0.2287
22588W        W36002   3.569   6.279  15.383  0.2896 -0.2477  0.0242
22589W        W36003   1.442   7.024   3.641 -0.1259  0.0216 -0.2184
22590W        W36004  13.250  13.477   5.395 -0.2320 -0.0216  0.2214
22591W        W36005   6.976   8.158   0.423  0.1082 -0.2258  0.1749
22592W        W36006  14.067   2.267   3.934 -0.1974  0.0397  0.3494
22593W        W36007  14.007   3.035  15.473  0.1028  0.0493 -0.3082
22594W        W36008  10.319   2.277   1.769  0.0765  0.1591 -0.0202
22595W        W36009   4.349   2.138   3.808 -0.1111  0.2049  0.0396
22596W        W36010   2.652  11.045   2.938 -0.0437 -0.2228  0.0379
22597W        W36011  13.238  17.540  14.026 -0.1379 -0.2018  0.1578
22598W        W36012   0.641  10.585   6.112  0.0920 -0.0670 -0.1539
22599W        W36013   1.975   5.360  13.562  0.0098  0.0128  0.1385
22600W        W36014  12.557   5.768  14.095 -0.1802 -0.2200  0.0560
22601W        W36015  16.070   9.656   1.600 -0.1575  0.1718  0.2177
22602W        W36016   6.168  11.164  13.481 -0.0376  0.2135  0.0842
22603W        W36017   1.087  17.482  13.973  0.0740 -0.1345  0.0420
22604W        W36018   6.302   0.217  15.808 -0.1882 -0.0762  0.0584
22605W        W36019   0.582  17.895   2.491  0.2414  0.0938 -0.1670
22606W        W36020   6.471   9.752   3.730  0.0829  0.1322  0.1609
22607W        W36021   5.929   8.731   1.846  0.2544 -0.2487 -0.0878
22608W        W36022  11.476  15.290   1.859 -0.0696 -0.0271  0.1301
22609W        W36023   6.848  14.015   6.029 -0.0099  0.3125 -0.1437
22610W        W36024   7.956  12.524   2.866 -0.2000  0.0487 -0.1122
22611W        W36025   9.917   1.526   1.066  0.2235 -0.0746  0.1227
22612W        W36026  10.951   4.517   0.375 -0.0818  0.0409  0.0067
22613W        W36027  13.070  15.595   4.071  0.2163  0.2281  0.1380
22614W        W36028  11.864   8.518   6.510  0.2484  0.2080  0.0991
22615W        W36029  14.743   8.050  15.643  0.2346 -0.1401 -0.1075
22616W        W36030  15.316   9.834   0.860 -0.3454 -0.1740 -0.1679
22617W        W36031   1.533   5.374   4.835  0.3277 -0.0652  0.1110
22618W        W36032   6.988   4.076  14.500 -0.1185 -0.0257 -0.0598
22619W        W36033  16.574  16.849  14.495 -0.1946 -0.1778 -0.1335
22620W        W36034   2.772   5.084  16.334  0.0063 -0.1051  0.0440
22621W        W36035   6.940  13.533   6.223  0.2225 -0.1482 -0.4698
22622W        W36036   8.222  10.892  16.574  0.0739  0.3538 -0.1842
22623W        W36037  12.463   6.727   1.815 -0.1177 -0.0956 -0.0415
22624W        W36038  11.922   3.096   0.434  0.1249 -0.2054  0.4250
22625W        W36039   2.118   2.615   2.045 -0.3109 -0.1980  0.1431
22626W        W36040  12.496  13.815  14.561  0.1601  0.0491  0.0079
22627W        W36041  17.378   2.164  11.292 -0.0005  0.0397  0.0745
22628W        W36042  11.605  11.498  12.897 -0.1009  0.2839 -0.1233
22629W        W36043   4.030  13.208   0.167  0.0480  0.0354 -0.4457
22630W        W36044  16.189  15.510  13.068 -0.2754 -0.0155  0.2495
22631W        W36045   4.447  16.663   5.842 -0.0743  0.1750  0.0067
22632W        W36046   8.302   9.645   2.615  0.1759  0.0286  0.0862
22633W        W36047   0.263   2.766   5.880 -0.2181  0.0227 -0.0241
22634W        W36048   0.654  15.679   4.441  0.1343  0.0657  0.3658
22635W        W36049  14.754   6.292  16.687 -0.0785 -0.0383  0.1265
22636W        W36050   6.808   7.388   2.909 -0.0910 -0.1269  0.0262
22637W        W36051  17.849  13.717   5.078 -0.1766  0.3872 -0.1717
22638W        W36052  14.225   8.243  16.448 -0.1430  0.4229  0.2028
22639W        W36053   4.291   4.840  11.894  0.0133  0.1886  0.2157
22640W        W36054   6.323  17.455   5.588 -0.0881 -0.0449 -0.2079
22641W        W36055  15.843   3.670  11.048  0.0828  0.4131  0.1455
22642W        W36056  10.454  17.438  13.860  0.2459 -0.1485  0.0525
22643W        W36057   8.300   2.694  13.255  0.2232 -0.1798 -0.0075
22644W        W36058  15.730  10.069  14.198  0.0893  0.0848 -0.0903
22645W        W36059   4.705   5.376   3.335  0.1430  0.0323  0.0482
22646W        W36060  17.109   6.488  14.099  0.2623 -0.0881 -0.0950
22647W        W36061   0.548   1.881  13.685 -0.0464 -0.0988 -0.1211
22648W        W36062  15.608  10.672   0.347 -0.1463  0.0257 -0.0114
22649W        W36063   1.805   2.945  15.197  0.1382  0.1021  0.3699
22650W        W36064   2.099  14.139  16.063  0.2370 -0.0967  0.2477
22651W        W36065  10.138   3.755   2.210 -0.2154  0.0603 -0.3861
22652W        W36066   4.945   4.975   1.007  0.2299  0.0499  0.1286
22653W        W36067   5.083   6.691  12.381 -0.0822 -0.2487  0.1306
22654W        W36068  12.079  17.819  14.185 -0.1510 -0.0294 -0.0125
22655W        W36069  17.861   2.795  14.329 -0.1774  0.1297  0.2422
22656W        W36070   4.378  16.616  15.816 -0.2835 -0.0341  0.1737
22657W        W36071   4.440   3.976  16.599  0.0424  0.1771  0.3444
22658W        W36072  15.914   0.175   4.267 -0.3108 -0.1750 -0.0368
22659W        W36073  12.667   0.705   5.253  0.0376 -0.0409  0.4781
22660W        W36074  11.344   6.952   0.577  0.0641 -0.0597  0.3043
22661W        W36075   9.545  12.401  16.051 -0.0377 -0.0994  0.0870
22662W        W36076  11.722   9.138  11.294  0.2007  0.1741 -0.1395
22663W        W36077   2.237   9.557   5.792  0.0528 -0.1846 -0.1668
22664W        W36078   8.156  10.967  12.502  0.0912 -0.3635 -0.1461
22665W        W36079   3.917  15.280   1.241  0.1030 -0.0696  0.6245
22666W        W36080  12.314   4.843  13.054 -0.1821 -0.2002 -0.2403
22667W        W36081  10.077   1.390  13.270 -0.0289 -0.0236 -0.0754
22668W        W36082   5.197   5.516  16.451 -0.0427  0.3287 -0.3144
22669W        W36083   9.665   5.357  10.264 -0.0252  0.0488  0.0558
22670W        W36084  16.690   2.699  11.784 -0.2128 -0.1515  0.0053
22671W        W36085  17.618  17.977  15.480 -0.0285  0.0437  0.0397
22672W        W36086   7.108   8.810  13.006 -0.1546  0.1246 -0.0828
22673W        W36087   6.520  17.209  15.527 -0.2391 -0.2952 -0.0982
22674W        W36088  14.875   7.064  14.219  0.1219  0.0889 -0.3355
22675W        W36089   8.185  14.037   0.720 -0.4617  0.2225  0.0561
22676W        W36090   3.518   4.287   5.301 -0.0185 -0.3698 -0.0058
22677W        W36091  16.277   9.022  14.450 -0.1734  0.2074  0.0332
22678W        W36092  10.192   6.063   3.705  0.1657  0.2671 -0.2034
22679W        W36093   3.024   0.370  13.143  0.0596  0.0524  0.0643
22680W        W36094   0.461  17.817  15.171 -0.2440  0.0571 -0.0202
22681W        W36095   4.197   7.785  13.127 -0.1811 -0.1116  0.1925
22682W        W36096   5.826  15.286   4.435 -0.0425  0.2981 -0.3110
22683W        W36097   3.550  14.630  11.220 -0.2063 -0.1856  0.1082
22684W        W36098  12.590  17.834   6.915 -0.2193  0.1720 -0.1715
22685W        W36099  15.799   3.529   2.083 -0.1298  0.1891 -0.0463
22686W        W36100   1.339  13.856   4.250 -0.0494 -0.2309  0.2241
22687W        W36101   1.993   1.465  12.344 -0.0045  0.0295 -0.2057
22688W        W36102   1.325   3.571   2.608  0.2830  0.1063 -0.0503
22689W        W36103   4.494   2.909   4.664 -0.4589 -0.1878  0.1965
22690W        W36104  16.946  17.785   5.185 -0.1998 -0.1370  0.1000
22691W        W36105   1.828  15.605   0.104 -0.0391  0.3188 -0.1238
22692W        W36106   7.747   5.070   0.646 -0.0770  0.1534 -0.1175
22693W        W36107  10.725   7.554  12.215 -0.1115  0.2659  0.0898
22694W        W36108  10.956  13.385  15.531  0.1016 -0.1234  0.1988
22695W        W36109   1.391   7.204  13.552 -0.0869  0.0927 -0.2728
22696W        W36110  14.323  11.370   5.833 -0.1300 -0.0270  0.2399
22697W        W36111  16.226   6.456  12.615  0.0679 -0.0543  0.0408
22698W        W36112   8.457  17.197   4.677 -0.2258 -0.0456  0.0017
22699W        W36113   3.410  15.866   1.773 -0.0116 -0.1395  0.0749
22700W        W36114  12.730   9.320  12.115  0.2216 -0.1667 -0.0229
22701W        W36115  15.452  10.188   5.050  0.4297  0.1754 -0.2345
22702W        W36116   0.606  16.793   2.832 -0.1542  0.0248  0.1777
22703W        W36117  17.352  13.738   2.015 -0.1467 -0.0424 -0.0964
22704W        W36118   8.253   9.855  15.523 -0.0036  0.1359  0.0931
22705W        W36119   6.247   9.092  11.358  0.1111 -0.1298 -0.0925
22706W        W36120   2.735   2.925   3.924  0.0985 -0.1817  0.1309
22707W        W36121  11.269   8.332   3.862 -0.0820  0.3993 -0.0511
22708W        W36122  15.811  17.799  11.208  0.2291 -0.1386  0.0944
22709W        W36123  16.186  12.275   4.631  0.2026  0.2488 -0.1013
22710W        W36124   5.233   2.671   3.160 -0.1580 -0.2086  0.0241
22711W        W36125  17.023   2.026  15.885  0.0316  0.2671  0.1435
22712W        W36126  16.591   7.408   2.812  0.1699  0.0679  0.0171
22713W        W36127  15.358   1.240   0.667  0.0540 -0.1303 -0.2687
22714W        W36128  16.843   1.361   4.797 -0.2166 -0.0058 -0.2117
22715W        W36129   1.610  16.556  14.491 -0.0809  0.0324  0.4633
22716W        W36130   2.828   2.392  11.501  0.0988  0.2124  0.0915
22717W        W36131   8.660  15.720  11.804 -0.0823 -0.0505 -0.2524
22718W        W36132   8.616   3.519   1.825 -0.0145  0.1154 -0.0603
22719W        W36133  13.594   9.947   2.735  0.0150 -0.0686 -0.1834
22720W        W36134   7.371   7.342   2.196  0.2661  0.1743 -0.0887
22721W        W36135  15.159   2.423   2.173 -0.0693  0.1543  0.1690
22722W        W36136  14.446  13.287   2.599 -0.0843  0.1982 -0.1081
22723W        W36137   5.326   8.783   6.360 -0.1637 -0.1640  0.0204
22724W        W36138  12.813   2.614   5.590 -0.2214 -0.1386  0.1669
22725W        W36139  14.139   6.448   1.420 -0.3451  0.0098 -0.1093
22726W        W36140   0.100   7.500   5.127  0.1962  0.0411 -0.1563
22727W        W36141   4.684  10.132  10.893 -0.1498 -0.2410  0.2828
22728W        W36142   2.337  17.925   2.416 -0.0878 -0.2848  0.1539
22729W        W36143  16.797  13.023  14.974 -0.2254  0.0040 -0.0170
22730W        W36144   1.005   6.035   2.887  0.0241  0.4100  0.3107
22731W        W36145   8.717  16.893  11.481  0.3392 -0.0696 -0.1505
22732W        W36146   1.401   1.242  10.078  0.1635  0.3149  0.1855
22733W        W36147   2.389  12.521   1.755 -0.2324  0.0500 -0.0785
22734W        W36148   3.851  15.293  16.247 -0.2066 -0.4467 -0.3668
22735W        W36149   7.775   9.853   5.856  0.0535  0.2609  0.0347
22736W        W36150   9.196  16.414   6.502  0.0677  0.3528  0.1723
22737W        W36151   4.719   5.240  14.603 -0.1412  0.1063  0.1276
22738W        W36152  10.327  14.547   1.350 -0.0930 -0.2424  0.3004
22739W        W36153   8.811   3.821  10.757 -0.3598 -0.3468  0.2635
22740W        W36154   4.104  12.171  10.342 -0.1917  0.1011 -0.0246
22741W        W36155  16.791   5.179   3.350  0.1539 -0.0584 -0.0901
22742W        W36156   6.145  14.551   4.150 -0.0746  0.1054  0.3123
22743W        W36157   5.574   0.640  11.879  0.0797  0.0031 -0.2074
22744W        W36158  13.681  14.335  13.160 -0.1197  0.0181 -0.1555
22745W        W36159   5.027   9.559  12.565  0.0334  0.2258  0.1791
22746W        W36160  17.944  11.713  12.620  0.1674  0.1572  0.1593
22747W        W36161   2.499  17.425   3.743  0.0381  0.0479  0.5218
22748W        W36162   0.167   5.060   1.355 -0.0166  0.0656  0.2035
22749W        W36163   4.977   4.749  11.199  0.0077  0.1691 -0.2507
22750W        W36164  10.707   9.499  16.474  0.2274 -0.1435 -0.1732
22751W        W36165  17.065   2.479  15.987  0.1673 -0.0100 -0.1230
22752W        W36166  12.638   2.027   0.298 -0.3697 -0.0294 -0.0622
22753W        W36167  17.733  15.568   4.494  0.1715  0.2788  0.0368
22754W        W36168   3.275  16.761  13.908 -0.2004 -0.2193 -0.0195
22755W        W36169  17.142   5.301   3.689 -0.0537  0.1271  0.0666
22756W        W36170   7.860   8.527  14.991 -0.0494 -0.4638 -0.1697
22757W        W36171   3.645   0.398   3.798 -0.2526 -0.0877 -0.4491
22758W        W36172   2.055  12.195  10.830  0.0851  0.3024  0.1096
22759W        W36173   3.534   2.595  13.824 -0.1236  0.3179 -0.0984
22760W        W36174  13.214   7.333  14.047 -0.0453 -0.1682 -0.0080
22761W        W36175  17.212  16.826  10.720  0.1024  0.0540 -0.0510
22762W        W36176   6.228   9.741   5.136  0.2184  0.0955  0.2212
22763W        W36177   3.548   4.938   2.091  0.0181  0.0510 -0.2560
22764W        W36178  11.123  13.472  11.247  0.1567 -0.0323 -0.2443
22765W        W36179  13.091  11.787   1.628  0.0367 -0.0782 -0.1063
22766W        W36180  16.201  12.949   5.530  0.1116  0.0653  0.2841
22767W        W36181  16.579  15.340   3.985  0.0688 -0.0399 -0.1517
22768W        W36182   3.438  15.759  12.995  0.0917 -0.0654 -0.1732
22769W        W36183   3.469   6.694   2.447  0.0650  0.2180  0.0475
22770W        W36184  11.323   3.606  11.296  0.0890  0.0767  0.1034
22771W        W36185  10.530   9.239  14.334 -0.0259  0.1074  0.1527
22772W        W36186  14.830   0.765   6.534  0.0598 -0.1143 -0.0290
22773W        W36187   8.693  16.307  16.492  0.1831 -0.0928  0.0031
22774W        W36188   5.037  16.723   3.737 -0.0427  0.0578 -0.2375
22775W        W36189   7.136   0.592  15.526  0.2766  0.2191 -0.2934
22776W        W36190   5.463   0.409   1.744 -0.2167  0.2254 -0.0512
22777W        W36191  11.624   5.186   4.467 -0.1203 -0.2981  0.0719
22778W        W36192   2.104  11.813  13.422 -0.1841 -0.0460 -0.1376
22779W        W36193  16.324   1.849  14.486 -0.1353  0.0587  0.0651
22780W        W36194  14.988   9.512   0.706  0.1146 -0.0363  0.2772
22781W        W36195  11.971   7.632   0.352  0.3951 -0.1130  0.1435
22782W        W36196  16.169   8.044   0.098 -0.2763 -0.0173 -0.0456
22783W        W36197  13.535   0.303  12.238 -0.1107 -0.1686 -0.0582
22784W        W36198   3.234  11.989   5.181 -0.0499 -0.0426  0.0877
22785W        W36199   3.943  17.874  10.579 -0.1463 -0.1354  0.0500
22786W        W36200   4.153  17.078  11.579 -0.1243 -0.2211  0.0431
22787W        W36201   9.522  17.232   3.215  0.3608  0.0342  0.1631
22788W        W36202   2.447  15.459   2.400  0.1300 -0.0429  0.1736
22789W        W36203   6.379   7.884   4.387  0.2015 -0.3036 -0.0518
22790W        W36204   8.474   8.661  12.720  0.1394 -0.2292  0.1034
22791W        W36205   9.101   7.990  11.406  0.1292  0.5844  0.0090
22792W        W36206   2.610  10.728  11.530 -0.0333  0.1087  0.0318
22793W        W36207  15.100   3.396  15.664  0.1578  0.1690 -0.0826
22794W        W36208   4.245  17.203  16.378 -0.0213 -0.1619 -0.0756
22795W        W36209   1.220   8.695   5.670 -0.0993 -0.0668 -0.1357
22796W        W36210  12.193  13.288  15.244 -0.0067  0.0436 -0.0343
22797W        W36211  16.844  17.928  10.611 -0.0616 -0.0195  0.2611
22798W        W36212   2.819  17.716  15.785  0.0907  0.0014 -0.5476
22799W        W36213   2.170   6.468   3.859  0.0037 -0.1133  0.0170
22800W        W36214   8.718  12.823  14.117  0.3430  0.1204  0.2571
22801W        W36215  15.221  12.593   3.216 -0.1504 -0.2554  0.0933
22802W        W36216   9.279  10.978   5.116  0.0830  0.0611  0.2929
22803W        W36217   0.617   2.444   3.459  0.0320  0.2813 -0.2233
22804W        W36218  17.858   5.593   2.101  0.2909 -0.1092 -0.1026
22805W        W36219   6.622   6.276  15.653 -0.0385 -0.1574  0.0945
22806W        W36220  11.009  11.436   5.260 -0.0441 -0.0734  0.0460
22807W        W36221  12.461  16.972   4.414 -0.0189 -0.0337  0.0460
22808W        W36222   5.057   0.139  10.519 -0.1231  0.2448 -0.0676
22809W        W36223   6.045  12.392  13.325 -0.1005 -0.1145  0.0466
22810W        W36224  13.312  16.844   4.528 -0.1502  0.0895 -0.0360
22811W        W36225   3.281  10.145  13.848 -0.0381 -0.1494 -0.0707
22812W        W36226  17.785   8.788  13.695  0.0494 -0.1466 -0.0031
22813W        W36227   9.917   4.126   2.928 -0.0166  0.0478 -0.2006
22814W        W36228  10.614   1.752  16.049 -0.0948 -0.2514  0.1187
22815W        W36229   9.168   1.185  11.092 -0.2929 -0.1974  0.1458
22816W        W36230   1.499   5.291   2.719  0.0365 -0.1062 -0.0406
22817W        W36231   1.517  14.402   5.078 -0.0328 -0.2112  0.4774
22818W        W36232   2.825   1.154  13.954  0.0563  0.3148  0.0353
22819W        W36233  11.866  11.665  12.413 -0.0081 -0.1812 -0.0297
22820W        W36234  11.585   7.302   4.761  0.0425  0.0215 -0.0373
22821W        W36235  15.768  12.620   4.695  0.2652 -0.1928 -0.1572
22822W        W36236   0.616  14.972  16.634 -0.1327  0.3091  0.0080
22823W        W36237  16.858  13.778   5.829  0.0927  0.0421 -0.1662
22824W        W36238   7.412  12.241  11.844  0.1744  0.0497  0.2347
22825W        W36239  11.612   0.906   4.269  0.1573 -0.0984  0.0798
22826W        W36240   7.377   3.351  15.487 -0.2043 -0.2753  0.1025
22827W        W36241   1.995   3.238  14.778 -0.2683  0.0927 -0.1307
22828W        W36242   6.978   4.504  11.338 -0.1339  0.2221 -0.1937
22829W        W36243   7.481  16.490   1.445 -0.2015  0.1116  0.0878
22830W        W36244  17.207   4.241   3.141 -0.1305 -0.2981  0.0865
22831W        W36245   3.294   3.696  14.429 -0.2052 -0.2718 -0.1105
22832W        W36246  12.711   2.871   1.899  0.1636 -0.1185 -0.3555
22833W        W36247   3.890   5.378   2.549 -0.1342 -0.0027 -0.1535
22834W        W36248   0.786   3.327   1.168  0.0922  0.1752  0.1999
22835W        W36249   6.151   3.524   4.743 -0.5155 -0.1769  0.2416
22836W        W36250   1.494  10.708   2.933 -0.2312 -0.0566 -0.2779
22837W        W36251  11.680  15.820  12.235  0.1491  0.6370 -0.2211
22838W        W36252  10.359  14.777  15.181  0.0138 -0.0440  0.0753
22839W        W36253  17.900  11.396  11.125  0.0376 -0.0844 -0.0049
22840W        W36254   8.240   0.958   5.658 -0.0960 -0.0282  0.2004
22841W        W36255   1.641   2.558  10.792 -0.1723 -0.0342 -0.0007
22842W        W36256  10.279   3.701  14.145  0.2640 -0.3240  0.0828
22843W        W36257   8.892  17.659  15.525 -0.0900 -0.1375  0.1072
22844W        W36258   7.410  17.565   1.054 -0.0960  0.0905 -0.1081
22845W        W36259  15.707   6.611   4.296 -0.2621 -0.1529  0.1016
22846W        W36260  16.748  16.786  16.669 -0.1909  0.0327 -0.2251
22847W        W36261   9.224  16.933   1.283 -0.2250  0.1957 -0.0669
22848W        W36262   8.791   7.607  14.469  0.1009  0.0009  0.2208
22849W        W36263  15.822  11.213  11.866 -0.3452 -0.2047  0.1427
22850W        W36264   0.117   0.535   5.379  0.0334 -0.4465  0.1189
22851W        W36265   4.671  17.334   1.484 -0.0167 -0.0480 -0.0414
22852W        W36266  17.265   0.970   2.717  0.0657 -0.5348  0.0404
22853W        W36267   7.872   6.152  14.321 -0.0009  0.0415  0.2637
22854W        W36268  17.832   5.083  14.532 -0.1661 -0.0191 -0.1928
22855W        W36269  10.793   9.341  13.578  0.0540 -0.0261  0.1111
22856W        W36270  16.594   3.864  11.935  0.1280  0.1497  0.1246
22857W        W36271   9.334   6.506   4.233 -0.0617  0.0417  0.2636
22858W        W36272   4.950   4.446   1.831 -0.1994 -0.0332 -0.5950
22859W        W36273   1.888   2.367  10.367  0.2135  0.1600 -0.1367
22860W        W36274  14.346  11.013   6.196 -0.2472  0.3449 -0.1024
22861W        W36275  12.497  11.206  12.718  0.3181 -0.1716 -0.0292
22862W        W36276   3.432  17.058   4.198  0.3264 -0.2168  0.2325
22863W        W36277   8.414  15.199   4.687 -0.2102 -0.1236 -0.0743
22864W        W36278   4.444  14.441  12.262 -0.1682  0.0671 -0.0363
22865W        W36279   3.723   8.602   1.828  0.1299  0.1664 -0.0359
22866W        W36280  16.991  17.492   4.400 -0.1716 -0.1738  0.0048
22867W        W36281   3.822   8.058  12.146 -0.0074  0.1697 -0.0070
22868W        W36282   0.706  12.081   3.685 -0.1228 -0.0425 -0.1261
22869W        W36283   8.401   8.251   4.308 -0.0101  0.1035  0.0875
22870W        W36284  16.923  13.580  10.819  0.0121  0.1024 -0.1070
22871W        W36285   4.891   2.383  11.234 -0.1634 -0.0488 -0.2666
22872W        W36286  12.844   5.560   0.738 -0.2395 -0.0136 -0.3749
22873W        W36287   8.402  14.277   6.304 -0.0208  0.1630 -0.2229
22874W        W36288   8.308  11.654  14.001  0.2875  0.3734  0.0111
22875W        W36289  13.830   7.706   1.093  0.0445  0.1300 -0.1292
22876W        W36290   7.518   9.358  13.720  0.4062 -0.0905  0.1214
22877W        W36291   0.642  14.353  10.927 -0.1535 -0.0731  0.4203
22878W        W36292   7.000  17.482   1.931 -0.1896  0.1883  0.1338
22879W        W36293  13.655  11.677   4.376 -0.1886 -0.2663  0.1162
22880W        W36294   6.146  14.504  15.170 -0.0315  0.1782  0.1087
22881W        W36295   8.162   5.896  13.366 -0.0659 -0.0231  0.0367
22882W        W36296  13.501   9.011  12.202 -0.1402  0.0933  0.0679
22883W        W36297  10.407  17.921   5.539  0.1192 -0.1222  0.2116
22884W        W36298  10.935  14.084  13.821 -0.2151 -0.2570 -0.0262
22885W        W36299  10.731  16.646   2.647 -0.0625  0.1263 -0.3103
22886W        W36300  10.413   9.725  15.139 -0.2314  0.1488  0.4045
22887W        W36301  16.107   1.078  14.766  0.1077  0.2854  0.2012
22888W        W36302  10.417  12.672   0.152 -0.1331 -0.0428  0.2368
22889W        W36303   9.495  10.179  12.281  0.0752  0.2762  0.2023
22890W        W36304   5.600   1.005  15.105 -0.1726 -0.0610  0.1746
22891W        W36305   1.126  17.023  13.660  0.0229  0.0117 -0.0680
22892W        W36306   3.729   3.750  14.727 -0.2549  0.1231 -0.0878
22893W        W36307   8.781  14.607  12.835  0.1609 -0.0015  0.0350
22894W        W36308  14.620   9.396   6.536 -0.4413 -0.1007  0.3648
22895W        W36309   1.959  16.139  10.631  0.1118  0.1041 -0.1956
22896W        W36310   2.280  15.521  16.046  0.0806  0.0979 -0.1456
22897W        W36311   1.799  10.057  15.652 -0.0672 -0.2643 -0.0162
22898W        W36312   6.061   8.612  16.340  0.0649 -0.2213  0.0416
22899W        W36313  13.974   0.194   4.257  0.0202 -0.0751 -0.2683
22900W        W36314  13.977   3.303   2.892  0.2826  0.0051 -0.2195
22901W        W36315   1.654  12.586  11.247  0.0419 -0.1008 -0.0229
22902W        W36316   4.728  11.026   1.617  0.0719 -0.0725  0.0457
22903W        W36317   6.114  12.219  13.822 -0.2734 -0.1012 -0.3216
22904W        W36318  17.470  13.350  13.205  0.1444 -0.0495  0.1109
22905W        W36319   6.619   3.946   4.224 -0.0556  0.0515 -0.0919
22906W        W36320   9.469   3.435  11.377 -0.1221  0.1324  0.0944
22907W        W36321  10.132   1.519  12.530  0.0014 -0.1713  0.0583
22908W        W36322   5.721   2.318   3.682 -0.1948 -0.0422  0.0729
22909W        W36323   9.800  16.112   4.680 -0.0763  0.1327  0.0727
22910W        W36324   7.080  13.137   2.805 -0.0025  0.0698  0.1158
22911W        W36325   6.695   3.303   1.875 -0.3479  0.0661  0.0204
22912W        W36326  14.508  15.132   0.301  0.1045 -0.1798 -0.4784
22913W        W36327   2.356  14.294   4.913  0.0768 -0.1864 -0.2714
22914W        W36328  16.387   9.656  13.664 -0.0494  0.0094  0.1232
22915W        W36329   9.692  13.919  13.733 -0.1863 -0.2171  0.3155
22916W        W36330  10.476   4.151   3.781  0.0704 -0.0777  0.0867
22917W        W36331   1.512   0.294  14.078  0.2039  0.1066  0.0433
22918W        W36332  16.583  14.390  15.599 -0.1733  0.1199  0.0344
22919W        W36333   4.386   5.500   2.216  0.2334 -0.0800 -0.0313
22920W        W36334  10.551   4.780  11.712  0.3008  0.1307 -0.1534
22921W        W36335  12.534   5.495  11.414  0.1680  0.2433  0.0113
22922W        W36336   5.755  13.529   4.753 -0.3300 -0.0841  0.3303
22923W        W36337  11.509  15.498   1.114  0.0824  0.1517 -0.3339
22924W        W36338  16.492  17.103   4.676  0.1953 -0.1208  0.3377
22925W        W36339   3.597   4.131   1.549 -0.5958  0.1710  0.1695
22926W        W36340   2.410   7.863  16.209  0.3764  0.1250  0.0670
22927W        W36341  15.484  13.615   2.389 -0.0332  0.0736 -0.1701
22928W        W36342   3.499   5.257   3.918  0.1122 -0.1359  0.0388
22929W        W36343   3.400  14.633   4.735 -0.0917 -0.2657  0.2765
22930W        W36344   3.274  15.316   0.226  0.2708  0.0272  0.0323
22931W        W36345   6.916  14.295   5.285  0.1365 -0.3477 -0.0978
22932W        W36346   1.680  11.645  13.188 -0.1492 -0.1746 -0.0119
22933W        W36347   0.832   3.459  15.974 -0.0756 -0.4038  0.2026
22934W        W36348   8.153   3.933   0.363 -0.1337 -0.1735 -0.0498
22935W        W36349   1.220   3.736   4.711  0.2909 -0.2689 -0.2246
22936W        W36350  12.244  17.050   3.890  0.2154 -0.0062 -0.2763
22937W        W36351   0.780   6.012   4.249  0.2616  0.0417 -0.0961
22938W        W36352   5.925   0.367   2.972 -0.2939 -0.0276  0.0975
22939W        W36353  16.656   5.843  11.164  0.3629  0.0684  0.1173
22940W        W36354  14.413   9.982   4.633  0.1716  0.0684  0.0416
22941W        W36355  15.447   4.577  11.117  0.1235 -0.0192  0.3601
22942W        W36356  13.293   9.179   2.863 -0.0975  0.0469  0.0088
22943W        W36357   9.650   3.024  13.756  0.1964  0.1940  0.1375
22944W        W36358  17.051  16.657   3.467 -0.1954  0.1031  0.0047
22945W        W36359  15.180  15.234  11.065 -0.0546 -0.1600  0.0848
22946W        W36360   6.843   4.228  10.326  0.1265  0.0544  0.3388
22947W        W36361  12.157   6.452  15.413  0.0835  0.2708  0.2471
22948W        W36362  13.441  16.329  14.198 -0.0772 -0.0364 -0.0879
22949W        W36363  10.805  13.259   2.231 -0.2461 -0.0252  0.1327
22950W        W36364  14.164   9.785  14.706 -0.0241  0.2567 -0.0363
22951W        W36365   2.707   7.399  12.334  0.0364 -0.1196 -0.1580
22952W        W36366  13.820  13.573  12.333  0.0293 -0.0700 -0.0187
22953W        W36367   1.013   1.208   1.316 -0.0723  0.1507 -0.1097
22954W        W36368  13.889   5.567  13.201 -0.1821 -0.1406  0.4650
22955W        W36369  17.138   6.359  12.283 -0.1268 -0.1519 -0.0671
22956W        W36370  16.644  15.398  14.542 -0.2598  0.0701  0.3285
22957W        W36371   1.330  15.225  11.856 -0.1915  0.1407  0.0172
22958W        W36372  14.721   5.174   0.367 -0.1321 -0.2178  0.2370
22959W        W36373  17.709   6.879   1.581  0.2544  0.0379 -0.0814
22960W        W36374  10.750   8.141  16.589  0.0234  0.0630 -0.1460
22961W        W36375  14.817   9.137  12.356 -0.1445  0.0728  0.1960
22962W        W36376  13.768   3.254  11.409 -0.0924 -0.1560 -0.0597
22963W        W36377   7.140  10.970   0.442  0.0645  0.2126 -0.1202
22964W        W36378   8.497   3.282   3.134 -0.1349 -0.1936 -0.0658
22965W        W36379   5.534   3.749   5.049  0.2539 -0.2974 -0.2810
22966W        W36380   2.743   4.533  16.335  0.3302  0.0199 -0.0002
22967W        W36381  15.552   9.423   3.778  0.0442  0.1301  0.1165
22968W        W36382  13.396   1.886  13.885 -0.0719 -0.0672 -0.1375
22969W        W36383   5.299  17.057   1.341  0.1001  0.1051 -0.4584
22970W        W36384  17.543   3.426   5.174  0.2020 -0.0737  0.1724
22971W        W36385   8.797  13.705   2.278 -0.4020  0.1650 -0.0935
22972W        W36386   2.135   9.179  14.856  0.2401 -0.0122  0.1626
22973W        W36387   0.282   4.757   1.788 -0.0887 -0.0503 -0.5448
22974W        W36388  12.594   1.474  12.357  0.1029 -0.2574  0.1563
22975W        W36389  16.741   6.614  12.088  0.0254 -0.0355 -0.1909
22976W        W36390   3.411   1.740  15.640  0.0420 -0.3463 -0.3878
22977W        W36391  16.176   0.355   5.828 -0.1159 -0.1237  0.0227
22978W        W36392   2.370  11.117   5.268  0.0894  0.1640  0.0825
22979W        W36393  15.500   8.653   0.759  0.0399  0.0287 -0.1779
22980W        W36394   7.365   4.548  16.322 -0.0096 -0.0855  0.3512
22981W        W36395   3.576   0.407  10.626  0.1551 -0.0258 -0.1126
22982W        W36396  16.942  10.563  13.040  0.2452  0.2509  0.2865
22983W        W36397  15.662   1.117   1.089  0.1127  0.0978 -0.1727
22984W        W36398  16.841   0.922  16.428  0.1868  0.1409 -0.0055
22985W        W36399  10.253   4.955   1.485 -0.0105  0.1633 -0.3221
22986W        W36400   4.684   1.239   5.037  0.0093  0.0049 -0.2138
22987W        W36401   9.537   1.801   0.821 -0.1017 -0.2171 -0.2793
22988W        W36402   9.818   3.758   1.443  0.1885 -0.0737 -0.0297
22989W        W36403   2.970   8.579  16.454  0.0778  0.1081  0.4647
22990W        W36404   0.375   1.804   0.796  0.2301  0.1544 -0.1009
22991W        W36405   3.978  13.274  15.455  0.1370  0.1369 -0.5588
22992W        W36406   4.907   9.166  15.151 -0.1988  0.0408  0.0816
22993W        W36407   3.298  12.193  16.365  0.1994  0.1282  0.0339
22994W        W36408  13.508   8.165  12.076 -0.2671 -0.1544  0.2080
22995W        W36409   0.142   6.196  11.995 -0.0207 -0.0934 -0.0906
22996W        W36410   1.967  11.672   3.453 -0.0854 -0.1396 -0.0308
22997W        W36411   2.347  15.727  12.716  0.0375 -0.1363 -0.2161
22998W        W36412   6.620  16.332   3.944  0.0257  0.0004  0.0111
22999W        W36413  16.066   7.378   4.506 -0.1428  0.1743 -0.2469
23000W        W36414   3.018   7.257  14.031  0.0726 -0.1241 -0.3964
23001W        W36415   1.289  12.736   5.237 -0.0353  0.1669 -0.0775
23002W        W36416  12.873  16.838   1.342  0.0696  0.0395 -0.1599
23003W        W36417  10.573  15.663  11.586  0.2818 -0.0885 -0.0735
23004W        W36418   5.988  13.428  12.422  0.0007  0.0801  0.1547
23005W        W36419   5.741  11.131   3.123  0.2220 -0.3133  0.2914
23006W        W36420  10.864   4.702  15.526  0.1634 -0.0134  0.1237
23007W        W36421  10.695  17.425   1.571 -0.0819 -0.1341  0.5009
23008W        W36422   3.114   1.105  16.536 -0.2759 -0.2338  0.3342
23009W        W36423   8.419   4.140  14.144 -0.2727 -0.1866 -0.1628
23010W        W36424   2.965  12.581   4.516  0.0308 -0.1221  0.1032
23011W        W36425  10.287   7.565   5.980  0.0117 -0.2398 -0.1609
23012W        W36426  16.958   5.887   0.560  0.0685 -0.1507 -0.2195
23013W        W36427   7.760  14.515   4.146  0.1430 -0.2088 -0.1449
23014W        W36428  15.815   6.685  14.447  0.0100 -0.3393 -0.0261
23015W        W36429   6.399   9.484   0.466 -0.2054 -0.1106  0.0831
23016W        W36430   4.509   7.581   4.356 -0.0695  0.0957  0.0606
23017W        W36431  17.054  13.512   4.615 -0.0539 -0.1993 -0.1366
23018W        W36432   1.489   3.454  12.928 -0.0107 -0.2088 -0.3081
23019W        W36433   0.758   6.105  13.428 -0.1760 -0.2856  0.1107
23020W        W36434   7.359  12.475   1.169  0.1794 -0.2481 -0.1087
23021W        W36435  13.177   8.966  11.623 -0.1743 -0.1381  0.1925
23022W        W36436  15.763   5.974  16.056 -0.0495  0.3065  0.0137
23023W        W36437  14.626  10.440  15.485 -0.1947  0.2099  0.0061
23024W        W36438  13.419  15.347  12.496 -0.0186 -0.0774 -0.0112
23025W        W36439  10.663   7.444   4.514 -0.1088  0.0443 -0.1411
23026W        W36440  17.904  10.586  16.568 -0.3344 -0.0314  0.1073
23027W        W36441   5.327   8.181  16.686  0.0756  0.0335 -0.3658
23028W        W36442  15.139   2.051  13.443 -0.3847  0.0328 -0.1187
23029W        W36443   2.621  10.029  13.227 -0.2546 -0.0210  0.0202
23030W        W36444  15.689  15.530  14.247  0.1127 -0.2384  0.1262
23031W        W36445   4.281   7.603  15.658 -0.1978 -0.1169  0.1129
23032W        W36446  15.757  13.973  13.439  0.0329  0.0910  0.1376
23033W        W36447   9.168  15.488   3.282 -0.0118 -0.0379  0.0316
23034W        W36448   4.999  17.161   1.944 -0.1886  0.3512 -0.0510
23035W        W36449   0.588  17.333  14.049  0.0904 -0.4672  0.0488
23036W        W36450   9.001   6.574   3.310  0.0528 -0.0920  0.2400
23037W        W36451   5.124   0.635  11.613  0.4092  0.1311 -0.2358
23038W        W36452   2.725   5.091  13.362 -0.0218  0.1070  0.1902
23039W        W36453  13.021   9.838   3.990  0.2449 -0.0890  0.1888
23040W        W36454  12.953   2.948   3.814  0.2397 -0.3350  0.2302
23041W        W36455  17.874   2.546  15.555 -0.2491 -0.0535 -0.0014
23042W        W36456   8.434   4.389  13.598 -0.2215 -0.1139  0.0270
23043W        W36457  15.698   4.260  10.165  0.1309 -0.0701 -0.2441
23044W        W36458   0.923   7.287  10.749 -0.2448  0.1913 -0.1707
23045W        W36459  13.319   8.552  11.826  0.0720  0.1741 -0.1101
23046W        W36460  14.403   0.973  15.052  0.2648 -0.0343 -0.1359
23047W        W36461   1.350   2.852   3.619 -0.2206  0.0836 -0.0832
23048W        W36462  10.764  17.992  15.950 -0.1010 -0.0105  0.0547
23049W        W36463   8.783   5.183  11.723  0.0301 -0.0448 -0.0772
23050W        W36464   9.128   6.106  10.626 -0.2728 -0.1667  0.0614
23051W        W36465  16.569   4.786   5.608  0.3597 -0.0291 -0.1430
23052W        W36466  17.546   5.109  12.887  0.2125 -0.0704 -0.0869
23053W        W36467   2.783  10.418   2.250 -0.3545  0.2304  0.1618
23054W        W36468  14.185   3.217   1.039  0.3150  0.0411 -0.3198
23055W        W36469  16.167   3.646  15.523  0.0094 -0.0649 -0.0929
23056W        W36470   5.441  13.766  14.474  0.2700 -0.0097 -0.1035
23057W        W36471  14.344   6.649   2.271 -0.0873  0.0852  0.0675
23058W        W36472   3.553   1.101   1.820  0.2980  0.1754 -0.0742
23059W        W36473   4.449  13.953  11.801 -0.0008 -0.1226  0.0580
23060W        W36474   8.741   7.270   2.334 -0.0339  0.0072  0.0931
23061W        W36475  13.338  15.439   2.359  0.2881 -0.2806  0.3834
23062W        W36476  11.503  11.351  13.408 -0.1203 -0.0062  0.0726
23063W        W36477  17.237  11.907  10.190 -0.0351 -0.1495  0.0734
23064W        W36478   8.509   5.588  12.045 -0.0799  0.5356 -0.1524
23065W        W36479  11.700  11.531   1.435  0.1755  0.1193 -0.1378
23066W        W36480  13.686   5.980  12.845  0.3425 -0.0302  0.1591
23067W        W36481   4.303  15.975  15.202 -0.2216 -0.2178  0.0339
23068W        W36482  10.834  10.972   5.392  0.3511  0.0091  0.2429
23069W        W36483   6.447  14.418   5.305  0.2964  0.0441  0.1688
23070W        W36484  11.643  16.868   0.209  0.1331 -0.0264 -0.0314
23071W        W36485   8.706   8.076   7.065 -0.0155 -0.3107 -0.1511
23072W        W36486   7.998  14.807  16.190 -0.0100 -0.0866  0.0769
23073W        W36487   7.393   8.390  12.693 -0.3444  0.1505 -0.1683
23074W        W36488  11.724  17.444  14.215  0.1410 -0.2364 -0.2417
23075W        W36489   1.960  10.611   2.265 -0.0877 -0.0047 -0.0487
23076W        W36490   5.879  15.241  11.065 -0.0258  0.1124  0.3827
23077W        W36491  14.466   9.074  16.001  0.3118  0.0898  0.2218
23078W        W36492  15.358   9.754   1.333 -0.0307  0.1167 -0.0690
23079W        W36493  16.171  15.197  14.383 -0.1830 -0.1593  0.1637
23080W        W36494   7.156   4.572   5.602  0.2133 -0.1485  0.2707
23081W        W36495   3.585   8.376   3.012 -0.2222  0.0096  0.3352
23082W        W36496  16.635   3.087  12.148  0.0425  0.0707 -0.0695
23083W        W36497  10.928  14.143  11.758  0.1494 -0.0735 -0.0219
23084W        W36498  13.339  10.753   3.806  0.2128 -0.3110  0.1673
23085W        W36499  15.744  16.808  10.806 -0.1927  0.0408  0.0759
23086W        W36500   2.981   0.709  10.412  0.0539 -0.1791 -0.0686
23087W        W36501   6.005  17.369  11.824 -0.0108 -0.2761  0.1220
23088W        W36502   2.063   0.535  14.123 -0.0043  0.1818  0.2050
23089W        W36503   1.891   7.326   1.723  0.2885  0.1425 -0.0257
23090W        W36504   5.313  17.022  14.954 -0.2882  0.1798 -0.2226
23091W        W36505   5.837   5.228   3.938  0.0834 -0.1557  0.2091
23092W        W36506   6.639   4.173   1.889 -0.1884 -0.0336 -0.0303
23093W        W36507   1.441  12.369  11.877  0.0681 -0.1360 -0.0248
23094W        W36508  12.609   8.250  12.906  0.0462  0.3164  0.1304
23095W        W36509   5.510   6.062   1.711  0.0641 -0.0690 -0.0352
23096W        W36510   3.894   1.859   2.447  0.1021 -0.0572 -0.1137
23097W        W36511   9.697   2.516   5.271 -0.0086 -0.3273 -0.0804
23098W        W36512   2.101   5.697   2.174  0.0696 -0.1597  0.0654
23099W        W36513   5.892  11.455  15.832 -0.0426  0.2181 -0.0953
23100W        W36514  15.869   6.070   5.518  0.3008 -0.0689  0.0476
23101W        W36515   5.552   5.849   3.016  0.1470  0.0465 -0.3865
23102W        W36516  14.946   8.814   4.493 -0.0116  0.1647 -0.0419
23103W        W36517  12.535  14.890  16.499 -0.1449 -0.0685  0.2140
23104W        W36518   7.400   9.830  12.959 -0.0060 -0.1631 -0.1221
23105W        W36519   5.481   6.949   5.877 -0.2898  0.1682  0.1407
23106W        W36520  15.993   4.170   0.914  0.1486 -0.0024  0.2433
23107W        W36521  11.474   2.360  14.491 -0.0525  0.2675 -0.0425
23108W        W36522   7.146  17.322  16.438  0.0650  0.0158 -0.1125
23109W        W36523  15.116  15.947   4.755 -0.0234 -0.1065 -0.2848
23110W        W36524   9.497  15.486  14.834  0.0449  0.1512  0.0473
23111W        W36525   3.637  15.533   4.275  0.3775 -0.0248 -0.0787
23112W        W36526   0.583   9.685   4.173 -0.0999 -0.2613 -0.1936
23113W        W36527  12.612  13.884   4.269  0.1790  0.0306  0.0395
23114W        W36528   7.592  12.965  13.192 -0.1003  0.1931 -0.1103
23115W        W36529  12.293  15.180   4.953 -0.0427  0.1914  0.0212
23116W        W36530  13.206   3.175  11.289  0.0593  0.0209 -0.3258
23117W        W36531  10.776   5.112  16.332  0.3192  0.2317  0.0099
23118W        W36532  12.484  17.370  12.338 -0.1564 -0.0982  0.0308
23119W        W36533   5.999  16.410  10.662 -0.1951  0.2481  0.0030
23120W        W36534  13.572   2.399   6.445  0.0011  0.3441 -0.0939
23121W        W36535   5.427   2.665   0.832  0.0747 -0.1052  0.0091
23122W        W36536  10.585  15.433   7.074 -0.2586  0.0569 -0.0318
23123W        W36537   5.444   7.462   1.483  0.0093 -0.1776  0.0551
23124W        W36538   4.538  17.462  14.993  0.1217 -0.2240  0.0865
23125W        W36539  17.420  17.089   4.162  0.0848  0.3335 -0.1925
23126W        W36540  14.905   7.207   2.941  0.1504  0.1112 -0.1431
23127W        W36541   0.695  17.420  10.415  0.4141  0.0751  0.1098
23128W        W36542  12.907  13.609  12.509 -0.0141 -0.2019 -0.3314
23129W        W36543  14.627   7.118  11.074  0.0904  0.3056  0.1221
23130W        W36544   6.998  12.850  11.313 -0.1403  0.1617 -0.1526
23131W        W36545  15.762   8.373  16.760 -0.3218  0.2811 -0.3077
23132W        W36546  17.059  10.557   6.023 -0.1315  0.0248 -0.3686
23133W        W36547  10.313   5.276   1.116 -0.0897 -0.2934 -0.0036
23134W        W36548  14.354   8.945   3.890 -0.2334  0.0435 -0.2762
23135W        W36549   5.382   2.113  11.024 -0.0495  0.0988  0.4299
23136W        W36550  12.429  14.260   3.097  0.0268 -0.3127 -0.1719
23137W        W36551   1.928  15.555   4.747  0.0364  0.3902 -0.0295
23138W        W36552   7.841  10.858  15.969  0.0349 -0.0258 -0.1580
23139W        W36553  15.667   4.112  16.745 -0.0351 -0.1378 -0.0667
23140W        W36554   7.370  17.176   0.094 -0.0889  0.2619 -0.0597
23141W        W36555   7.776  15.321   5.712 -0.1476 -0.1089 -0.1871
23142W        W36556  13.502   7.086   2.122  0.0334  0.2943  0.0404
23143W        W36557  10.690  17.775   1.125 -0.0173  0.2076  0.1094
23144W        W36558   8.302  12.442  14.859  0.0421  0.0053  0.1093
23145W        W36559   9.256  12.784  12.524  0.1924  0.2495  0.0647
23146W        W36560   2.380  16.246  13.977  0.2558 -0.0247 -0.0735
23147W        W36561  17.810  13.886   5.542  0.1593 -0.1479 -0.3128
23148W        W36562   8.820   5.696   2.564 -0.1218 -0.2939 -0.0733
23149W        W36563  13.088   6.449  13.528 -0.1165 -0.0796 -0.0431
23150W        W36564  16.177   0.744   1.040 -0.0000  0.0527 -0.2896
23151W        W36565   5.639  17.558  15.374  0.2621  0.2501 -0.0441
23152W        W36566   5.612   3.173  10.203 -0.0281  0.1754  0.2145
23153W        W36567  10.360  17.433   1.102 -0.0288 -0.1368  0.0858
23154W        W36568   6.760  16.134   6.388  0.0524 -0.1978 -0.0950
23155W        W36569  14.876   2.609   5.123 -0.3529  0.1806 -0.1981
23156W        W36570   7.871  15.272   4.613 -0.0306 -0.1607  0.2564
23157W        W36571  15.970  14.950  16.020  0.1143 -0.1258  0.0231
23158W        W36572  17.490  11.675  10.688  0.3283 -0.0980  0.1831
23159W        W36573   5.806   0.297   0.884  0.6096  0.0438  0.0238
23160W        W36574  12.367   1.322  14.202  0.2421  0.1230  0.0134
23161W        W36575   6.312  17.758   0.818 -0.2137  0.0344 -0.0496
23162W        W36576   3.674  11.410  14.913  0.0653 -0.0364  0.1122
23163W        W36577   1.923   7.998   0.417 -0.0516  0.0069 -0.0051
23164W        W36578   7.735  15.609  16.202 -0.1130 -0.3981 -0.3218
23165W        W36579   2.943  15.561   4.886  0.2370  0.1852 -0.0047
23166W        W36580   9.589   4.763  14.409 -0.3775 -0.1368  0.0712
23167W        W36581   7.904   3.022  13.757 -0.1732 -0.2335  0.1354
23168W        W36582   5.165   7.867  11.795  0.1155  0.0881  0.2038
23169W        W36583   7.592   6.165   4.342  0.0058  0.2073  0.5002
23170W        W36584  14.426   3.756  14.210  0.0703 -0.3723 -0.2803
23171W        W36585   7.094  14.136   1.259 -0.1021  0.0843 -0.0993
23172W        W36586   6.775   9.769  12.323  0.2665 -0.3199  0.3308
23173W        W36587   0.973  12.033   0.281 -0.3533  0.0027 -0.1715
23174W        W36588  14.271   0.069  11.761 -0.2074  0.0082 -0.0539
23175W        W36589   1.277   1.397  16.367 -0.3340  0.1287 -0.5535
23176W        W36590  16.484  13.869   2.674  0.1389  0.1027  0.0320
23177W        W36591  10.893  15.387   4.455  0.1947  0.1578 -0.4009
23178W        W36592   5.678   8.718   5.929  0.2830  0.0857 -0.0696
23179W        W36593  14.352   3.151  10.451 -0.0712  0.3158 -0.0374
23180W        W36594  11.696   9.914   1.568  0.0498  0.0031 -0.0323
23181W        W36595  12.783  11.811  14.140 -0.3672  0.2903 -0.2083
23182W        W36596  13.409  15.238   4.028 -0.0633  0.0560 -0.0429
23183W        W36597   2.907   0.438  16.023  0.0098 -0.2072 -0.2289
23184W        W36598  14.038   7.599  14.352 -0.0675  0.1433 -0.1930
23185W        W36599   6.975   6.573  12.357 -0.0832 -0.1478 -0.1358
23186W        W36600   0.279   0.172   4.068  0.1511 -0.0640  0.0574
23187W        W36601   0.096   1.155   3.356  0.4025 -0.3320  0.2420
23188W        W36602   5.563   9.785   0.140 -0.2101  0.1936  0.1624
23189W        W36603  14.083   2.849  16.385  0.0048  0.0175  0.1801
23190W        W36604  13.833  16.781  14.211 -0.2293  0.0547  0.0373
23191W        W36605  12.961   6.927  11.142 -0.1863  0.0146 -0.1365
23192W        W36606  13.210  12.536   0.734  0.0312 -0.0608 -0.0515
23193W        W36607   1.709   5.864   4.969 -0.4031  0.0484  0.1294
23194W        W36608   3.972  16.044   2.210 -0.0487 -0.7040  0.3577
23195W        W36609  10.011   4.382  15.153 -0.0891  0.4669  0.3612
23196W        W36610  16.131   5.542  12.974  0.0830  0.1870  0.0708
23197W        W36611  13.316   4.110  12.596 -0.0126 -0.1576  0.1298
23198W        W36612   1.840  10.304  11.934 -0.0989  0.2325 -0.3452
23199W        W36613   6.228  18.008   1.623 -0.2342 -0.3142  0.0110
23200W        W36614  10.237  10.999   4.686 -0.0858  0.0445 -0.1451
23201W        W36615  17.302  15.859   4.498 -0.2170  0.3565 -0.0318
23202W        W36616  12.183  16.350   3.104 -0.0619  0.3885 -0.0990
23203W        W36617   1.487   2.078  13.396  0.2293  0.1770 -0.0974
23204W        W36618  11.410  13.254   5.204  0.0974  0.1803 -0.1695
23205W        W36619   9.754   0.242   3.185  0.0017  0.1372 -0.1977
23206W        W36620  14.156   2.263  13.212 -0.1329 -0.1260  0.2288
23207W        W36621  17.056   9.715  15.834  0.2408 -0.1735  0.0922
23208W        W36622   2.204   0.483  15.112 -0.0427 -0.1983 -0.0572
23209W        W36623  17.909   1.748   4.371  0.0004 -0.0884  0.0703
23210W        W36624  14.609   5.885   3.997  0.0825 -0.2282 -0.0357
23211W        W36625  10.318   4.513  11.369  0.1317 -0.4772 -0.3063
23212W        W36626   5.719   3.294  11.685  0.0027 -0.0032 -0.2174
23213W        W36627   0.060   2.773  10.644  0.0682  0.1595 -0.0615
23214W        W36628   5.278   8.852   4.817 -0.1844  0.2605  0.0499
23215W        W36629   3.416   3.729   0.178  0.3142 -0.1099  0.2694
23216W        W36630  10.687   7.241   5.757  0.0699 -0.1761  0.2233
23217W        W36631   8.875  17.059   3.856  0.3156  0.0899 -0.0131
23218W        W36632   6.987  13.004  12.234  0.5072 -0.0946 -0.0758
23219W        W36633   8.524   2.668  14.320 -0.0741  0.0921  0.1404
23220W        W36634   6.291  11.622  13.127  0.3674  0.0313  0.2014
23221W        W36635   1.395   8.226   2.329 -0.1810  0.3862  0.2082
23222W        W36636   6.374  17.890  13.533  0.3687 -0.3619  0.0091
23223W        W36637  11.748   1.657   3.752 -0.3170 -0.1196 -0.2641
23224W        W36638  16.230  12.114   2.568 -0.3163  0.3477  0.0043
23225W        W36639  14.730   1.224  13.575  0.2557  0.4029 -0.2045
23226W        W36640   4.977   1.472  13.749  0.0039 -0.2455 -0.0773
23227W        W36641   9.417  12.018  14.023 -0.0145 -0.1544  0.0683
23228W        W36642   6.013   9.172   1.274  0.2924  0.0832 -0.0573
23229W        W36643   2.458   0.497  13.241 -0.0462 -0.0773  0.1002
23230W        W36644  14.807  13.051  13.897 -0.3342  0.0259 -0.0529
23231W        W36645   8.491  11.351  16.715 -0.1234 -0.0339  0.1436
23232W        W36646  13.587   3.692  12.735 -0.5290  0.0320 -0.3606
23233W        W36647   9.106   4.683  14.880 -0.0537 -0.1457  0.1125
23234W        W36648   4.883   7.158   1.936 -0.0848 -0.0632 -0.0392
23235W        W36649   5.419  17.936   4.031 -0.0293  0.1656 -0.0717
23236W        W36650   8.237  14.495   5.285  0.2720 -0.0933 -0.1395
23237W        W36651   9.445   7.166   2.997  0.2407  0.1542 -0.0234
23238W        W36652   8.754  10.232   1.384 -0.2073 -0.1693 -0.0694
23239W        W36653   8.309   4.693   4.881  0.1889 -0.0973 -0.4214
23240W        W36654  10.059  13.119   4.943 -0.1473  0.2234  0.0620
23241W        W36655  17.959  15.117   4.243  0.0858  0.2060  0.0463
23242W        W36656   7.694  13.029  13.988  0.0935 -0.5634 -0.0107
23243W        W36657   8.544   6.311   1.444 -0.3327 -0.1201 -0.0893
23244W        W36658  16.429   5.274  14.541 -0.4725 -0.4332 -0.2474
23245W        W36659   2.137  12.223  10.265  0.2667  0.0544 -0.1087
23246W        W36660  14.613  15.275   5.455 -0.1728  0.0672  0.2662
23247W        W36661   7.571  14.273  12.898  0.3728  0.0825  0.2403
23248W        W36662  17.547   1.918   3.895  0.1808  0.1482 -0.0883
23249W        W36663  13.834   0.276  13.280 -0.2701 -0.2676  0.0968
23250W        W36664   3.567   5.485   5.268  0.1485 -0.4275 -0.0379
23251W        W36665   3.380  11.878  15.861  0.1776  0.4462 -0.0970
23252W        W36666  17.668  14.997  13.904 -0.2082 -0.0880  0.3030
23253W        W36667   6.934  14.974  14.767 -0.1290 -0.1995 -0.3272
23254W        W36668   6.974   8.743   5.586 -0.2499  0.0112  0.3275
23255W        W36669   6.334   7.409   4.251 -0.0321 -0.2325  0.2659
23256W        W36670  16.380   1.766  16.557  0.0009 -0.5026  0.2760
23257W        W36671  15.848   0.017   3.104  0.3100  0.3652  0.0223
23258W        W36672   2.312  11.632   4.147  0.0633 -0.1061 -0.3050
23259W        W36673   3.759  11.184  16.352  0.1028  0.1679 -0.1904
23260W        W36674   7.830   1.743  14.414  0.0422 -0.2224 -0.0670
23261W        W36675   5.721  17.209  12.281 -0.0137 -0.0314 -0.0396
23262W        W36676   3.670   8.819  12.226 -0.0002 -0.0854 -0.0892
23263W        W36677   5.798   4.420   0.275 -0.1363 -0.1061  0.1834
23264W        W36678   8.921  13.422  12.971  0.3164  0.1389  0.0432
23265W        W36679  14.211   0.389  13.525 -0.0117  0.1468 -0.0407
23266W        W36680   8.685   4.920   3.908 -0.0653  0.0175 -0.1834
23267W        W36681   6.400  17.271   4.761  0.1836 -0.0335 -0.1621
23268W        W36682   2.489   5.118  15.528  0.1142 -0.1184  0.2458
23269W        W36683   3.465   3.111  11.245  0.0766  0.4744 -0.0169
23270W        W36684   1.812   0.372   0.610 -0.0117 -0.1806  0.1419
23271W        W36685   6.146   8.988   2.799  0.1653  0.3421 -0.1768
23272W        W36686   8.562  12.355   4.754  0.0495 -0.0427 -0.0311
23273W        W36687  17.164   3.477   4.847  0.3506 -0.3634 -0.1267
23274W        W36688   6.188  14.277  11.329  0.0546 -0.2412  0.0053
23275W        W36689   1.668   9.120  13.864  0.1311  0.1657 -0.1069
23276W        W36690   6.777   4.963  11.375  0.1432  0.0871 -0.2031
23277W        W36691  10.996   3.962  14.855  0.0402  0.1877 -0.0905
23278W        W36692  17.666  11.573   5.610 -0.3213 -0.1633  0.3212
23279W        W36693   4.143  16.810  12.890  0.0666 -0.2508  0.0672
23280W        W36694   4.423   8.320   1.251 -0.1454 -0.0892  0.0877
23281W        W36695  11.040  12.685   5.341  0.0130 -0.0951  0.2361
23282W        W36696  16.243   0.175  11.295  0.0439  0.0784 -0.1641
23283W        W36697   4.509   2.149  14.934  0.1304  0.3305 -0.0636
23284W        W36698   2.747   5.043   2.244 -0.0121  0.1789 -0.1805
23285W        W36699   8.800   4.420   3.736 -0.1408  0.1126  0.2775
23286W        W36700  14.172   9.219   3.483  0.1908 -0.0809 -0.3231
23287W        W36701  12.859  12.746   6.760  0.0129 -0.2468 -0.1711
23288W        W36702   6.751   6.655  15.337  0.1071  0.0208  0.4031
23289W        W36703  13.460  10.340  16.028  0.0551 -0.0599  0.2894
23290W        W36704   7.184  14.347   5.968  0.1080  0.0013 -0.1476
23291W        W36705  11.557  11.051  11.359  0.0889  0.0750 -0.0121
23292W        W36706   9.526   6.807   1.663  0.0669  0.0037  0.2748
23293W        W36707  17.443   0.301  11.903  0.1803 -0.0983  0.1467
23294W        W36708   0.857  12.445   5.233 -0.0984  0.2355 -0.1409
23295W        W36709   9.226   1.140   2.599 -0.1485  0.0806 -0.1721
23296W        W36710  16.727   2.506   0.466 -0.0166 -0.1171  0.1849
23297W        W36711  11.410   5.240   2.230 -0.0664 -0.0486 -0.1498
23298W        W36712   1.549   9.631  13.090  0.1333 -0.1260  0.0411
23299W        W36713   7.568  11.734  12.058 -0.1630  0.0281  0.1051
23300W        W36714  13.646  12.949   0.136  0.0280  0.0776 -0.0542
23301W        W36715  16.418  15.615   2.882 -0.0292 -0.2207 -0.0259
23302W        W36716  11.835   2.679   1.858 -0.1743 -0.1010 -0.1671
23303W        W36717   0.452  10.105  12.259  0.1225  0.0594  0.3447
23304W        W36718   2.343  10.646  11.956  0.2650  0.0106  0.1684
23305W        W36719  10.220  15.143   3.234  0.0264 -0.1111 -0.0816
23306W        W36720   2.920   2.081   3.153 -0.1883 -0.0013  0.1100
23307W        W36721   9.800  14.478   3.167 -0.4753  0.2059 -0.2091
23308W        W36722   6.980   9.243   4.861  0.0713 -0.1157 -0.1378
23309W        W36723   4.937   4.897  13.089 -0.4482 -0.0899  0.2348
23310W        W36724   8.805   9.032  15.028 -0.0032 -0.0254 -0.0128
23311W        W36725   8.241   7.217   1.588  0.0702 -0.2529 -0.0942
23312W        W36726  11.176  14.142   3.492 -0.2372 -0.1733 -0.2607
23313W        W36727   8.013  16.619   3.278 -0.0544 -0.1700 -0.0334
23314W        W36728   6.529  12.656   3.077  0.1364 -0.0205 -0.1778
23315W        W36729  12.391   4.685   4.651  0.0043  0.1834  0.1283
23316W        W36730  11.506  16.661  15.567 -0.1390  0.0730 -0.1482
23317W        W36731   8.594  11.257   5.305 -0.0094  0.0837  0.1917
23318W        W36732   0.554   6.859   4.784  0.0156  0.3837  0.3595
23319W        W36733   2.939  13.776   1.195 -0.3954  0.0353 -0.2068
23320W        W36734   6.061   5.631   4.230  0.0008  0.0462  0.0491
23321W        W36735  16.646  15.925  11.633  0.0017  0.0345  0.0855
23322W        W36736   8.375   1.138   2.835 -0.1571 -0.0885 -0.3645
23323W        W36737  12.925  11.884  14.615  0.0051  0.0736 -0.0199
23324W        W36738   7.721  10.129   4.217 -0.1543 -0.1833 -0.2351
23325W        W36739   8.722   2.839  13.514 -0.1231  0.1412 -0.0768
23326W        W36740  11.346   6.404  14.793 -0.1548  0.1201  0.0865
23327W        W36741   2.435   9.603  12.272 -0.0558  0.0987  0.1057
23328W        W36742   4.401   5.230   5.779  0.1578  0.2016  0.0333
23329W        W36743   7.484  14.951   4.189 -0.1277 -0.4552 -0.1426
23330W        W36744  15.127  14.587   2.441 -0.0265  0.5529 -0.1373
23331W        W36745   0.493  14.952  15.501  0.0763  0.0044 -0.1721
23332W        W36746   9.589  14.283   1.396 -0.1743  0.2803  0.3203
23333W        W36747   7.031  17.668  11.679  0.2031  0.1235 -0.0940
23334W        W36748   3.868  17.796  15.357 -0.1378  0.1109  0.1482
23335W        W36749   5.659  12.436  13.616  0.2350  0.1330 -0.1033
23336W        W36750  14.725   8.263   5.755  0.1484  0.0186 -0.0452
23337W        W36751   2.015  12.588   5.357  0.1512 -0.0909  0.3995
23338W        W36752   6.400   2.100  10.316  0.2436 -0.2853 -0.0345
23339W        W36753  11.028   1.584  12.154  0.0143 -0.0197 -0.1813
23340W        W36754  10.162   3.494   0.136 -0.2422 -0.2463  0.0000
23341W        W36755  16.647   0.968   2.762  0.1882 -0.2343 -0.0016
23342W        W36756  17.627   5.454  11.036 -0.2206 -0.0224 -0.1610
23343W        W36757   2.201   7.951   2.610  0.1183  0.1533  0.0976
23344W        W36758  14.269   2.047  16.185 -0.0804 -0.0891 -0.0680
23345W        W36759   2.502  14.525  10.338  0.1733 -0.2944  0.0531
23346W        W36760  15.857  13.475  14.164 -0.1111  0.2618  0.1340
23347W        W36761  14.401   0.037   1.978  0.0319  0.0748 -0.0600
23348W        W36762  16.674   5.422  16.043  0.0244  0.0952  0.0353
23349W        W36763  11.637  12.002  12.809 -0.0790  0.2500  0.1408
23350W        W36764   4.888  17.218  14.689  0.4866 -0.2758 -0.1649
23351W        W36765   1.161   5.558   1.523 -0.0610  0.1353 -0.1725
23352W        W36766   4.615   0.160  13.805  0.2971  0.0907 -0.1611
23353W        W36767   8.067   5.961   4.234  0.2058  0.1869 -0.1257
23354W        W36768   3.890  11.952  14.965  0.1043  0.1845  0.0167
23355W        W36769  11.742  17.192   3.903 -0.0506 -0.0814 -0.0194
23356W        W36770   0.930  17.284   0.634 -0.2719 -0.1675  0.1750
23357W        W36771   4.714  17.438  16.233 -0.0113  0.0299  0.0207
23358W        W36772   0.776  10.027  15.717 -0.0824  0.0061  0.0679
23359W        W36773   9.831   1.043   1.355  0.3422 -0.4410  0.3062
23360W        W36774  13.884   6.504  15.783 -0.0090  0.1384 -0.0226
23361W        W36775  16.772   0.707  12.175  0.1718 -0.3256  0.0117
23362W        W36776   8.645   5.075   4.925 -0.0002 -0.1125 -0.0957
23363W        W36777   0.441   0.726   0.519  0.0782  0.1296 -0.1117
23364W        W36778   7.320  17.306   3.255  0.0771  0.0191  0.0175
23365W        W36779  10.492  11.473  12.251 -0.1357 -0.0470  0.2674
23366W        W36780  11.345   3.456   5.453 -0.2218 -0.1797  0.0635
23367W        W36781   9.837   5.601  15.589  0.0972  0.2884 -0.2067
23368W        W36782   3.782  12.505   4.568  0.4475  0.1308  0.2314
23369W        W36783   8.267  13.149   5.554  0.1241  0.0336  0.2032
23370W        W36784   1.238   8.681  14.508 -0.1139  0.1987 -0.1817
23371W        W36785  16.591   9.467   1.568 -0.1708 -0.0554  0.0358
23372W        W36786  12.814  11.998  12.244  0.0045 -0.3964  0.2148
23373W        W36787  14.084   5.120   1.800 -0.0581 -0.2798 -0.1071
23374W        W36788  14.666   9.887  13.310 -0.1802 -0.1460  0.2913
23375W        W36789   3.169  15.862  14.712  0.2050 -0.0208  0.3181
23376W        W36790  13.621   5.450   5.127 -0.0296  0.0051  0.2117
23377W        W36791   3.315   1.929  13.053  0.0991  0.1114 -0.0455
23378W        W36792  16.128  12.488  13.914 -0.0054 -0.1629 -0.0354
23379W        W36793  10.581   4.376  12.045 -0.0592 -0.0149 -0.1797
23380W        W36794   7.368   4.450   1.492 -0.1903  0.1826  0.0718
23381W        W36795  13.325  11.091  14.509  0.2631 -0.1398 -0.2409
23382W        W36796   5.847  16.480   4.066 -0.4062 -0.1344 -0.1950
23383W        W36797   8.935  17.846   2.630 -0.1123 -0.1461  0.2029
23384W        W36798  14.505   5.491  15.594 -0.1254 -0.0659  0.2730
23385W        W36799  17.022  14.396  10.662 -0.0228 -0.0939  0.0632
23386W        W36800  16.973   5.582   0.932  0.0132 -0.1984 -0.0548
23387W        W36801  10.640   0.697  10.124  0.1987  0.4311 -0.1295
23388W        W36802  17.974   2.217  11.731  0.0617 -0.0286 -0.2954
23389W        W36803  14.867   3.774   2.054 -0.1891  0.0537  0.0069
23390W        W36804   0.172   7.169  14.421 -0.2716 -0.1585  0.0404
23391W        W36805   9.945   1.374  16.525  0.0678  0.0426  0.0562
23392W        W36806   7.712  16.385   5.308  0.2340  0.1469 -0.2337
23393W        W36807  12.248   3.974  14.162 -0.1606 -0.1555  0.1619
23394W        W36808   5.273   2.716  14.264 -0.0922  0.0019 -0.0186
23395W        W36809   4.550   9.426  15.738  0.1369 -0.0201  0.0965
23396W        W36810  16.189   0.607   4.326 -0.2101  0.3485  0.0405
23397W        W36811  15.911  17.602  13.496 -0.3018  0.0844  0.0756
23398W        W36812   8.164   2.471   2.057 -0.0990  0.1888  0.0483
23399W        W36813   3.219   5.729   0.024  0.0640 -0.2349 -0.4078
23400W        W36814  12.921   0.567  12.866  0.0656  0.0958 -0.2662
23401W        W36815   8.848  10.475  14.287  0.0408  0.2081 -0.1366
23402W        W36816  17.730   1.698   5.443 -0.1800 -0.1369 -0.0313
23403W        W36817  14.095   1.550  12.753  0.0700 -0.2521  0.2000
23404W        W36818   7.564  12.206  14.491  0.3353  0.2897  0.1476
23405W        W36819   8.895  14.701  15.623 -0.2393  0.0330  0.1659
23406W        W36820   5.716   6.031  14.068 -0.0897  0.0632 -0.1370
23407W        W36821   9.336   5.094   1.338  0.1223 -0.0027 -0.2902
23408W        W36822  14.727  16.972  16.317 -0.2208 -0.1213  0.1047
23409W        W36823   4.465  16.322  11.856 -0.3153 -0.0388  0.3338
23410W        W36824  16.520  11.135   4.633  0.3529 -0.1110  0.0823
23411W        W36825  15.010  12.774  14.922  0.0655  0.0121 -0.1628
23412W        W36826  12.014  14.437  15.557  0.0130 -0.1284 -0.0329
23413W        W36827  16.802   5.613  12.478 -0.2141  0.2827  0.0008
23414W        W36828  16.268   9.422   1.144 -0.0638  0.0527  0.1997
23415W        W36829   4.856  12.955   6.534  0.1613  0.2079  0.0365
23416W        W36830   3.586   1.350  12.031  0.1079  0.0520 -0.2344
23417W        W36831   2.946   8.667   0.143 -0.2126 -0.2789  0.0791
23418W        W36832  12.691   8.816   4.893 -0.0205 -0.0502 -0.1322
23419W        W36833   0.811  10.182  14.574  0.0304 -0.1720 -0.1337
23420W        W36834  16.126  14.180  15.614 -0.0415  0.1459  0.0210
23421W        W36835  17.437  11.268  14.476 -0.2966 -0.1925 -0.0285
23422W        W36836   5.543   1.704  11.246  0.2056  0.0235 -0.0963
23423W        W36837   1.252  14.860  15.017 -0.0362 -0.0494  0.1643
23424W        W36838   0.983  13.339  14.535  0.3094  0.1214  0.0568
23425W        W36839   6.844   7.259   1.052 -0.0948  0.0181 -0.0325
23426W        W36840  14.598  14.495  15.370 -0.1202  0.0896  0.0064
23427W        W36841  12.580  14.760   3.982  0.0462 -0.2167  0.2050
23428W        W36842   4.017   9.099  13.042 -0.0888 -0.2225  0.3094
23429W        W36843  15.359   4.021   5.237  0.1243  0.0206  0.2863
23430W        W36844  15.326   8.782  11.371  0.0977  0.0008 -0.0276
23431W        W36845   2.087  17.598   5.009 -0.0311  0.0946 -0.1626
23432W        W36846  14.673   2.906  14.755 -0.2298  0.2046  0.2547
23433W        W36847  10.167  11.637  11.702 -0.1523  0.1080 -0.0808
23434W        W36848   3.985   0.203  14.662  0.0187 -0.0057 -0.2553
23435W        W36849   2.880  12.489   5.068 -0.1347  0.0090  0.0883
23436W        W36850   8.427  15.750   1.628 -0.1924  0.2664 -0.1048
23437W        W36851   2.004   4.994   0.179  0.2508  0.0977  0.0758
23438W        W36852  10.682  13.321   4.436 -0.0975 -0.1088 -0.1090
23439W        W36853   3.764   5.944   0.009  0.1925  0.2134 -0.3737
23440W        W36854   3.878   2.769   5.510  0.0847 -0.0812 -0.0586
23441W        W36855   0.701   3.725  16.696  0.2725 -0.0396 -0.1702
23442W        W36856   7.745   3.252   3.813 -0.1576  0.1179 -0.0696
23443W        W36857   5.165  17.599   0.070 -0.0611  0.1722 -0.1598
23444W        W36858  12.822  15.129   3.044  0.0649 -0.2428  0.6689
23445W        W36859   8.453   5.861   4.636  0.2624  0.0708  0.0929
23446W        W36860   5.842   7.526  12.380  0.0246 -0.0848  0.2016
23447W        W36861   9.415   0.503   1.518  0.1532 -0.1489 -0.1091
23448W        W36862   1.812   1.105   9.797  0.2302  0.1865  0.1095
23449W        W36863   4.045   7.782   0.280  0.1969 -0.2997  0.0690
23450W        W36864   9.780   0.207  16.241  0.0004  0.0362 -0.1304
23451W        W36865   0.032  13.269  13.719  0.0333  0.0349 -0.1801
23452W        W36866   0.696   4.412  16.435  0.1938  0.1471  0.2107
23453W        W36867   4.322  10.227  14.377 -0.1051  0.0006 -0.0206
23454W        W36868  15.828  10.485   2.856 -0.0722 -0.1170  0.0109
23455W        W36869   9.489   5.405  15.247  0.2094 -0.0681  0.1902
23456W        W36870  15.068  13.423  13.700 -0.2181 -0.3178  0.3629
23457W        W36871   1.468  16.297   4.609 -0.2109  0.0027 -0.0626
23458W        W36872  14.747  15.130  13.363  0.3611 -0.1787 -0.1189
23459W        W36873   8.119  11.636  15.356  0.1996 -0.1847 -0.0797
23460W        W36874  10.896   3.481  15.008 -0.1145  0.0605  0.0644
23461W        W36875  17.050  12.427   4.490  0.1258 -0.1760  0.0753
23462W        W36876   6.562   1.006  11.415 -0.0676 -0.0063 -0.0512
23463W        W36877  14.423   8.705   4.735  0.1718  0.0228 -0.0723
23464W        W36878  10.364   4.804   5.011  0.1883 -0.0216  0.0686
23465W        W36879   1.170   7.281  11.219  0.1125  0.0792 -0.2567
23466W        W36880   5.446  14.957   2.661  0.0742 -0.1995 -0.0707
23467W        W36881   0.529   5.476  16.270 -0.1036 -0.2543  0.2292
23468W        W36882  11.904  16.910   3.518  0.3149 -0.1364 -0.2065
23469W        W36883  16.560  12.457   5.811 -0.0592  0.2713 -0.1630
23470W        W36884  10.063   5.235   2.260 -0.1793 -0.0319 -0.0237
23471W        W36885  13.577  16.592  16.579  0.2353 -0.1352 -0.2471
23472W        W36886   4.741   2.837  10.989  0.0557 -0.0753 -0.1756
23473W        W36887   4.712  10.616   1.212  0.2521 -0.0452  0.0094
23474W        W36888  12.184  13.596  15.682 -0.0914  0.0999  0.1657
23475W        W36889   9.310  13.728  15.590 -0.0657 -0.1631  0.0737
23476W        W36890   2.392  12.059   5.481 -0.2461  0.2670 -0.1552
23477W        W36891  16.839   9.931  13.663  0.0177 -0.0884 -0.1137
23478W        W36892  14.173  15.199  11.541  0.3327  0.0116  0.3795
23479W        W36893   9.813  17.380   5.406 -0.0836  0.0538  0.1120
23480W        W36894   1.984  13.094  15.214  0.1394  0.1003  0.0555
23481W        W36895   0.633   8.968  14.348 -0.0203 -0.3843  0.0918
23482W        W36896   8.693   9.709  12.668 -0.1859  0.1447  0.1194
23483W        W36897   2.836   8.099   1.818 -0.2267  0.2178 -0.0360
23484W        W36898   2.530  14.279  16.258  0.0072 -0.0634  0.0296
23485W        W36899   9.686  14.416   4.756  0.1328  0.2564 -0.0171
23486W        W36900   2.893  13.255   4.804  0.1359 -0.2995 -0.1550
23487W        W36901  14.277   8.121  15.892 -0.1415  0.0481  0.0719
23488W        W36902  15.668   3.701  15.505  0.0014 -0.3324  0.0190
23489W        W36903  13.433   4.235   5.645  0.1444 -0.2616  0.3946
23490W        W36904   5.522   7.805   0.864  0.0509  0.0719 -0.1206
23491W        W36905  15.926  17.827   0.221  0.0158 -0.0978  0.0728
23492W        W36906  16.211  15.699   4.079 -0.1578 -0.1516  0.1147
23493W        W36907   5.670   1.928   0.854  0.0291  0.0249 -0.0492
23494W        W36908   2.387   9.123  13.058  0.1482 -0.2455 -0.2865
23495W        W36909   6.274   8.457   3.767 -0.1965  0.2024 -0.0598
23496W        W36910   6.264   9.661  15.483 -0.0294 -0.1037  0.2496
23497W        W36911   2.742  13.898  14.403 -0.0527  0.0371  0.2366
23498W        W36912   0.489  12.595   0.993 -0.0199  0.2418 -0.0507
23499W        W36913  10.005  17.855  12.645 -0.0831  0.0504 -0.0367
23500W        W36914  13.533  10.500   2.623 -0.1462  0.1624 -0.2052
23501W        W36915  12.759   3.421   4.847  0.1558  0.0253 -0.2418
23502W        W36916   5.108  14.098  16.411  0.0974  0.2758  0.0742
23503W        W36917   4.783   1.789   3.941 -0.2579 -0.2859 -0.1501
23504W        W36918  16.353  13.471   1.744  0.0766 -0.0125  0.0488
23505W        W36919   7.176  11.710   3.663 -0.1924 -0.1448  0.2312
23506W        W36920  13.675   1.444   0.827 -0.3866  0.0278  0.2621
23507W        W36921   7.446  10.635   1.866 -0.0470 -0.2174 -0.0409
23508W        W36922   1.700  12.347   2.106  0.2415  0.0984  0.2384
23509W        W36923   5.771  15.722   4.611  0.0850  0.0330 -0.1390
23510W        W36924  12.628  17.964   3.519 -0.3467  0.1656 -0.1798
23511W        W36925   2.419  10.223  12.212 -0.2730  0.1326 -0.3096
23512W        W36926  12.290   2.074   1.697 -0.0799  0.1491  0.1377
23513W        W36927  11.437   0.545   4.612  0.5354  0.0099  0.0523
23514W        W36928  15.411   1.084  10.116 -0.1473 -0.0245 -0.3703
23515W        W36929  13.139   1.390   2.198  0.5086  0.0521 -0.0864
23516W        W36930   8.466   1.701   2.192 -0.1077  0.0363  0.0570
23517W        W36931  15.815  13.792   4.062  0.0581  0.2309 -0.2619
23518W        W36932   3.497  13.650   5.463 -0.0243 -0.0687  0.0146
23519W        W36933   0.175   5.248  10.959 -0.0122  0.4478  0.0562
23520W        W36934  15.533  13.545   0.870 -0.3356  0.3948 -0.0754
23521W        W36935   6.478  13.778   1.023 -0.1162 -0.2691 -0.1225
23522W        W36936  10.638  17.887  13.562 -0.0060 -0.0345 -0.2062
23523W        W36937   4.250  15.674   3.001 -0.1742  0.1225  0.0079
23524W        W36938   9.583  15.821   4.997 -0.1223 -0.0604  0.0088
23525W        W36939   4.362   2.995  11.866 -0.2470 -0.2155  0.0340
23526W        W36940  17.267  15.841  12.202 -0.0040 -0.1665 -0.2991
23527W        W36941   9.585   9.556   6.141 -0.2118 -0.0540 -0.0609
23528W        W36942  14.199   8.522   2.718  0.1439 -0.4314  0.0228
23529W        W36943  17.526  17.934   3.064  0.0302 -0.3514 -0.1407
23530W        W36944  13.257   7.365  14.771 -0.2687  0.0082 -0.0796
23531W        W36945  17.846  12.552   2.161  0.0239 -0.0543  0.4227
23532W        W36946  15.288   5.119  13.383 -0.1687  0.0190 -0.1210
23533W        W36947  13.898   4.087  12.635 -0.1679 -0.1116 -0.0298
23534W        W36948   0.669   8.113   5.489  0.0392 -0.1269 -0.2556
23535W        W36949  10.114   8.195  15.322  0.1451 -0.0089 -0.0528
23536W        W36950  12.095   6.408   1.637  0.0882 -0.1102  0.3013
23537W        W36951   3.568  13.076  16.544 -0.0142 -0.2434  0.0984
23538W        W36952  10.644   8.751   0.194 -0.2183 -0.1232 -0.0286
23539W        W36953  11.819   7.853   5.379  0.0699 -0.2562  0.3340
23540W        W36954   6.536   0.328  12.833 -0.0564 -0.0671  0.2635
23541W        W36955   0.662  14.142   9.833 -0.1840 -0.0767 -0.2208
23542W        W36956  17.842  17.023  15.241 -0.0797  0.0382  0.0809
23543W        W36957  13.162  15.094  15.481  0.0689 -0.0966  0.0103
23544W        W36958  15.362  13.812  14.793 -0.0437 -0.0093  0.0507
23545W        W36959   8.322   5.937   2.224  0.1469  0.0139 -0.3598
23546W        W36960   7.243   7.726   5.929  0.1535 -0.2535 -0.1191
23547W        W36961  12.601   9.752   4.294  0.0288 -0.0006 -0.0671
23548W        W36962   7.664  18.002   0.588 -0.3140 -0.0667  0.2509
23549W        W36963  12.582  12.051   0.001  0.2682  0.0862  0.3139
23550W        W36964  14.526   0.593   2.113  0.1188  0.1133  0.0240
23551W        W36965   4.909   7.636   5.404  0.1529 -0.2656  0.0459
23552W        W36966  11.039   6.927  10.278  0.0663  0.0728 -0.0815
23553W        W36967   8.853  14.851  15.120  0.1626 -0.1056 -0.0153
23554W        W36968   8.571  17.740   0.081 -0.1646 -0.3440 -0.2330
23555W        W36969  14.239  16.905  12.578 -0.0616  0.0147  0.3770
23556W        W36970   6.982   8.295   3.041  0.1254  0.0159 -0.0644
23557W        W36971  13.856  16.391   0.138  0.0348  0.0711 -0.0589
23558W        W36972   9.164  13.199   3.455  0.1178 -0.1011 -0.1773
23559W        W36973   1.179  10.727   2.072  0.2158  0.0911 -0.3320
23560W        W36974   6.544   8.370   4.761 -0.4130 -0.2399 -0.3774
23561W        W36975  15.727  15.501   1.091  0.0488 -0.1551  0.0172
23562W        W36976   9.462   4.020  10.175 -0.0352  0.2390 -0.0731
23563W        W36977   6.267  13.733  12.166 -0.1666  0.1244 -0.1922
23564W        W36978   0.911  13.549  13.216 -0.3269 -0.0689 -0.0579
23565W        W36979   8.352  11.100   1.466  0.2590 -0.1234 -0.2515
23566W        W36980   7.300  17.190   5.946 -0.2432 -0.0641  0.3757
23567W        W36981  12.413  14.270  14.971  0.3394  0.1890 -0.0118
23568W        W36982   3.066   6.392  11.226 -0.0228  0.1373 -0.0140
23569W        W36983  13.664  10.958   4.094 -0.1699  0.0727 -0.3443
23570W        W36984   9.473  17.956  12.729  0.0335 -0.1488 -0.1005
23571W        W36985   7.146   2.485  14.953  0.1689 -0.1084  0.1408
23572W        W36986   5.030  10.936  16.064  0.1430  0.0538  0.1833
23573W        W36987  15.880   8.042  13.142 -0.0444  0.3078  0.1402
23574W        W36988  11.565  11.145   0.560 -0.1221 -0.2425 -0.1555
23575W        W36989   8.868   1.887  13.316  0.1168 -0.0399 -0.2002
23576W        W36990   6.266   3.056   3.320  0.0742 -0.0939  0.3901
23577W        W36991  17.248   5.271   5.235  0.1167 -0.2289 -0.1958
23578W        W36992  13.887   8.878   2.163  0.1080  0.0805 -0.0634
23579W        W36993   5.403  13.449  13.518  0.0214 -0.0104 -0.0271
23580W        W36994  11.958   0.518  16.366 -0.2991  0.3071  0.0734
23581W        W36995   2.408  13.343  11.942  0.0349  0.1940  0.3062
23582W        W36996   1.571   0.531   1.057 -0.1022  0.0773  0.1290
23583W        W36997  14.884   6.243  12.785  0.0512 -0.1159 -0.1776
23584W        W36998   6.516   1.036  14.433 -0.0155  0.1073  0.0888
23585W        W36999   4.321   9.750   5.941  0.2400  0.1073  0.2343
23586W        W37000  16.576   3.589   1.456 -0.2589 -0.2005  0.2714
23587W        W37001  17.977  12.083  15.268  0.1938  0.1169  0.3988
23588W        W37002  16.556  17.169   2.266 -0.1153 -0.1449 -0.0763
23589W        W37003   0.631   1.531  12.249 -0.0310 -0.1748 -0.1048
23590W        W37004  17.815   9.136   4.347 -0.1224 -0.1246 -0.1178
23591W        W37005   2.293   8.613   4.507  0.2264 -0.3114 -0.4794
23592W        W37006   4.403   6.171   2.742  0.1514 -0.1119  0.0731
23593W        W37007   4.445   3.497  12.075  0.2284  0.0290  0.0756
23594W        W37008   3.659   5.153  13.271 -0.0065 -0.3418 -0.2667
23595W        W37009  13.866   7.719  11.464 -0.1734  0.1872  0.0894
23596W        W37010   5.235   9.198   0.866  0.2006 -0.0031 -0.2247
23597W        W37011   7.302   6.911   5.713  0.0958 -0.0764  0.0516
23598W        W37012  17.915   2.620   5.033  0.0563 -0.4063  0.2303
23599W        W37013  12.995  11.382   0.963 -0.1617  0.0046  0.4430
23600W        W37014  11.376  13.670   1.257 -0.2916 -0.0403  0.1426
23601W        W37015   1.080  14.618  11.536 -0.2319  0.1649  0.1534
23602W        W37016   2.845   2.846  15.295  0.1650  0.0440  0.3776
23603W        W37017  12.693  13.398  15.340  0.2702  0.0016 -0.0680
23604W        W37018  15.608  17.995  13.745  0.3034  0.2154  0.0868
23605W        W37019  11.703  10.666   0.920 -0.0547 -0.1208  0.1728
23606W        W37020   5.973   9.040  13.846 -0.0720 -0.1726  0.0464
23607W        W37021   1.293   6.493   5.853  0.1934  0.2241 -0.2371
23608W        W37022  12.397   6.435  14.102 -0.4589  0.0695 -0.2209
23609W        W37023   7.018  11.567   6.230 -0.0065  0.1727 -0.1936
23610W        W37024  15.377   3.429  11.189 -0.2418  0.0584  0.1142
23611W        W37025   3.258   6.953  12.269 -0.3034  0.0413 -0.0859
23612W        W37026  15.388  17.637   2.338  0.2505 -0.0187 -0.0454
23613W        W37027   4.741   7.676  15.436  0.1216  0.2093  0.3291
23614W        W37028   0.779  10.846  14.986 -0.1138  0.0984 -0.1580
23615W        W37029   9.215   4.043  12.971 -0.0643  0.2900 -0.1316
23616W        W37030  14.550   3.642   1.735 -0.2343 -0.1169  0.1614
23617W        W37031  12.587   8.024  11.508  0.2408  0.4849 -0.0800
23618W        W37032   5.644  14.141   2.777  0.1998 -0.0799 -0.0088
23619W        W37033  11.788   3.688   2.637  0.2298 -0.0143  0.2607
23620W        W37034   7.697   0.057  11.790  0.2494  0.0081  0.1041
23621W        W37035   5.666  12.968  15.901 -0.0401 -0.0428 -0.1079
23622W        W37036   6.548   6.108   0.670  0.3529  0.0611 -0.1910
23623W        W37037  12.770  10.724  14.960 -0.4198 -0.3646 -0.0814
23624W        W37038   6.604   5.693  12.215 -0.2836 -0.1731 -0.0660
23625W        W37039   1.998   5.536   1.588 -0.0001  0.1751 -0.2166
23626W        W37040   6.686   4.670   2.034 -0.1695  0.0014 -0.0225
23627W        W37041   5.946   8.161   4.048  0.1916 -0.0759 -0.0599
23628W        W37042   0.542   0.996   3.135 -0.0520 -0.1602  0.2821
23629W        W37043  14.844  10.139   1.954  0.0028  0.1018 -0.1242
23630W        W37044   8.938  17.555   1.597 -0.1399  0.1694  0.1446
23631W        W37045  16.068  13.450   0.120  0.5578  0.3389 -0.2383
23632W        W37046   0.485  10.156  11.395 -0.0316 -0.1625  0.4264
23633W        W37047   4.884  15.909  11.201  0.0005  0.2153 -0.2945
23634W        W37048   7.837   4.007  11.397  0.1451 -0.1535  0.0476
23635W        W37049   8.762   1.484   0.635  0.0601 -0.0640 -0.3076
23636W        W37050   1.410  16.115  11.278 -0.0714 -0.1063  0.0145
23637W        W37051  16.660  14.894   5.378 -0.3205 -0.2188  0.3057
23638W        W37052   2.971   5.538  13.335 -0.3111  0.0320 -0.0800
23639W        W37053   1.046   9.713  12.786 -0.0613 -0.1717  0.1231
23640W        W37054  12.312   9.202  11.442  0.1313  0.0010  0.0925
23641W        W37055  10.795  14.603   1.096  0.1079  0.0262 -0.4016
23642W        W37056   9.098   3.894  16.114 -0.2319  0.0269 -0.0122
23643W        W37057   9.808  12.432  14.051  0.2889  0.2557 -0.0845
23644W        W37058  13.739   3.243  12.901 -0.0723  0.1475  0.0603
23645W        W37059   9.357  11.566   2.294 -0.1198 -0.2071 -0.1112
23646W        W37060  11.260   0.343  13.193  0.3144 -0.1056  0.2898
23647W        W37061  16.313  16.228  12.190 -0.1806  0.1255  0.0546
23648W        W37062   2.127   0.362  10.467 -0.1040  0.0061 -0.0212
23649W        W37063  15.898  14.769   4.159 -0.1906 -0.1717  0.1581
23650W        W37064   1.216  13.989  10.672 -0.2390  0.1220  0.2005
23651W        W37065  15.503  13.008   4.554  0.0827  0.2729  0.0152
23652W        W37066   9.346   9.507  15.774  0.1918  0.2388  0.2145
23653W        W37067   9.037   8.905   4.272  0.1760  0.0163  0.3922
23654W        W37068  12.079   2.472   5.469  0.2224  0.0664  0.1616
23655W        W37069  13.560   6.264   4.276 -0.0345 -0.0660  0.0269
23656W        W37070  11.733  13.503  15.934 -0.2223 -0.1680 -0.1063
23657W        W37071   0.552   2.072   1.745 -0.0072 -0.3755 -0.2057
23658W        W37072   8.600   1.606  13.717 -0.2503  0.1461 -0.5147
23659W        W37073   5.649  17.301  13.155  0.3098 -0.0857 -0.0842
23660W        W37074  14.212   5.623   4.452 -0.3134  0.1118 -0.4193
23661W        W37075   8.786   7.436   2.837  0.0882 -0.0923 -0.0663
23662W        W37076  15.106   0.702  12.332  0.1983 -0.0808  0.2795
23663W        W37077   0.190   7.120   4.212 -0.1567 -0.2264  0.0574
23664W        W37078   2.676  10.662   4.463  0.3690  0.0209 -0.1600
23665W        W37079   6.424  11.396   5.404  0.0550 -0.0320 -0.1690
23666W        W37080   4.333  17.121  13.647 -0.2492  0.1680  0.1362
23667W        W37081   0.306  13.554   4.932  0.1511 -0.3788 -0.1253
23668W        W37082   5.614   9.061   4.442  0.0167  0.2759 -0.1535
23669W        W37083   0.071  15.419   1.638  0.0146  0.3670 -0.1687
23670W        W37084  14.102   2.954  11.694  0.1692 -0.0246 -0.0795
23671W        W37085  12.101   7.630  15.495  0.3086 -0.5721 -0.0609
23672W        W37086  15.461  10.351   1.169  0.2252 -0.1073  0.3405
23673W        W37087   7.838  10.587  16.484 -0.0519 -0.1623 -0.1781
23674W        W37088  11.781   6.011   5.986  0.1234  0.0056 -0.2011
23675W        W37089  10.387   2.229  14.685  0.0390 -0.1961  0.0549
23676W        W37090   2.635   4.332  11.531  0.1429  0.0220 -0.1534
23677W        W37091   4.967   9.376   1.403  0.2473  0.2143 -0.2306
23678W        W37092   1.328  14.067  15.243 -0.1601 -0.0439  0.0355
23679W        W37093   6.002  13.759  11.124 -0.0201 -0.2823 -0.1729
23680W        W37094   9.463   6.319  16.162  0.2397 -0.1799 -0.0632
23681W        W37095  12.999   6.029   1.394 -0.2441  0.0899 -0.0483
23682W        W37096   0.037  15.878   1.305  0.1019  0.0575 -0.3029
23683W        W37097   7.577   2.768   4.506 -0.0697 -0.3824  0.3995
23684W        W37098   3.736   0.714  13.805 -0.0919 -0.0407  0.0436
23685W        W37099   2.955   6.485   6.215 -0.1410  0.2055  0.2221
23686W        W37100   1.510  15.388  13.150 -0.2218  0.0111  0.0792
23687W        W37101   6.019   7.069   3.088  0.0636  0.1374  0.0511
23688W        W37102  16.111  12.460   0.914 -0.2752 -0.0705  0.3463
23689W        W37103  14.388   9.331  14.029 -0.2873  0.1557 -0.3056
23690W        W37104   0.547   9.800  14.377  0.3394 -0.2165  0.2177
23691W        W37105   4.808  12.637  16.321  0.0842  0.0645 -0.0139
23692W        W37106   8.716  16.720   4.845 -0.0177  0.5274  0.2836
23693W        W37107   5.657   7.579  11.856  0.2015 -0.0751 -0.0675
23694W        W37108   9.200   2.098   4.467  0.2704  0.0752  0.0710
23695W        W37109  14.055   0.156   6.497  0.2025 -0.0482  0.0969
23696W        W37110   4.186  16.693   2.855 -0.0194  0.1557 -0.1057
23697W        W37111   5.249  11.990   1.408  0.0720 -0.4617  0.3688
23698W        W37112  14.770   8.941   6.919 -0.2017 -0.4012 -0.0624
23699W        W37113   4.331  13.534  16.767  0.3443  0.0758  0.0815
23700W        W37114  16.405  12.697  14.974  0.1335 -0.3511  0.3515
23701W        W37115  12.606  17.059   0.980  0.0426 -0.2018 -0.1247
23702W        W37116  13.616   6.993  12.128  0.1036 -0.0447 -0.3254
23703W        W37117   9.170   9.380   0.421 -0.1833  0.0692  0.0526
23704W        W37118   2.828   3.888  13.114  0.1577  0.0712 -0.1550
23705W        W37119  14.333  13.936   4.282  0.4311 -0.0609  0.2703
23706W        W37120  14.428  17.834  11.375 -0.1997 -0.2619 -0.0782
23707W        W37121   7.258  13.691  15.003  0.2055  0.2138 -0.1083
23708W        W37122   6.471  14.436   3.375 -0.1642  0.0732  0.0672
23709W        W37123  10.683   6.975   4.240  0.2131 -0.4400  0.0216
23710W        W37124   1.105   6.775  15.306 -0.0194 -0.1497 -0.2200
23711W        W37125   8.443  11.129  11.291 -0.0918 -0.0042 -0.2379
23712W        W37126  10.802   5.899   2.366  0.3306  0.0253 -0.0558
23713W        W37127  10.151  10.761   3.690 -0.0845  0.1195  0.1237
23714W        W37128  12.987   0.415   2.742  0.3220 -0.1658 -0.0234
23715W        W37129   2.986  17.470  16.682  0.2431  0.0515 -0.0229
23716W        W37130   6.301   9.210  11.903  0.0361  0.2246  0.0511
23717W        W37131  17.189   5.876   5.687  0.2145 -0.2971  0.1284
23718W        W37132  16.028  14.121   2.667 -0.0687 -0.1513 -0.0883
23719W        W37133  13.200  15.419   5.571 -0.1055 -0.4271 -0.2026
23720W        W37134  15.809  10.288  13.712 -0.0216 -0.1352 -0.0311
23721W        W37135   0.154  12.103  12.282  0.0448 -0.0826  0.2038
23722W        W37136  15.415   0.110  14.617  0.1722  0.0216 -0.2795
23723W        W37137   8.607  13.971   3.955 -0.0116  0.0631  0.0601
23724W        W37138  14.901  11.986   3.937 -0.1266 -0.1049  0.2751
23725W        W37139  15.965   6.248   1.559 -0.0092  0.1776  0.0381
23726W        W37140  16.987  15.125  16.109 -0.0471 -0.2356 -0.1839
23727W        W37141  11.181  16.363   4.980  0.0836  0.0178  0.4532
23728W        W37142   8.624   5.616  13.341  0.0776 -0.0504  0.1787
23729W        W37143  13.931  14.425   1.115 -0.1626 -0.1460  0.1580
23730W        W37144  13.325   2.680  14.508 -0.0438 -0.0927 -0.3619
23731W        W37145  14.105  15.056  12.036 -0.0563 -0.0140 -0.1580
23732W        W37146   3.189   3.327   1.025 -0.1028  0.0020  0.0166
23733W        W37147   0.693   8.713  16.170  0.1545  0.0926  0.4846
23734W        W37148   6.968   6.447   9.978 -0.0937  0.2136  0.0420
23735W        W37149   5.068   2.400  12.285 -0.2435  0.1950  0.0660
23736W        W37150  14.785   2.928   4.612  0.2989 -0.0615 -0.2611
23737W        W37151  13.536   1.533  16.220  0.2178  0.1958  0.1034
23738W        W37152   0.111   8.734  10.719  0.0214 -0.0945  0.0695
23739W        W37153  12.474   3.014  11.352 -0.1508  0.0590  0.2056
23740W        W37154   1.851  16.403   3.163  0.0512  0.0497 -0.0180
23741W        W37155  11.656  14.383  16.606  0.2505  0.0490 -0.0994
23742W        W37156   6.773   2.245   4.514  0.2537 -0.3016  0.0643
23743W        W37157   6.982  17.345   0.940 -0.3908 -0.2855  0.0033
23744W        W37158   1.081  16.007   3.022  0.1145  0.0139  0.2750
23745W        W37159   3.517   2.433  14.413  0.2481 -0.0249 -0.0480
23746W        W37160   3.382   1.448   1.404 -0.0015  0.0437  0.1127
23747W        W37161  17.594   5.149   3.841  0.1587  0.0037 -0.0816
23748W        W37162  10.443   1.255   5.563  0.1510  0.1068 -0.0521
23749W        W37163   3.030  15.972   1.488  0.4498 -0.0361 -0.2393
23750W        W37164   4.751   8.260  16.156 -0.3391 -0.2352  0.0208
23751W        W37165  16.953   4.674  11.972 -0.0150  0.0865 -0.0505
23752W        W37166  13.351   3.790  14.949  0.0980  0.0413  0.0880
23753W        W37167  13.968   0.835   5.007 -0.2854 -0.3186  0.0927
23754W        W37168   4.486  14.901   0.598 -0.0506  0.5157 -0.2941
23755W        W37169   6.606  12.172  15.467  0.1100  0.0799  0.3516
23756W        W37170  15.166   9.162   5.652 -0.3233 -0.0244 -0.1184
23757W        W37171  15.315   9.914   3.107  0.0770  0.0662  0.1435
23758W        W37172  16.944  13.621  11.344 -0.1961 -0.2094  0.0948
23759W        W37173  17.475   7.957  11.263  0.1296 -0.1506 -0.1473
23760W        W37174   2.419   7.077   3.974 -0.0205  0.1951  0.0273
23761W        W37175  17.051  14.215  13.099  0.0094 -0.3723 -0.1602
23762W        W37176   4.073  11.534   1.857 -0.0686  0.2537  0.0481
23763W        W37177   1.322  16.961  13.046 -0.2622  0.3989  0.0641
23764W        W37178   0.699   1.108   4.015 -0.0276 -0.4275 -0.0955
23765W        W37179  16.635  17.371  11.360 -0.1410 -0.3478 -0.2483
23766W        W37180   0.802   8.966  11.363 -0.0174 -0.0209  0.2466
23767W        W37181   9.895  10.716  13.409 -0.0627  0.0712 -0.2893
23768W        W37182  11.521   2.008   5.239  0.0675  0.2852 -0.1441
23769W        W37183   4.495  13.821   0.389 -0.0309 -0.3914  0.0837
23770W        W37184   5.028  11.646  13.359  0.2317  0.0208 -0.4391
23771W        W37185   8.781   2.134   4.690  0.1723 -0.0916  0.1367
23772W        W37186  14.638  17.540   6.029 -0.6315 -0.1255 -0.2567
23773W        W37187  17.907  13.547   0.481 -0.0082 -0.0482  0.0427
23774W        W37188   0.215   5.790  10.207 -0.1641  0.0341  0.0766
23775W        W37189  17.833  10.737  11.011 -0.0269 -0.1710 -0.0062
23776W        W37190   4.793   4.138   5.273 -0.1582 -0.1812 -0.0760
23777W        W37191  11.807   9.923   2.335 -0.0983  0.0597 -0.6907
23778W        W37192   3.959   8.645   0.618 -0.0881 -0.1330 -0.2226
23779W        W37193  17.664  16.616   3.363  0.1830  0.1032  0.2597
23780W        W37194   6.591  10.889   2.878 -0.1639 -0.1948 -0.0080
23781W        W37195  14.536   4.014  10.115  0.1051  0.4036 -0.3076
23782W        W37196   4.773  17.325   3.300  0.0656 -0.0987  0.1452
23783W        W37197  16.154  10.170   3.098 -0.1237  0.1416  0.0193
23784W        W37198  11.555   0.219  16.591  0.3144  0.1748 -0.1137
23785W        W37199   9.077  11.091  12.535 -0.1354  0.1520  0.0477
23786W        W37200  13.806  14.187  14.696 -0.2352 -0.1729  0.1018
23787W        W37201   2.859   7.426  16.726  0.0895 -0.3741  0.2348
23788W        W37202   0.986   1.235   1.842 -0.1984 -0.0666 -0.1007
23789W        W37203   0.810   9.886   5.642 -0.2806 -0.0645  0.2268
23790W        W37204   3.936   1.076  15.657  0.0958 -0.0718  0.0854
23791W        W37205   1.534   7.967  12.160 -0.2068 -0.2464 -0.1341
23792W        W37206  14.047   3.281   9.955  0.2527  0.1116  0.1597
23793W        W37207   6.766  17.907  12.047  0.1316  0.2707  0.0562
23794W        W37208   7.440  16.291  16.157  0.0648 -0.2904 -0.4119
23795W        W37209   0.833  10.769   3.379 -0.0539 -0.0676  0.5009
23796W        W37210   7.020   5.777   1.509 -0.0111 -0.0677  0.1862
23797W        W37211   1.950  13.519   3.060 -0.0463 -0.3633 -0.0876
23798W        W37212   0.799   7.881   3.978  0.1959 -0.0585  0.0364
23799W        W37213   7.784  17.287  11.407 -0.0909  0.1150  0.0017
23800W        W37214   0.330  13.946  11.611 -0.0263  0.0121  0.1078
23801W        W37215  11.084  16.219   1.664 -0.0222  0.1594 -0.1565
23802W        W37216  11.417  15.637  11.091  0.1366 -0.1313  0.0173
23803W        W37217   5.684  12.678  11.518 -0.2973  0.1788  0.1283
23804W        W37218   7.037   0.629  13.599 -0.1352  0.1006 -0.0305
23805W        W37219  13.064   9.341   0.703 -0.1302  0.0105  0.2464
23806W        W37220  12.519   9.567   3.107  0.2993 -0.0493 -0.2736
23807W        W37221   5.144   6.989   3.009 -0.1004 -0.0226  0.1074
23808W        W37222  15.967  11.982  15.405  0.0489 -0.0077 -0.2426
23809W        W37223   2.809   3.557  16.455 -0.1357 -0.1249 -0.1421
23810W        W37224  16.963  11.286   4.755 -0.1187 -0.0616 -0.1741
23811W        W37225  13.629   0.931  11.207 -0.2530 -0.0536 -0.3014
23812W        W37226   9.343   5.476   5.400  0.0856 -0.2113  0.1958
23813W        W37227  17.253  13.792  15.579  0.1708 -0.0291 -0.3350
23814W        W37228  14.373  13.124   0.765  0.2355  0.0417  0.3331
23815W        W37229   8.109   0.374   1.020 -0.2922  0.1106  0.2877
23816W        W37230  12.488  15.466  11.798 -0.1107  0.0787 -0.1395
23817W        W37231   5.994  15.295   4.901 -0.0188  0.0173  0.0531
23818W        W37232  13.362  13.720  12.488  0.2476 -0.4329  0.2551
23819W        W37233  13.859  10.520  13.775  0.3682  0.1204 -0.1182
23820W        W37234  16.602  14.984  14.821  0.0003  0.0339  0.2994
23821W        W37235   0.021   3.899  13.969  0.0925 -0.1737  0.1710
23822W        W37236   3.354  13.925   3.225  0.0535  0.4033 -0.0234
23823W        W37237   4.131  11.477   3.277 -0.2440  0.0351  0.0660
23824W        W37238   5.349  11.786  14.260 -0.1457 -0.4557 -0.0747
23825W        W37239  13.873   5.498   2.016 -0.2731 -0.1004 -0.0425
23826W        W37240   4.503  14.457   1.586 -0.0981 -0.1315 -0.1693
23827W        W37241   6.868   1.442  15.817 -0.0884  0.1203  0.0682
23828W        W37242  16.769  17.768   3.201 -0.0441 -0.1873  0.1701
23829W        W37243   6.473  12.732   6.122 -0.0644 -0.0761  0.0049
23830W        W37244  16.578  17.030  13.121  0.2259  0.2523  0.0171
23831W        W37245   6.617  16.835  11.201  0.0359  0.0417 -0.1969
23832W        W37246   6.246   0.058  11.959  0.1367  0.0096  0.0669
23833W        W37247  15.467  12.881  14.786  0.1597 -0.0073  0.0448
23834W        W37248  14.595   1.827   3.897 -0.0860  0.3562 -0.2082
23835W        W37249  12.137   1.965   2.564  0.1313  0.0969  0.3746
23836W        W37250   2.436   4.056  13.894  0.0979 -0.1165 -0.1484
23837W        W37251   4.629   9.918  11.892  0.1191 -0.2802  0.2299
23838W        W37252   7.271  11.943  13.173  0.2159  0.0668  0.1158
23839W        W37253   6.977  15.917  12.928  0.1701  0.1564  0.0320
23840W        W37254   9.518   9.315   2.734  0.0838 -0.0679  0.2908
23841W        W37255  16.388  12.863  14.054  0.3305 -0.3837 -0.2858
23842W        W37256  13.915   3.885  10.816 -0.1538 -0.1710 -0.0088
23843W        W37257   9.383   2.852   4.026  0.0116 -0.0774 -0.0494
23844W        W37258  14.143  12.663   1.080  0.1213 -0.2259 -0.0320
23845W        W37259   8.014   3.530   3.267  0.2893 -0.1135 -0.2221
23846W        W37260   8.491   7.364  16.145  0.4405 -0.2047 -0.0155
23847W        W37261   7.008   9.111   3.470 -0.2961 -0.3303  0.3768
23848W        W37262   1.735   3.787   0.921  0.1087  0.4102  0.1451
23849W        W37263  17.647   3.713   2.486  0.0156  0.1703 -0.2895
23850W        W37264  12.835   7.042   1.624  0.4479 -0.3118  0.0804
23851W        W37265  15.150   8.338   0.581 -0.0435 -0.0337 -0.0594
23852W        W37266  14.304   6.026   6.017 -0.1556 -0.0885 -0.0374
23853W        W37267   7.814  15.260   0.494 -0.3629  0.0244 -0.0184
23854W        W37268   2.006  11.004  14.445  0.0765  0.0844  0.0728
23855W        W37269  11.482  16.831   0.728 -0.1347  0.0618  0.2195
23856W        W37270  13.966   3.032   5.237  0.2191  0.1222 -0.1310
23857W        W37271  14.760  12.177  16.039  0.0552 -0.0041 -0.0569
23858W        W37272  14.120  13.215  12.526 -0.0031 -0.1949  0.2049
23859W        W37273  13.657  17.723  14.235 -0.0468 -0.4947 -0.2031
23860W        W37274  15.311   6.978  16.185  0.1818 -0.2433  0.1889
23861W        W37275  11.099  16.730   0.298 -0.2735  0.0688  0.1003
23862W        W37276  12.391  10.091   0.842 -0.2682  0.1153 -0.3750
23863W        W37277  12.518   1.986   3.892 -0.0171 -0.1891 -0.1633
23864W        W37278  15.697   8.535  16.265  0.0477 -0.1070 -0.0581
23865W        W37279   5.914   5.396   2.445  0.3066  0.1691 -0.2606
23866W        W37280   8.938  10.509   3.506  0.3471 -0.0151  0.0628
23867W        W37281  11.695   9.023   4.376  0.2297 -0.4342  0.0435
23868W        W37282   9.478   6.451   5.236  0.1098 -0.1161 -0.0380
23869W        W37283   7.877   5.236  15.943  0.1581  0.2443  0.2192
23870W        W37284   0.971   2.092  14.664  0.1318  0.5992  0.3047
23871W        W37285  14.421  13.634   5.990  0.0140 -0.1111  0.3212
23872W        W37286   3.226  17.873  16.552 -0.0895 -0.0474 -0.0474
23873W        W37287  16.817  10.265  10.776  0.0963 -0.1132 -0.1524
23874W        W37288  15.384   4.564   0.919 -0.3963 -0.2112  0.1662
23875W        W37289   3.968  11.096   4.314  0.1209 -0.0329 -0.0027
23876W        W37290  16.038  11.264  13.724  0.0465 -0.3955  0.3669
23877W        W37291   6.124   5.872  12.191  0.2414 -0.3573  0.0082
23878W        W37292   2.586  17.012   2.228  0.0350  0.0096 -0.0546
23879W        W37293   7.026   3.273   4.408 -0.1149  0.0142  0.0353
23880W        W37294  14.886  17.042  11.754  0.1077 -0.0188  0.3817
23881W        W37295  10.640   9.501   3.511  0.4315 -0.0508 -0.1537
23882W        W37296  17.232  10.777  15.917  0.2134 -0.0444 -0.1173
23883W        W37297   8.987   1.772   0.220  0.0137 -0.2034 -0.1919
23884W        W37298  14.599   7.172  13.068 -0.0691 -0.0385  0.4736
23885W        W37299   2.770   2.076   3.588  0.1250 -0.4936 -0.0228
23886W        W37300   1.091  12.940   4.050  0.1035  0.1615 -0.1351
23887W        W37301   8.363  17.869   3.793  0.0517  0.0977  0.4562
23888W        W37302  12.160  12.920   1.418  0.0172  0.2113 -0.1284
23889W        W37303   6.568  11.318   1.599 -0.0277 -0.2151 -0.1097
23890W        W37304  14.329   1.670  12.203  0.2616  0.0652  0.0355
23891W        W37305  11.208  10.019   0.198  0.1035 -0.0248 -0.2876
23892W        W37306  14.619  11.531  14.645  0.0460  0.1511 -0.0116
23893W        W37307   5.252   8.012   1.624 -0.2509  0.0529 -0.1983
23894W        W37308   6.356   4.347   4.310  0.0963 -0.0376 -0.0836
23895W        W37309   1.263   8.511  10.324 -0.1595 -0.0612  0.2017
23896W        W37310   5.234  15.142   3.550  0.1163  0.2084 -0.3368
23897W        W37311   1.398  17.531  15.238  0.1612  0.3382  0.4301
23898W        W37312   5.073   5.185   2.966 -0.0103  0.1879  0.0041
23899W        W37313  16.833   2.213   2.751 -0.2736 -0.1594  0.4266
23900W        W37314  17.188   4.161  11.404 -0.0248 -0.0050  0.1043
23901W        W37315   2.109   4.184  11.914  0.0824 -0.1231 -0.1156
23902W        W37316   4.203  15.266   0.300  0.3684 -0.0320  0.0457
23903W        W37317  14.708  13.215  14.683  0.1112 -0.1715  0.1274
23904W        W37318   1.479   0.985  11.813 -0.0483  0.0690  0.0054
23905W        W37319   8.455   7.489   1.962  0.2312 -0.1688  0.0182
23906W        W37320  13.773   5.824   4.115  0.1436 -0.0622 -0.1012
23907W        W37321   6.477   9.605  12.759  0.0882  0.2181 -0.2492
23908W        W37322  11.545   8.673  12.059 -0.0796  0.1379 -0.2520
23909W        W37323   0.469   2.189   4.964  0.0454 -0.0539  0.2534
23910W        W37324   6.174   4.406  12.607  0.1509 -0.1631  0.0354
23911W        W37325   1.263  16.690   1.357  0.0090 -0.0984 -0.3448
23912W        W37326   1.167  14.915  10.900  0.1129 -0.2952 -0.1546
23913W        W37327  12.267  10.366   5.430  0.1526  0.3057  0.2396
23914W        W37328   4.703  10.956  15.709 -0.1496 -0.2223  0.0111
23915W        W37329   8.056  14.375  11.606  0.1964  0.0084 -0.0428
23916W        W37330  11.835  15.600  13.504 -0.2161 -0.0060 -0.0673
23917W        W37331  15.045  12.389   0.981 -0.0156 -0.1037 -0.4833
23918W        W37332   2.099   3.990  11.437 -0.2016 -0.2146  0.0405
23919W        W37333   8.419  10.697  14.527 -0.1610 -0.0561  0.0575
23920W        W37334  11.897   5.126  15.573 -0.2890  0.0125 -0.0250
23921W        W37335  12.020  16.462  14.495  0.3238 -0.1022 -0.0128
23922W        W37336   9.564  15.457   4.590  0.0983  0.1415 -0.1837
23923W        W37337   1.301  14.154   1.380 -0.2566 -0.1529  0.1016
23924W        W37338  17.459  14.340  13.325 -0.1263  0.0753  0.0776
23925W        W37339  12.342   0.515  11.536  0.3213 -0.0863 -0.2333
23926W        W37340  17.269   9.675  13.839 -0.1019 -0.0215 -0.0632
23927W        W37341   0.703   5.458  11.041 -0.0906 -0.3089 -0.1069
23928W        W37342   2.208   0.843   4.342 -0.0943  0.2107 -0.0192
23929W        W37343   0.135   3.606  14.515 -0.0538  0.3282 -0.0399
23930W        W37344  17.018  14.555   3.309 -0.0209  0.0004  0.2410
23931W        W37345   6.979   9.320  14.344  0.2192 -0.2553 -0.1286
23932W        W37346  17.748   7.886  11.697  0.1030 -0.1809 -0.0472
23933W        W37347  15.097   5.599   5.871  0.2596 -0.1084 -0.0067
23934W        W37348   8.220  14.404  10.598 -0.2964  0.2357 -0.0092
23935W        W37349  14.095  15.618  16.253  0.1648  0.1976 -0.0025
23936W        W37350  12.705   1.750   1.585  0.2613 -0.0786 -0.1563
23937W        W37351   2.722  16.048  12.115  0.1342  0.0355 -0.0587
23938W        W37352   6.966   0.276  11.112  0.0194  0.0537 -0.1146
23939W        W37353   1.494  12.223   3.071 -0.0611  0.3087 -0.0689
23940W        W37354  12.134   9.259   2.149 -0.2277 -0.1770  0.2253
23941W        W37355  12.933  10.912  10.971  0.0427 -0.1473 -0.2024
23942W        W37356  11.467  13.691  10.981  0.1223 -0.1270  0.0744
23943W        W37357   0.958   7.862   5.112  0.0473 -0.2419 -0.1830
23944W        W37358  13.038  12.661  11.552 -0.0053  0.0305  0.3756
23945W        W37359   4.167  12.113   5.343  0.2288 -0.1855 -0.3702
23946W        W37360   3.942   0.342  12.296  0.2294 -0.0089 -0.0702
23947W        W37361   3.547   4.470   2.276  0.1254 -0.1659  0.1697
23948W        W37362  13.427  16.947   6.054  0.0214 -0.2222  0.0773
23949W        W37363   9.609   9.401   3.608  0.1405 -0.0832  0.2660
23950W        W37364   5.528  11.913   3.769  0.0437  0.0025  0.1650
23951W        W37365   8.195  16.496  16.521 -0.1216 -0.0394  0.1625
23952W        W37366  17.814  12.171   3.828 -0.1888  0.0351  0.1823
23953W        W37367   6.062  12.079  10.560 -0.2933 -0.0657  0.0653
23954W        W37368   7.146   4.822  14.928 -0.0475 -0.1977  0.0237
23955W        W37369   2.479  10.752   3.990 -0.3509  0.1569 -0.3205
23956W        W37370   1.565   4.874  14.418 -0.3415  0.2846  0.0040
23957W        W37371  12.902   8.871   6.792  0.1492  0.1459  0.0251
23958W        W37372   9.188  11.818   3.460  0.1577 -0.0222 -0.1355
23959W        W37373   4.902   2.534  13.996 -0.2606  0.0601  0.0461
23960W        W37374  14.119   3.863  12.242 -0.3838  0.0504 -0.0786
23961W        W37375   4.884   4.912  12.589  0.1772  0.0721 -0.0573
23962W        W37376  10.802   6.895  15.482  0.0635 -0.1271  0.4545
23963W        W37377  14.356  10.248  11.978 -0.2347 -0.3545 -0.1895
23964W        W37378   0.658   4.998   3.826 -0.1626 -0.0388 -0.4116
23965W        W37379  13.430   8.970  13.809 -0.3639 -0.0691 -0.0338
23966W        W37380   4.710   1.582  12.337  0.0166  0.0230 -0.0376
23967W        W37381   8.706  10.949   2.518  0.0184  0.0572  0.1748
23968W        W37382  14.100   5.768  15.317 -0.0041 -0.1817  0.1601
23969W        W37383  10.207   5.220  13.538 -0.1164 -0.2940 -0.2046
23970W        W37384  17.847   7.859   3.751  0.1192  0.2132 -0.1653
23971W        W37385  12.842   6.147  12.208 -0.0778  0.0251 -0.0367
23972W        W37386  15.397   8.296  15.917 -0.0960  0.1551 -0.4093
23973W        W37387   0.299  14.367   2.733  0.3457  0.0494  0.0884
23974W        W37388  15.004  11.039   5.177 -0.0462  0.0903  0.1191
23975W        W37389   3.071   4.187  11.945  0.2304 -0.0365  0.0090
23976W        W37390  13.943   2.180   4.416  0.1086  0.1821 -0.0199
23977W        W37391  14.253  16.054   0.168  0.3035 -0.1422  0.1464
23978W        W37392   2.146  10.149   5.054 -0.0214  0.2974  0.0263
23979W        W37393  15.795  12.426  14.347 -0.1505 -0.0283 -0.0509
23980W        W37394   0.504   7.749   4.922 -0.0205 -0.0345  0.2120
23981W        W37395  10.444   4.524   2.811 -0.0558 -0.1709  0.0520
23982W        W37396  17.320  14.121   5.712 -0.0129  0.3296 -0.0502
23983W        W37397   0.226  17.372   3.753 -0.2060 -0.0739  0.2667
23984W        W37398  16.147  10.875   0.488  0.1344  0.0756  0.0899
23985W        W37399  10.140  10.462   5.707 -0.1144 -0.1633  0.1065
23986W        W37400  11.919  17.889   4.379  0.0655 -0.1074  0.0114
23987W        W37401   3.948  12.130   0.244  0.0596  0.0873  0.0824
23988W        W37402  11.762   1.134   3.868  0.2823  0.0672 -0.0665
23989W        W37403   6.297   6.113  11.146  0.0974 -0.0471  0.2776
23990W        W37404  12.538  10.995   4.333  0.0811  0.3020 -0.0543
23991W        W37405   6.893   9.472  11.239 -0.2023  0.1778  0.1474
23992W        W37406   2.305   7.525  14.128 -0.0033  0.1720 -0.0767
23993W        W37407  16.976   1.924  11.106  0.0750 -0.0184 -0.2239
23994W        W37408   5.939  11.369  14.830  0.0645 -0.0845 -0.0592
23995W        W37409   6.592   5.296  14.032 -0.1208 -0.1174 -0.1419
23996W        W37410  11.737  11.104   4.972 -0.4074  0.1892 -0.1316
23997W        W37411  13.318   5.978   0.052 -0.0087  0.1322  0.1166
23998W        W37412  17.888   1.474  10.499 -0.0865 -0.0009 -0.3862
23999W        W37413  14.475  12.209  16.623  0.2407  0.0125  0.1430
24000W        W37414   2.592   2.799   0.689  0.0615 -0.0606  0.1190
24001W        W37415   0.600  16.956   0.416 -0.0212  0.1737  0.0820
24002W        W37416  15.539  10.823   4.276 -0.1683 -0.0303  0.0881
24003W        W37417   0.863  12.076  11.195  0.0050 -0.0154 -0.0377
24004W        W37418  11.027   3.883   5.475  0.1175  0.0932 -0.0772
24005W        W37419  10.175   7.360   2.002 -0.1233 -0.2250 -0.2234
24006W        W37420   4.718   6.223  12.955  0.2278 -0.1937  0.1287
24007W        W37421  11.030   1.633  13.616 -0.2830 -0.1918  0.2356
24008W        W37422   4.467   5.006  12.870  0.3107  0.0527  0.0113
24009W        W37423   1.705  15.280  11.135 -0.0543  0.0934 -0.1119
24010W        W37424   7.333  11.273  16.781  0.0163  0.1133  0.3259
24011W        W37425   0.179   2.486   3.688  0.1617  0.0739  0.0193
24012W        W37426  14.719   5.314  14.075  0.0336 -0.2228 -0.0749
24013W        W37427   9.774   9.923  11.275 -0.0385 -0.0183 -0.1810
24014W        W37428   5.707  13.292  13.914 -0.0092  0.4216 -0.0384
24015W        W37429  17.306   4.911  12.479  0.1626  0.0474  0.1900
24016W        W37430   6.358  10.565   5.827 -0.3731  0.3432  0.1217
24017W        W37431  14.006  10.003  15.705 -0.1827 -0.1250 -0.3605
24018W        W37432  11.157  17.854  11.647  0.1761  0.1438 -0.1348
24019W        W37433  10.899   8.885  12.886  0.0045 -0.1893 -0.3464
24020W        W37434   3.843   2.038   4.334  0.1447  0.0796 -0.1290
24021W        W37435   9.003  17.519   5.980 -0.0769  0.3497  0.1420
24022W        W37436   4.728   8.684  14.017  0.0674 -0.0024 -0.1721
24023W        W37437  10.953   7.593   5.488  0.2287  0.3158  0.2481
24024W        W37438   6.045   1.630  16.759 -0.2209 -0.0594 -0.2011
24025W        W37439  16.170  16.231   3.509 -0.2497  0.1089  0.1967
24026W        W37440   0.940   4.048  14.211  0.1703 -0.1242 -0.3213
24027W        W37441   8.846   9.964  11.572  0.2263 -0.0505  0.1814
24028W        W37442   9.757  10.595  14.458  0.0830  0.1421 -0.0791
24029W        W37443   8.830   5.739   1.100  0.1145 -0.2192  0.0501
24030W        W37444  14.666   9.700  14.925  0.3269  0.1652  0.3620
24031W        W37445   6.760  13.162  16.176  0.0272 -0.0519  0.0414
24032W        W37446   8.642   4.902  12.705  0.0961 -0.2796 -0.0242
24033W        W37447   6.279  15.397   5.291 -0.0869  0.2712  0.0578
24034W        W37448  10.389   6.774  12.543 -0.2134 -0.0305 -0.2307
24035W        W37449  16.919  11.106  16.203 -0.0719 -0.1088 -0.0829
24036W        W37450  12.459   8.708   2.878  0.2195  0.2974 -0.3421
24037W        W37451   6.441  10.236   5.349 -0.2239  0.3786 -0.1674
24038W        W37452   4.310   0.573   4.498  0.0941  0.2421 -0.0166
24039W        W37453   5.509   1.209   1.820 -0.1888  0.0605  0.0622
24040W        W37454   7.091  14.183  10.172 -0.1005  0.0474 -0.2071
24041W        W37455  13.635   3.266  13.965 -0.1377 -0.2363 -0.2545
24042W        W37456  10.530  17.345  15.251 -0.0367  0.0835  0.0505
24043W        W37457  17.915   5.594  12.376  0.0035  0.3043  0.1312
24044W        W37458   2.299   9.043  11.536 -0.2865 -0.1368  0.3199
24045W        W37459  10.043   3.256  14.027  0.1566  0.0887 -0.0676
24046W        W37460   0.016  14.227  13.990 -0.0363 -0.0702 -0.0917
24047W        W37461  13.982  14.733  16.275  0.1119 -0.1205 -0.1974
24048W        W37462  14.669   4.854  14.372 -0.0200  0.3540  0.1112
24049W        W37463  16.526   2.926   2.187  0.1791 -0.3892  0.0490
24050W        W37464   5.775  14.277   5.773  0.0156  0.0017  0.0567
24051W        W37465   2.992   5.200  12.892 -0.0154  0.0494  0.1393
24052W        W37466   1.232  11.840  14.100 -0.2737 -0.1024 -0.0885
24053W        W37467   2.326   4.261  14.395  0.1655 -0.2032  0.2421
24054W        W37468   4.143   2.894  11.027 -0.0768  0.1200 -0.1802
24055W        W37469   7.863   9.429   2.406 -0.1751  0.0814 -0.0557
24056W        W37470   8.547  10.353   3.918 -0.1965  0.1298 -0.1012
24057W        W37471  16.992  10.636  10.400  0.1432 -0.0041  0.1455
24058W        W37472   2.020  11.975   0.156 -0.3553  0.0204 -0.0092
24059W        W37473  17.311  12.175  10.723  0.2893 -0.0162 -0.3375
24060W        W37474  10.750   8.641  16.417  0.0526 -0.0844  0.0845
24061W        W37475   9.887   1.986  11.713  0.0354  0.1122  0.0117
24062W        W37476  10.305  16.567   3.783 -0.1432  0.2019 -0.1237
24063W        W37477  12.832   3.916   4.854 -0.2260 -0.2799  0.1294
24064W        W37478  16.463  13.801  15.269  0.5172 -0.1424  0.0916
24065W        W37479  17.833   7.397   5.513 -0.3050  0.3601 -0.3818
24066W        W37480  12.290  11.908   4.488  0.0542  0.1459 -0.3926
24067W        W37481  10.771  16.905   3.690 -0.2584  0.0580  0.0814
24068W        W37482   6.031   7.752   0.045 -0.2433  0.0606 -0.1297
24069W        W37483   8.320   5.917   1.210 -0.0822 -0.0683  0.1547
24070W        W37484  16.346   3.807   3.263  0.0616  0.2307 -0.0883
24071W        W37485  17.494  10.440   0.174 -0.3669  0.1598 -0.1703
24072W        W37486  12.626   2.178   5.592  0.0100 -0.0088  0.1769
24073W        W37487  17.558   1.985  11.900 -0.1318  0.1697  0.0614
24074W        W37488   8.418   5.988   3.773 -0.3211 -0.1340  0.1698
24075W        W37489   3.536   7.816  14.682 -0.1533  0.2990  0.0641
24076W        W37490   1.129  12.075  14.559  0.0771  0.0141 -0.0604
24077W        W37491  15.031   7.212  16.577 -0.0460 -0.0669  0.1246
24078W        W37492   3.848   6.166  12.421 -0.0943 -0.0450  0.1429
24079W        W37493   9.627  12.070   1.083  0.0935  0.1293 -0.1065
24080W        W37494   1.730  14.434  15.125  0.0681  0.0909 -0.0641
24081W        W37495   0.603   8.855  12.332 -0.0606  0.2071 -0.1778
24082W        W37496   2.798  10.480  14.626 -0.1317  0.2446 -0.2639
24083W        W37497  11.057   4.670   0.885  0.1546 -0.0573 -0.0308
24084W        W37498  16.874   2.406   2.282 -0.0548 -0.0338  0.1828
24085W        W37499   0.356   8.975   5.279 -0.0486 -0.2551  0.0159
24086W        W37500   0.588   4.122  13.783  0.0176  0.0833  0.0548
24087W        W37501   7.437   6.831  12.030 -0.0315 -0.1581  0.0072
24088W        W37502  12.264  14.057  15.950 -0.4756 -0.0926 -0.2802
24089W        W37503   6.430   9.567  11.491 -0.1862  0.1059  0.0626
24090W        W37504  11.158  14.548   6.408 -0.1196 -0.1812  0.0229
24091W        W37505  16.652  15.850   4.907  0.2895  0.0307 -0.1201
24092W        W37506   0.348   9.036   5.822  0.2146  0.1650  0.2410
24093W        W37507   6.945  15.347   1.699  0.1707 -0.2052 -0.1229
24094W        W37508  11.530   2.537   1.251 -0.2101 -0.3641  0.3102
24095W        W37509   5.149  11.952   2.211  0.0507 -0.3924 -0.4123
24096W        W37510   7.582  14.538  16.064 -0.1660  0.4185  0.0292
24097W        W37511  10.622  16.567   6.191  0.0674 -0.2339  0.0391
24098W        W37512   7.852   0.401  12.654 -0.0499 -0.0692 -0.0489
24099W        W37513  13.984   2.597  15.229 -0.0331 -0.1720 -0.2746
24100W        W37514   3.664   5.289   0.653  0.0948  0.0110  0.0856
24101W        W37515  10.109  17.747  10.810 -0.3009 -0.2535  0.5583
24102W        W37516  16.878   8.905  14.858 -0.2775  0.1139 -0.0482
24103W        W37517   4.338  11.966   1.755 -0.3425 -0.0545 -0.0617
24104W        W37518  10.206  10.228   0.199  0.2772  0.1794 -0.1516
24105W        W37519   0.012  11.207  13.849  0.0866  0.0369 -0.0681
24106W        W37520  17.989  12.636  12.056  0.0751 -0.0606  0.1178
24107W        W37521  15.208   0.684   3.226  0.2665  0.0285  0.4257
24108W        W37522  10.938   5.002  12.902  0.3064 -0.0756  0.0292
24109W        W37523   3.597   1.607   4.596  0.2209 -0.2285  0.1629
24110W        W37524   4.871  13.490  15.674  0.0552 -0.0593 -0.2131
24111W        W37525  13.754   6.720  15.304 -0.1057 -0.0251 -0.1262
24112W        W37526  11.243   7.981  10.535  0.1584 -0.1421 -0.2018
24113W        W37527  11.332   9.599   3.278  0.2144 -0.0568  0.1299
24114W        W37528   5.278  12.242   1.800 -0.0567  0.2202 -0.5163
24115W        W37529  13.188  13.278  12.282  0.1218  0.1894  0.2412
24116W        W37530  10.931  10.646   1.433  0.2426  0.1856  0.1663
24117W        W37531  11.400   3.814   4.003  0.2054  0.1686 -0.1546
24118W        W37532   4.800  12.232   2.521  0.2114 -0.0902  0.3347
24119W        W37533  10.485   4.244  16.753 -0.2158 -0.0351 -0.1373
24120W        W37534   5.090  11.341  14.184 -0.1548 -0.2956 -0.0617
24121W        W37535   9.799   2.308  11.157  0.0027 -0.1547  0.0553
24122W        W37536  17.018  15.945   1.704 -0.0131 -0.0645 -0.0692
24123W        W37537  14.353   6.829  13.283  0.3277 -0.1484  0.2051
24124W        W37538  15.192   0.269  10.643 -0.2382 -0.0863  0.0492
24125W        W37539   7.257  12.592   4.069 -0.0126  0.0278  0.0995
24126W        W37540   1.012   7.295  15.417  0.2540 -0.1339 -0.0954
24127W        W37541   7.238  16.263   6.826  0.1267 -0.2620 -0.1844
24128W        W37542  12.683   1.496   0.110  0.0507  0.0218  0.0622
24129W        W37543   7.032  10.018  11.997  0.0494  0.0721  0.0017
24130W        W37544   6.884   1.660   1.581 -0.0707 -0.2771 -0.0946
24131W        W37545   3.865   4.615  10.347  0.1841 -0.0635  0.1559
24132W        W37546  11.173  12.627   0.756 -0.0010 -0.1612  0.1328
24133W        W37547  12.342   3.037  10.896 -0.0502 -0.0357 -0.1975
24134W        W37548  10.655  16.182  14.693 -0.0106 -0.1959  0.2603
24135W        W37549  13.115   7.996  15.264  0.0133 -0.2708  0.1063
24136W        W37550   9.103   8.138  15.414 -0.0399  0.1087 -0.2978
24137W        W37551   8.871   9.669   0.718 -0.1095 -0.2476  0.2307
24138W        W37552  14.615   7.183   5.053  0.1638  0.0659  0.0505
24139W        W37553   7.913  15.092  14.699 -0.0787 -0.2363  0.1392
24140W        W37554   0.474   4.343   3.488  0.0786  0.1017 -0.1466
24141W        W37555   4.831   4.426   0.889  0.0080  0.1433  0.1499
24142W        W37556   3.199   9.318   2.158 -0.1311 -0.2591 -0.0282
24143W        W37557   4.923   8.057  13.388 -0.3082 -0.0592 -0.3779
24144W        W37558  14.601   4.159  15.639  0.0014  0.0605  0.1265
24145W        W37559   4.694   2.476   0.311  0.3693  0.2651  0.0415
24146W        W37560   8.990  10.734   3.950 -0.2783  0.1887 -0.3254
24147W        W37561  12.869   2.468   3.756 -0.0227  0.0357 -0.4094
24148W        W37562  11.865  14.272  14.204 -0.0785 -0.0496  0.1326
24149W        W37563   9.604  12.407   3.939 -0.0569 -0.1593 -0.2286
24150W        W37564  11.056   1.089  12.482 -0.0038 -0.1180 -0.4920
24151W        W37565   4.194   1.750   1.447 -0.2931 -0.1733 -0.0337
24152W        W37566   0.166  10.922  14.708  0.1237 -0.2579 -0.1684
24153W        W37567   3.303  17.699  15.579 -0.0387 -0.0094 -0.3586
24154W        W37568  12.086  12.214  14.143 -0.1246 -0.3150 -0.3643
24155W        W37569   6.647   6.964   1.505  0.4912  0.1441  0.1800
24156W        W37570   4.116   4.725   3.439  0.2016  0.2349  0.0978
24157W        W37571  12.069   3.352   6.308  0.0397  0.1613  0.0214
24158W        W37572  12.592  11.544   4.619 -0.0011 -0.0653 -0.1297
24159W        W37573  12.480  12.788   0.934 -0.0237  0.1435 -0.1092
24160W        W37574  13.201   8.737  14.495 -0.1673  0.2273 -0.3534
24161W        W37575   3.601   5.167   4.841  0.0126  0.1840 -0.2416
24162W        W37576   8.662  15.642   3.399  0.0203  0.3390 -0.0105
24163W        W37577  10.056   9.792  15.543 -0.1494  0.3028 -0.0825
24164W        W37578   1.639   4.644  11.280 -0.1884  0.2127 -0.0650
24165W        W37579   0.204  15.549  12.706 -0.4989  0.1335 -0.2478
24166W        W37580   3.340  11.785  12.071 -0.0841  0.0640 -0.2008
24167W        W37581  12.927   0.298   3.757  0.0090 -0.0064 -0.0441
24168W        W37582   0.880  10.333   1.329  0.0500  0.1257  0.0356
24169W        W37583   3.440   3.795  10.672  0.3275  0.0252  0.0420
24170W        W37584   9.543   9.753  13.053 -0.0580  0.1476  0.2835
24171W        W37585  15.836   5.589  12.280 -0.0842  0.0061  0.0755
24172W        W37586   6.174   9.977  14.146 -0.0153  0.0057 -0.1638
24173W        W37587  14.869  10.996  11.571  0.0382  0.0011 -0.1697
24174W        W37588   8.489   6.336   1.954  0.0616  0.1797 -0.0068
24175W        W37589   6.483   1.512   1.316  0.1043  0.0771  0.1121
24176W        W37590   9.595  13.079  14.757 -0.3357 -0.2047  0.0993
24177W        W37591  13.282   5.707  15.816 -0.0225 -0.2841 -0.1104
24178W        W37592  17.197  17.786  13.981 -0.1163 -0.2789 -0.2718
24179W        W37593   7.179   9.090   2.067  0.1565  0.0960 -0.1638
24180W        W37594  12.984  17.430   0.755 -0.1241 -0.4140  0.0990
24181W        W37595   0.403  12.283   3.326 -0.1371  0.2263 -0.1159
24182W        W37596  11.593   2.518   4.351  0.1771 -0.2741 -0.0459
24183W        W37597   2.391   5.031   3.446  0.2039  0.1968 -0.1079
24184W        W37598  13.577   0.171   2.225 -0.1516 -0.0727 -0.1175
24185W        W37599   1.463   1.984  12.791 -0.1159  0.0122  0.1046
24186W        W37600  15.851  17.485  11.876  0.1347 -0.0044 -0.1992
24187W        W37601  13.714   5.532  16.099  0.0705 -0.0545  0.0936
24188W        W37602  13.864  12.365  14.193 -0.2121 -0.2935  0.0900
24189W        W37603   2.426   6.656  11.199 -0.2717 -0.2931  0.2089
24190W        W37604   6.268   3.575  14.736 -0.1905  0.2583 -0.2957
24191W        W37605   1.467   4.889   3.525 -0.0709 -0.1838 -0.3805
24192W        W37606   3.900  11.078  15.305 -0.0411  0.1741  0.0526
24193W        W37607  14.307  16.687  16.001 -0.1571  0.2890  0.1016
24194W        W37608   7.600   3.729  12.108  0.2772  0.1126 -0.1370
24195W        W37609  16.386  14.158  12.751 -0.1873 -0.0525 -0.0339
24196W        W37610   1.676   8.758  14.715  0.2600 -0.1448 -0.1135
24197W        W37611   6.515   4.580  10.502  0.1653  0.3249  0.2064
24198W        W37612   9.283   5.022  13.519  0.2214  0.1604  0.2792
24199W        W37613  10.646   6.123   1.105  0.0548  0.1727 -0.0870
24200W        W37614   6.087   8.418  14.463  0.1321 -0.0995 -0.1061
24201W        W37615  17.945   4.322  15.236 -0.0523 -0.2362 -0.0650
24202W        W37616  16.414   1.083   1.308 -0.4047  0.2239 -0.3056
24203W        W37617  16.729   7.438   4.640 -0.0349  0.1766 -0.0642
24204W        W37618   0.687   2.636  15.665 -0.0624  0.1034  0.2625
24205W        W37619   1.043   0.024   4.613  0.0763  0.0583 -0.0308
24206W        W37620   8.482   6.793   3.251  0.0320  0.1812 -0.1608
24207W        W37621   4.166  12.424  14.273  0.0138 -0.0367  0.2350
24208W        W37622  11.123  10.606  15.789 -0.3585 -0.0652  0.0027
24209W        W37623   7.339   7.688   1.204  0.1914  0.0314  0.2887
24210W        W37624   7.064   8.191  16.099  0.1146  0.2135 -0.0717
24211W        W37625   7.924  10.964  14.642  0.2192 -0.1445  0.1761
24212W        W37626   4.578   9.560   5.550 -0.1113 -0.0478 -0.0502
24213W        W37627   8.985   1.738   3.345  0.1460 -0.2431 -0.4345
24214W        W37628   2.982   9.429   0.745 -0.2847  0.1017  0.0473
24215W        W37629   1.099   9.476   4.952 -0.1083  0.0506  0.3836
24216W        W37630   3.092   2.090  11.877 -0.0233 -0.2905 -0.0136
24217W        W37631   3.515   8.336  15.657 -0.1376  0.1307  0.0085
24218W        W37632   1.451   8.201  10.819 -0.1144  0.1344 -0.2503
24219W        W37633   9.221  12.555  12.105  0.0506  0.2542  0.1315
24220W        W37634  13.426  17.136  11.427 -0.1039 -0.2542 -0.2955
24221W        W37635   9.551   8.667  14.204 -0.0941  0.1313  0.0692
24222W        W37636   8.351   3.303  11.537 -0.0271 -0.2596  0.1544
24223W        W37637   9.453  17.533   5.746 -0.1432 -0.1524 -0.1039
24224W        W37638   3.296   3.184  14.349 -0.3563  0.1348  0.2133
24225W        W37639  11.953  10.474  13.658  0.2352 -0.0165  0.0387
24226W        W37640  12.557   0.939  14.485  0.1245 -0.0311  0.1599
24227W        W37641  12.063   2.640   4.458 -0.1101 -0.2648  0.0041
24228W        W37642  13.762  17.308  13.291  0.1345 -0.0959  0.0046
24229W        W37643   5.299  14.253  14.631  0.2820  0.0875  0.1185
24230W        W37644  13.980  17.318  12.438  0.0667 -0.0384 -0.0248
24231W        W37645   5.093  14.414   4.520  0.4412 -0.0118 -0.2876
24232W        W37646   9.050  13.922  12.753  0.2736  0.3285 -0.0534
24233W        W37647   4.296   8.623   4.707 -0.2091  0.4062 -0.0428
24234W        W37648  16.150   0.752  14.241  0.0189 -0.5173 -0.1329
24235W        W37649   5.944   3.863   3.867  0.1300 -0.1118  0.1217
24236W        W37650   0.414  12.359  11.014 -0.0766  0.3909  0.0376
24237W        W37651  11.588  10.782  16.289 -0.0134  0.0247  0.2191
24238W        W37652   0.387  10.930  13.301  0.1353 -0.0601  0.0277
24239W        W37653  13.855  16.001  16.033  0.0875  0.0947  0.0911
24240W        W37654   9.756   6.890   3.311 -0.2783  0.1033  0.1123
24241W        W37655  10.571   3.848  10.051  0.0031  0.0482  0.1251
24242W        W37656  10.314   4.938  14.405 -0.2083 -0.0513 -0.3830
24243W        W37657  13.938   9.804   4.407 -0.2474 -0.0807 -0.2200
24244W        W37658   0.365  10.507   5.305  0.2575  0.2124  0.1855
24245W        W37659   1.598   0.891  15.463 -0.3608 -0.0614 -0.0232
24246W        W37660   4.659   9.176   2.702 -0.1977  0.0053  0.1715
24247W        W37661  16.523   7.844  16.217  0.0088  0.1712 -0.1232
24248W        W37662   5.405   3.820   1.124  0.2272 -0.0026 -0.0472
24249W        W37663  16.530   7.799  14.165  0.1407 -0.4062  0.1423
24250W        W37664  11.490   7.007   3.722  0.0206  0.1323 -0.0782
24251W        W37665   8.011   7.108   4.787  0.5582  0.0447  0.1230
24252W        W37666   5.378   7.426   4.545  0.0111  0.1686 -0.0371
24253W        W37667  15.655   6.177   4.557 -0.0851  0.0975  0.1016
24254W        W37668   9.339  16.753   6.901  0.0523  0.0435 -0.0743
24255W        W37669   4.066  14.611  11.129  0.1535 -0.0591  0.2920
24256W        W37670  11.954   1.826  15.302 -0.2464 -0.3555  0.0217
24257W        W37671   7.947   1.377   3.496  0.0920 -0.0335  0.1407
24258W        W37672   3.273   8.431   5.957 -0.1506 -0.0678 -0.0665
24259W        W37673   0.017   9.823   3.591  0.1031 -0.1638 -0.1201
24260W        W37674  17.417  17.158  14.540  0.3336 -0.1684 -0.1340
24261W        W37675   4.768   0.245   2.452 -0.0377 -0.0552 -0.0119
24262W        W37676   0.892  15.008   4.930 -0.0316  0.1730 -0.0558
24263W        W37677  16.225   8.249   5.636  0.0375 -0.0293  0.3244
24264W        W37678   7.252   3.153   0.058  0.1196  0.0106  0.0512
24265W        W37679   9.454   8.794  16.587 -0.0484  0.1213  0.1042
24266W        W37680   1.683   8.455  13.056 -0.1619  0.2198  0.0540
24267W        W37681  11.138   4.799   4.944  0.1564 -0.0857 -0.0506
24268W        W37682   6.378   0.488   3.205 -0.1410  0.3133  0.1152
24269W        W37683   6.522  17.208   3.864  0.1584 -0.2911 -0.1090
24270W        W37684   5.219  15.827   2.827  0.1417  0.0949 -0.0792
24271W        W37685   4.074  12.104   3.821 -0.0835 -0.0669  0.0918
24272W        W37686   3.217  11.657  14.930 -0.2548  0.0496  0.3075
24273W        W37687  14.764  13.112   1.113 -0.0847 -0.0083  0.1232
24274W        W37688  11.702   7.303   5.280 -0.0629 -0.3610 -0.1692
24275W        W37689   7.785   9.896  14.224 -0.0658  0.3252  0.1486
24276W        W37690   8.864   4.216  14.788  0.3775 -0.1366  0.0541
24277W        W37691  15.671  15.345   1.571  0.4065  0.2599 -0.0882
24278W        W37692   7.348  17.563  15.202 -0.2690 -0.0185  0.0238
24279W        W37693  10.561   6.290  15.713 -0.0418  0.0896 -0.1936
24280W        W37694   1.900   0.669  16.281 -0.0053 -0.4461 -0.1059
24281W        W37695   7.410   4.395  13.065 -0.0166 -0.1991 -0.4450
24282W        W37696  17.603   9.988  14.581 -0.0790 -0.3160  0.0772
24283W        W37697   9.966  17.888  14.456 -0.3131  0.1287  0.2337
24284W        W37698   9.050   9.565  13.233  0.1149  0.2575  0.0743
24285W        W37699   3.194   1.378  12.945 -0.3086 -0.0773  0.2476
24286W        W37700   3.166  14.845  13.406  0.1288  0.1299 -0.2742
24287W        W37701   7.261   4.971   1.439  0.1205  0.1561  0.2199
24288W        W37702  12.966  10.967  16.687  0.3049 -0.0332 -0.1524
24289W        W37703   2.403   5.689   5.235  0.2380  0.0005  0.0603
24290W        W37704  13.311  15.395   3.101  0.0577 -0.0339  0.2355
24291W        W37705   6.556   8.022  12.320  0.1573  0.1117 -0.1532
24292W        W37706  17.907   4.418  14.236  0.2604 -0.2199  0.0070
24293W        W37707   1.334  10.320  14.540  0.0846 -0.1609 -0.2318
24294W        W37708   0.204  17.572   2.601  0.1525  0.0450  0.2886
24295W        W37709  13.804   4.964   1.386  0.1117 -0.0024  0.0460
24296W        W37710   1.078   8.987  12.353  0.2069  0.2709  0.0680
24297W        W37711  16.770  16.929  15.389  0.1967 -0.0077 -0.3207
24298W        W37712   2.368   1.347   2.402  0.1283 -0.1316  0.2599
24299W        W37713  10.812   5.893   0.625 -0.2429 -0.1327  0.0274
24300W        W37714   6.760   2.629  14.171  0.0899  0.5320 -0.0728
24301W        W37715  10.220   6.091   5.052  0.3143  0.0547  0.1151
24302W        W37716   6.712   0.499   3.640 -0.0822 -0.1232  0.0410
24303W        W37717   2.119   4.747  14.608  0.0700 -0.0139 -0.1215
24304W        W37718   2.440   0.484  10.793  0.3297 -0.0024  0.1181
24305W        W37719  10.778  16.557  13.794 -0.1960  0.1209  0.0689
24306W        W37720   8.537  14.354  11.898  0.0325 -0.0889 -0.0392
24307W        W37721   3.591   4.421  12.777 -0.3170 -0.1268  0.1708
24308W        W37722   5.631   0.848   0.960  0.1418  0.1050  0.2814
24309W        W37723   4.833  15.653  11.640  0.2122 -0.0943 -0.1130
24310W        W37724  15.487   8.527   5.172  0.1825 -0.2121  0.0084
24311W        W37725   1.724   9.963  13.410  0.0632  0.1958  0.0002
24312W        W37726   1.894   7.008   2.123 -0.0880  0.0105  0.1731
24313W        W37727   7.241   5.365  16.644 -0.2895  0.0535  0.2102
24314W        W37728  16.543   9.118  13.907  0.1655  0.0669 -0.1912
24315W        W37729  12.947   6.935  12.304  0.0652 -0.1011  0.3293
24316W        W37730  12.523   5.196   0.637  0.0876  0.0314 -0.1165
24317W        W37731  11.290  15.193   0.130 -0.0484  0.2172 -0.0600
24318W        W37732   3.485  15.925  15.691 -0.1234  0.1186  0.0534
24319W        W37733   3.832   5.311  13.735 -0.0248 -0.1545  0.0026
24320W        W37734   2.164   0.051   2.844  0.1536  0.1276  0.0167
24321W        W37735   0.970  17.164   3.598  0.4541 -0.0788  0.0411
24322W        W37736  10.386  11.882  13.991  0.4086  0.0455  0.3325
24323W        W37737  17.411   6.954  12.805  0.1016 -0.0800 -0.1803
24324W        W37738  13.774  11.191  16.755  0.1334 -0.3848  0.0584
24325W        W37739   3.534  16.653  16.268  0.0402 -0.1789  0.0757
24326W        W37740   6.388  10.404   0.852 -0.2112 -0.1664  0.0383
24327W        W37741   5.552  15.396  10.739  0.3566  0.0063 -0.3085
24328W        W37742  10.251   5.426  14.299 -0.1214 -0.1144  0.4661
24329W        W37743   2.736   4.935  10.171 -0.4574  0.0684  0.2168
24330W        W37744  12.805  14.121  15.427  0.1808 -0.3240  0.0392
24331W        W37745   1.826   7.914  13.334  0.1460  0.2065 -0.1402
24332W        W37746   3.080   9.239   0.339  0.3096 -0.0894 -0.0816
24333W        W37747   7.189  14.098  14.570  0.0426  0.3059 -0.2139
24334W        W37748  13.765   3.746  16.661 -0.2241 -0.0879 -0.0989
24335W        W37749   0.417   4.069   1.402 -0.1488  0.4099  0.0900
24336W        W37750  15.329  10.249  12.982  0.0570  0.0831  0.1820
24337W        W37751   1.251   3.245   5.608 -0.2420  0.2594 -0.0664
24338W        W37752   7.434   6.898  10.665  0.0416 -0.0390 -0.1950
24339W        W37753  13.308  16.682  15.308  0.1877 -0.0534 -0.1796
24340W        W37754   1.902   6.742   5.217  0.0093 -0.2636 -0.0104
24341W        W37755   9.332   0.916  12.501  0.0353 -0.1826 -0.1478
24342W        W37756   8.145   4.535   2.236  0.0804  0.0445  0.0056
24343W        W37757   5.455   8.370  12.073  0.1836 -0.0430 -0.1828
24344W        W37758   7.570   0.507  12.114 -0.0118  0.2057  0.1169
24345W        W37759   5.410  11.082  11.074  0.1387  0.1044 -0.1179
24346W        W37760  10.888  15.374   2.573 -0.0604  0.4798  0.0931
24347W        W37761   3.251  10.908  15.735 -0.1691 -0.1317  0.0771
24348W        W37762  15.022   5.675   3.553  0.1008 -0.3248  0.0470
24349W        W37763  12.202  12.159  13.252 -0.3006 -0.0904  0.2723
24350W        W37764   6.761  15.565   5.766 -0.0232 -0.2468 -0.1054
24351W        W37765   3.948  16.576  15.482 -0.1682  0.3949 -0.0577
24352W        W37766   4.425   3.957  11.709 -0.2802 -0.1365 -0.0525
24353W        W37767  13.114   6.154   3.580  0.1219 -0.3101  0.0263
24354W        W37768  12.840   1.299   1.827  0.3463  0.1460  0.1919
24355W        W37769   7.312   4.632   4.832  0.1706 -0.1606 -0.4327
24356W        W37770  16.780   6.625   3.434  0.1006 -0.1168 -0.1035
24357W        W37771  12.277   5.272  11.852  0.4765  0.1261 -0.0709
24358W        W37772  12.193   8.832   4.011  0.1167 -0.0345 -0.0534
24359W        W37773  14.706  10.328  11.275 -0.1628  0.2993  0.0404
24360W        W37774  15.487   0.383   1.802  0.0939 -0.0007  0.0888
24361W        W37775  11.322   7.916  16.015 -0.3547 -0.0240  0.1436
24362W        W37776  17.001   9.157  11.516 -0.0304  0.2373 -0.0280
24363W        W37777  16.206   5.615  10.526 -0.2760 -0.0192 -0.2984
24364W        W37778  13.233   7.712   3.197  0.0448 -0.2437 -0.0992
24365W        W37779   9.283  14.521   3.238 -0.0764 -0.1313 -0.0752
24366W        W37780  12.319  15.389  16.540  0.0715  0.2013  0.0302
24367W        W37781   2.532   2.849  15.716  0.0929  0.0314 -0.2025
24368W        W37782   2.885   6.140  12.441 -0.0099 -0.0201  0.0285
24369W        W37783  11.448   9.277  14.680 -0.0213  0.2108 -0.0129
24370W        W37784   0.177  11.190  15.925 -0.0733  0.0481  0.1782
24371W        W37785   9.825   6.551  12.715  0.0698 -0.2762 -0.1667
24372W        W37786   8.535   4.851   5.407  0.2316 -0.1552  0.1379
24373W        W37787  17.068  11.470  12.148  0.1944 -0.0679 -0.3448
24374W        W37788  14.564  16.988   3.537 -0.2030 -0.2270 -0.1802
24375W        W37789  14.814   9.494   5.599  0.0834  0.2532 -0.1946
24376W        W37790   0.562  15.882  15.626  0.0104  0.0744 -0.1171
24377W        W37791   7.682   3.923  15.709  0.2420  0.0430 -0.1618
24378W        W37792  10.234  12.094   5.119  0.0535 -0.1576  0.3463
24379W        W37793  12.049   8.811   0.004 -0.3771  0.0253 -0.2196
24380W        W37794  10.320   4.314   3.233  0.2004  0.0408  0.0377
24381W        W37795   2.482  14.174  13.403  0.0223 -0.1234 -0.0950
24382W        W37796  11.822  12.504   3.496  0.0353  0.3109 -0.2010
24383W        W37797   6.014   4.446  14.555  0.0408 -0.0995  0.1229
24384W        W37798  10.188   1.325   2.401 -0.0877 -0.4172  0.1130
24385W        W37799   2.447  12.003  11.642  0.3264  0.1037  0.1214
24386W        W37800   3.462   4.590  12.343 -0.0173 -0.2453  0.1516
24387W        W37801  15.627   0.856  14.073 -0.3827 -0.0982  0.1002
24388W        W37802   5.272   7.648  16.751  0.3841 -0.1336  0.2562
24389W        W37803  10.063   1.751   4.896  0.2268 -0.2098  0.2601
24390W        W37804   8.544   4.753  11.761 -0.2561 -0.1851 -0.0168
24391W        W37805   3.653  15.139   5.200 -0.1225  0.2595  0.1556
24392W        W37806   7.770   7.014  11.733 -0.2109 -0.0145  0.3415
24393W        W37807  15.570   8.977   1.814  0.0693 -0.1175 -0.0181
24394W        W37808  11.021  15.642  11.436 -0.0602 -0.3116  0.2077
24395W        W37809  17.917  16.194  11.050  0.2981  0.0607  0.0504
24396W        W37810  15.017   5.945  14.903  0.0314 -0.0210 -0.1058
24397W        W37811   5.304   2.704  13.098  0.1114  0.1168 -0.2312
24398W        W37812  15.784  11.832   4.248 -0.0520  0.4484 -0.1568
24399W        W37813   5.082   8.264   4.609 -0.2914  0.3324 -0.2818
24400W        W37814  15.982   0.494   5.297  0.1059 -0.1710 -0.0468
24401W        W37815  11.656   0.093  15.571 -0.1799 -0.0502  0.1751
24402W        W37816   7.376  13.451  14.017 -0.3178  0.3445  0.0074
24403W        W37817   2.491  15.033  10.317 -0.3556 -0.0647 -0.1165
24404W        W37818   2.917   7.089   4.109  0.1076  0.1264  0.0636
24405W        W37819  14.906  17.111   6.094 -0.5500 -0.2006 -0.1645
24406W        W37820   1.395  10.487  10.682  0.0838 -0.0030  0.0887
24407W        W37821  17.354  13.652  10.708 -0.3042  0.1513 -0.0816
24408W        W37822   4.442  13.052   4.573 -0.1635 -0.0193  0.0942
24409W        W37823   0.407  16.804   3.848  0.0582  0.1806 -0.1540
24410W        W37824  15.563  13.968  16.322 -0.0857  0.0489 -0.3658
24411W        W37825   0.265  12.086  16.544 -0.0204 -0.0817  0.4387
24412W        W37826   3.299   0.668  11.465 -0.2074 -0.1090  0.0534
24413W        W37827   3.442   7.955   2.595  0.1582 -0.0098  0.1189
24414W        W37828   6.384  15.726   0.357  0.2649 -0.1410  0.2199
24415W        W37829  14.869  14.731  12.584  0.0888  0.3033 -0.1363
24416W        W37830   8.618   3.796  11.229 -0.0297 -0.0151  0.0445
24417W        W37831   7.265   5.522  14.548 -0.0766  0.0081  0.1699
24418W        W37832   7.780  14.292   0.550  0.0067  0.0474 -0.0601
24419W        W37833   6.196   1.191  12.165 -0.2686 -0.2668 -0.4314
24420W        W37834   8.153  12.099   1.553 -0.0762 -0.2457  0.2023
24421W        W37835   8.221  10.024  13.927 -0.1053 -0.1323 -0.0126
24422W        W37836  15.299   6.589   0.177  0.1127  0.1124 -0.1217
24423W        W37837  10.290   0.228   3.149  0.2018 -0.0497  0.0998
24424W        W37838  12.187  15.075   0.138  0.0985 -0.2049  0.0381
24425W        W37839  11.976  16.307  15.670 -0.0084 -0.1748  0.0051
24426W        W37840  14.719   3.209   5.808  0.2010  0.1318 -0.0855
24427W        W37841  13.289   0.485  11.095  0.0126  0.0910  0.1725
24428W        W37842   5.724  10.572   4.543 -0.1167  0.3502 -0.0807
24429W        W37843   4.588  12.175   0.858  0.2468 -0.1280 -0.2419
24430W        W37844   6.190  14.806  15.651 -0.1042  0.1067 -0.1268
24431W        W37845   7.456  13.532   5.222 -0.0510  0.0779 -0.1117
24432W        W37846  14.841   0.108   6.069 -0.0265  0.1280  0.0907
24433W        W37847   0.098  10.678   4.002  0.0445 -0.4371  0.1336
24434W        W37848   8.937   5.921  13.654  0.0793 -0.2398 -0.0698
24435W        W37849   1.335  15.787  14.136 -0.0848  0.5258 -0.0413
24436W        W37850  15.464  15.795   2.927 -0.4209 -0.1429  0.0734
24437W        W37851   7.589  17.203   3.789  0.2603  0.3665 -0.1260
24438W        W37852  10.849   2.164  12.670 -0.4119  0.3924  0.0375
24439W        W37853   7.395   5.461  15.874 -0.0081 -0.0450  0.2580
24440W        W37854  14.089  10.852   3.405  0.1599 -0.1171  0.2692
24441W        W37855   5.866  16.042  16.084  0.0397 -0.0643  0.0914
24442W        W37856  16.797  15.922  16.318 -0.0156 -0.3966  0.0430
24443W        W37857  11.434  17.512  14.944  0.0953 -0.1414 -0.2142
24444W        W37858  17.306   8.512  12.308 -0.0988  0.0594 -0.1470
24445W        W37859   3.184   7.704   1.057 -0.0623  0.0487 -0.1703
24446W        W37860  11.706   6.125   0.241 -0.0182  0.1627  0.0270
24447W        W37861  15.312   9.097   1.024  0.0735 -0.0768  0.1984
24448W        W37862   3.826   9.106  16.693  0.3957  0.1608 -0.2341
24449W        W37863  16.535  15.303  16.765 -0.3604 -0.0569 -0.1626
24450W        W37864   1.491  13.457   2.730  0.1261 -0.1457 -0.1153
24451W        W37865  10.345  17.160   1.916 -0.0771 -0.2445 -0.2711
24452W        W37866   9.407   2.061   3.568  0.1150  0.0610 -0.1847
24453W        W37867   7.374  17.919   0.181 -0.0683 -0.0209  0.1863
24454W        W37868  13.634   3.039  11.906  0.3539 -0.1282 -0.0101
24455W        W37869   3.293   4.962   2.870  0.3746 -0.0028 -0.4618
24456W        W37870  16.960   7.593   1.042  0.3649  0.4970 -0.0337
24457W        W37871   6.166  15.095  14.153  0.0432 -0.1136 -0.0717
24458W        W37872   5.112  10.088   2.552 -0.0693 -0.0709  0.1030
24459W        W37873   9.000   6.564   4.672 -0.1916  0.0233 -0.0458
24460W        W37874  11.011   7.545  12.694  0.1389 -0.1394 -0.0783
24461W        W37875  16.620  17.093  14.029  0.2827 -0.1375 -0.2747
24462W        W37876  16.405   0.510  15.499 -0.2638  0.2629 -0.0500
24463W        W37877   0.835   6.930   2.633 -0.1250 -0.1188 -0.1326
24464W        W37878   5.184  12.177   6.359  0.0390 -0.0560  0.0562
24465W        W37879  10.034  11.374  15.426  0.0199 -0.3049  0.3236
24466W        W37880  10.868   6.112  11.057  0.3047 -0.1741  0.1392
24467W        W37881   8.348  15.736   3.003 -0.0128 -0.0624 -0.0095
24468W        W37882   3.194  12.992   3.456 -0.0699  0.3859 -0.0794
24469W        W37883  13.921   2.451   0.817  0.1842  0.0620  0.3880
24470W        W37884   5.126  10.960   0.172  0.3224 -0.0186  0.0174
24471W        W37885   5.295   1.826  14.602 -0.0532 -0.0366 -0.3478
24472W        W37886  13.740   1.250   2.994  0.0130  0.1157 -0.0772
24473W        W37887  14.952   5.518   1.037 -0.0998 -0.0888 -0.0929
24474W        W37888   3.791  10.639   4.215 -0.2752  0.0024 -0.0829
24475W        W37889   4.704   4.690  10.788  0.0142 -0.1561 -0.1329
24476W        W37890  17.817  13.314  14.193  0.2247 -0.0222  0.0251
24477W        W37891   7.861   9.278   3.539 -0.2212  0.1440  0.2358
24478W        W37892   5.581   6.329   3.176 -0.2767  0.0203 -0.1150
24479W        W37893  14.748  15.136   1.788 -0.0780 -0.1073 -0.1690
24480W        W37894  12.782  15.399   0.520  0.2021  0.0195 -0.0954
24481W        W37895  15.476  10.335   3.819 -0.0290 -0.0044 -0.3595
24482W        W37896   2.757   0.528   4.323 -0.0468 -0.4104 -0.0100
24483W        W37897   5.143   9.887   3.619  0.0680 -0.3291  0.2194
24484W        W37898   8.122   7.040   3.528 -0.2846 -0.3420  0.2604
24485W        W37899   8.556   5.654  16.507  0.0530  0.1810 -0.1614
24486W        W37900   0.805   8.439   2.433  0.0091  0.1356 -0.1257
24487W        W37901  12.106   4.220  16.056 -0.1976 -0.1346 -0.0545
24488W        W37902  17.599  16.645  12.492  0.0589  0.3422 -0.0861
24489W        W37903  13.474   2.781  14.044 -0.0053  0.1523  0.2971
24490W        W37904   7.854  15.302   1.568 -0.0900  0.3340  0.0211
24491W        W37905   8.045  10.291   2.053 -0.1644 -0.4686  0.1760
24492W        W37906  13.355   6.169  12.004  0.0094  0.1396 -0.1401
24493W        W37907   4.903  11.428   1.310  0.0782 -0.2101 -0.2783
24494W        W37908  14.296  12.894   6.307  0.1869  0.0548 -0.1192
24495W        W37909   6.962   1.748   5.246  0.3965  0.1492 -0.2285
24496W        W37910   4.227   4.029   5.150 -0.3924 -0.0275 -0.0412
24497W        W37911  14.663   0.957  12.052  0.1351  0.1333  0.2904
24498W        W37912   1.011   5.758  12.178 -0.0908 -0.0155  0.0197
24499W        W37913   3.302  16.320   5.471  0.0644  0.2452  0.1231
24500W        W37914  10.882   1.787  14.263 -0.2095 -0.1248 -0.3569
24501W        W37915  14.205   3.306   0.559 -0.2006 -0.2058  0.0712
24502W        W37916  14.273  15.769  14.204 -0.1397 -0.1680 -0.0841
24503W        W37917   7.768   9.775   1.606 -0.0676 -0.5972 -0.0147
24504W        W37918  17.447  15.274  15.832  0.0109 -0.2301 -0.3537
24505W        W37919   3.812  12.804  13.836 -0.1803 -0.2827  0.0510
24506W        W37920   6.803  11.311  16.736 -0.0506  0.2133 -0.0371
24507W        W37921   4.698  16.296   1.453  0.1275  0.0876 -0.2542
24508W        W37922   0.777  15.887   0.215 -0.2170 -0.0067 -0.2193
24509W        W37923   8.047  15.700   1.247 -0.0295  0.0153 -0.0702
24510W        W37924   6.353  14.746   1.272 -0.0361  0.1258  0.0345
24511W        W37925  15.207  13.154   0.667 -0.0498 -0.3128  0.0435
24512W        W37926   4.734  13.718  13.535 -0.0706 -0.3409 -0.0470
24513W        W37927  16.622   2.615  15.134  0.3550  0.1286 -0.2309
24514W        W37928   7.789  10.795   0.580  0.1183 -0.4749 -0.1935
24515W        W37929   3.209   1.632   1.808  0.0846  0.0302 -0.1043
24516W        W37930   3.708   9.004   5.671 -0.0747  0.1551  0.0266
24517W        W37931  16.773   2.137  16.411 -0.1293  0.3106 -0.0140
24518W        W37932   1.700  16.619   9.898 -0.2183 -0.1459  0.1646
24519W        W37933  14.081   5.976   1.541  0.1955 -0.2733 -0.1362
24520W        W37934   0.194  12.660   0.577  0.2518 -0.2327 -0.1059
24521W        W37935  13.182  11.913  10.902 -0.0528 -0.0185 -0.0499
24522W        W37936   1.132  17.973  14.228 -0.0013  0.2384  0.1358
24523W        W37937  13.977   4.753  15.150 -0.2514  0.1560 -0.0833
24524W        W37938   4.007  14.302   5.461  0.1011  0.2046 -0.0367
24525W        W37939   8.338  11.901   3.803  0.1288  0.0526 -0.0494
24526W        W37940  15.239   7.258  15.128  0.0086  0.0219 -0.1569
24527W        W37941  12.183   7.645  12.237  0.1050  0.1537 -0.0790
24528W        W37942  13.081  12.538   3.317 -0.1755 -0.1722 -0.2408
24529W        W37943  11.850   3.199   2.788 -0.0720  0.0686 -0.0317
24530W        W37944   3.345  15.170  12.015 -0.1432 -0.0161 -0.1107
24531W        W37945   8.357   2.373  10.038 -0.1100  0.2964  0.1146
24532W        W37946  15.987   5.984  10.192  0.0325 -0.3259  0.2372
24533W        W37947   2.025   1.427   0.864 -0.2180 -0.0975 -0.0015
24534W        W37948  13.200  11.829   2.570 -0.0139  0.2638  0.1312
24535W        W37949   0.070   1.196   1.676 -0.2551  0.0677 -0.1121
24536W        W37950  11.814   4.547  14.967 -0.1611 -0.2629  0.2429
24537W        W37951  12.860   1.117  14.787 -0.2440  0.1597 -0.1716
24538W        W37952  10.044   4.820   4.395  0.1148  0.1154  0.2854
24539W        W37953  17.510   2.043   4.483  0.2689  0.1062  0.1592
24540W        W37954   3.080   6.844  10.534 -0.1993 -0.0637  0.0596
24541W        W37955   5.500  12.097  16.095 -0.1660 -0.0872  0.3060
24542W        W37956   8.220   9.034  13.077  0.0834  0.2191 -0.0608
24543W        W37957  12.085  14.191  16.479  0.0757  0.2697 -0.2071
24544W        W37958   3.779   7.666   3.872  0.1345  0.1259 -0.2513
24545W        W37959   4.452   1.707   0.428 -0.3348 -0.1285  0.1871
24546W        W37960   7.673  10.704  15.503 -0.0890 -0.1352  0.0040
24547W        W37961   2.106   2.395  15.865 -0.0079  0.1220  0.0813
24548W        W37962  15.039  11.249  14.552 -0.1409 -0.3344 -0.0304
24549W        W37963  17.867   5.522   1.180 -0.4321 -0.0037  0.3508
24550W        W37964  11.583  12.555   4.642  0.1652 -0.1579  0.1852
24551W        W37965   0.568   5.478   3.593  0.1991  0.2190 -0.0496
24552W        W37966  15.052  13.518   1.022  0.0380  0.0368 -0.1856
24553W        W37967  16.501   8.221  16.554 -0.0869 -0.0517  0.2475
24554W        W37968   5.163   7.907   5.829 -0.1837  0.0514  0.0744
24555W        W37969   3.814   2.542   0.413  0.2669  0.0935  0.2369
24556W        W37970  17.398  14.477   1.848 -0.0555 -0.3969  0.2417
24557W        W37971  16.576  10.266  16.647  0.2932  0.2313  0.2238
24558W        W37972   2.560  12.338   2.736  0.0750  0.2236  0.5612
24559W        W37973  14.689   1.951   3.369 -0.2425 -0.1125  0.0242
24560W        W37974  17.163  14.629   4.451 -0.1058  0.0326 -0.0644
24561W        W37975  12.391  10.714  14.614 -0.1324  0.3470 -0.0738
24562W        W37976  11.472   7.355  11.821 -0.0806 -0.0343  0.3012
24563W        W37977  14.565  11.394  15.102 -0.2017  0.2679  0.1796
24564W        W37978   1.733   1.816  14.367  0.0964 -0.2530  0.0465
24565W        W37979   8.568   4.326  16.308 -0.1200  0.0858  0.1293
24566W        W37980  13.221   1.314  15.557  0.2569  0.2604  0.3345
24567W        W37981  13.077   3.516   1.458 -0.1551  0.0337 -0.1054
24568W        W37982   2.229  17.302  12.021  0.1031 -0.1302  0.0644
24569W        W37983   9.645  16.755  15.613  0.1365 -0.1886  0.0708
24570W        W37984  16.228   1.519  10.684  0.0253 -0.1150 -0.0489
24571W        W37985   8.926  16.287   5.630 -0.2271 -0.0764 -0.0489
24572W        W37986  15.709   5.338   5.972  0.1117 -0.0202  0.1647
24573W        W37987  10.420  11.322  16.696 -0.2643  0.2564 -0.2659
24574W        W37988  17.080   1.231  13.902 -0.1699 -0.1317 -0.0923
24575W        W37989   1.273   1.387   0.811  0.1501 -0.0794 -0.1827
24576W        W37990   7.128  15.541  11.500 -0.3975  0.1583  0.0501
24577W        W37991   7.184  17.160  11.728  0.1058  0.0046 -0.0727
24578W        W37992  11.171   5.114   4.567  0.1546  0.0179  0.1310
24579W        W37993   7.352   4.997   5.248  0.1583  0.2243 -0.0167
24580W        W37994   4.714   8.845   1.358 -0.0485  0.0744  0.2486
24581W        W37995   8.490  10.409   3.178 -0.0368 -0.0367  0.0642
24582W        W37996   4.854  14.737   3.567 -0.3021 -0.0092  0.0778
24583W        W37997  12.331  13.021  13.631 -0.1475  0.0198  0.0628
24584W        W37998   9.552  12.656  12.978  0.1159 -0.0743  0.0389
24585W        W37999  11.364   5.605  14.304  0.0329  0.2303 -0.0196
24586W        W38000   3.326   5.457  15.198 -0.1076  0.0994  0.2976
24587W        W38001   7.207  11.174   0.861  0.1750  0.0231  0.1884
24588W        W38002   5.792   1.969  14.819  0.0581  0.1843 -0.0091
24589W        W38003  12.805   3.510  11.994  0.1839 -0.0122 -0.0270
24590W        W38004   3.957  11.060   0.135 -0.0281 -0.0640  0.0840
24591W        W38005  17.774  13.157  10.643  0.2690  0.2234  0.1312
24592W        W38006  12.118   2.001  13.421  0.0067 -0.3073 -0.0448
24593W        W38007   4.413   2.942   3.611  0.0859 -0.0185 -0.0937
24594W        W38008   5.405  11.615   2.469 -0.0877 -0.1284 -0.1605
24595W        W38009  10.994   3.364   3.192 -0.0532 -0.2379  0.2755
24596W        W38010   5.397  13.743  13.922 -0.1689  0.2013  0.1857
24597W        W38011  14.637  17.796  16.733  0.2224 -0.0460 -0.1206
24598W        W38012   0.622   0.231  15.501  0.1223  0.0103 -0.0130
24599W        W38013   4.521  10.569   4.276  0.0926 -0.4827 -0.3710
24600W        W38014   2.660   6.706  15.771  0.1190  0.0425 -0.0965
24601W        W38015  14.501   6.434  12.447  0.2488 -0.0313 -0.0828
24602W        W38016  10.382   2.465  12.877 -0.0229  0.2341  0.5224
24603W        W38017   8.748   5.519   1.868 -0.1988 -0.3976 -0.2268
24604W        W38018  16.187   8.731  14.008 -0.0456 -0.1036 -0.0637
24605W        W38019   9.610   7.802  13.661 -0.2596  0.0382  0.0896
24606W        W38020  14.697   7.233   1.122 -0.1004  0.0473  0.1262
24607W        W38021   0.096  16.045  15.925  0.3940 -0.1330  0.1848
24608W        W38022  15.054   5.699  12.648 -0.0036  0.0392  0.1288
24609W        W38023  14.626  12.664   1.002 -0.1455 -0.1654 -0.0637
24610W        W38024  13.919  17.781  13.328  0.2046  0.1935  0.2951
24611W        W38025  13.993   2.035  10.836 -0.1681 -0.0974 -0.2948
24612W        W38026   8.855  13.649  13.699 -0.0596  0.0370  0.1051
24613W        W38027   0.019  11.052  10.666 -0.1998 -0.3718 -0.1551
24614W        W38028  15.739  15.029  14.210 -0.2646 -0.2580  0.0248
24615W        W38029   2.389   5.540  16.429 -0.1238 -0.3244  0.0798
24616W        W38030   6.460  11.761  11.605 -0.1143  0.0189 -0.4215
24617W        W38031   1.861   8.364   2.475 -0.0547  0.1553 -0.0542
24618W        W38032   7.261   2.388   4.569  0.1043  0.2902  0.7694
24619W        W38033   6.039  13.886  12.611 -0.0307  0.2442  0.0677
24620W        W38034  17.479  15.337   3.528  0.0751 -0.0227 -0.0167
24621W        W38035   2.723  11.613  14.640  0.0101 -0.0985  0.0021
24622W        W38036  15.069  15.600   1.753 -0.2127  0.0537 -0.1222
24623W        W38037  12.466   0.243  15.513  0.1012 -0.0759 -0.2770
24624W        W38038  17.453   5.644   0.903 -0.0353 -0.0066 -0.2011
24625W        W38039  15.191  12.507  16.043 -0.1616  0.0763  0.0230
24626W        W38040   1.687  13.766   5.932  0.2617  0.1486 -0.1369
24627W        W38041   2.804  13.434   3.296 -0.0579  0.1296 -0.1530
24628W        W38042   5.072  12.985  15.011  0.0770 -0.0518  0.3076
24629W        W38043  17.065   2.499  12.104 -0.0763 -0.1046 -0.2866
24630W        W38044   7.398   7.973  13.387  0.0784 -0.1320  0.1028
24631W        W38045  16.113  16.702   3.715 -0.1376 -0.1727 -0.1060
24632W        W38046   1.432   9.905   1.253  0.0879  0.0468  0.2415
24633W        W38047   6.061  15.088   1.989  0.0150  0.1319 -0.0408
24634W        W38048  11.496   0.542  11.814 -0.2747  0.1169  0.3469
24635W        W38049  16.574   3.081   4.299  0.2226 -0.1079 -0.0263
24636W        W38050  14.166  16.892   3.795  0.2891 -0.1848  0.0045
24637W        W38051   4.486  12.280  16.044  0.1771 -0.1728 -0.2329
24638W        W38052  15.487   1.549  10.060  0.4267 -0.4265 -0.1460
24639W        W38053  14.470  10.868  13.162  0.0430 -0.1740 -0.0798
24640W        W38054  14.536  10.379   0.838  0.1167  0.2797  0.0354
24641W        W38055  11.713   8.110  14.079 -0.1294  0.1776 -0.1254
24642W        W38056   0.330   2.346   2.068 -0.1441  0.0940 -0.0686
24643W        W38057  16.818   0.222   0.511  0.0479  0.0824 -0.0170
24644W        W38058   1.143  16.161   9.950  0.0814  0.1594  0.0492
24645W        W38059  14.469   6.263   2.594  0.2565  0.0488  0.2225
24646W        W38060  11.781   6.292  14.995 -0.1367  0.3010 -0.1466
24647W        W38061   3.553   4.215  16.672 -0.1502  0.0798  0.3104
24648W        W38062   0.651  11.789  16.369  0.1812  0.0676 -0.1175
24649W        W38063   7.002  17.600  14.791  0.1868  0.0543 -0.0403
24650W        W38064  10.639   8.316   4.564  0.0611 -0.1166  0.1496
24651W        W38065  16.336   7.517   4.971 -0.0549 -0.2765  0.0905
24652W        W38066   7.098   6.690   1.688  0.0425  0.0651 -0.0464
24653W        W38067   2.589   7.483  12.849  0.2664  0.2426 -0.0648
24654W        W38068   3.197   4.233  13.068 -0.1062  0.1295  0.0246
24655W        W38069  12.960   2.237   3.044 -0.2633  0.2514 -0.0123
24656W        W38070  10.360  11.915  15.705  0.2429 -0.2089 -0.2700
24657W        W38071   1.707   1.740   0.714 -0.2533 -0.0107  0.0683
24658W        W38072   2.083  11.245  10.925  0.3630 -0.1389  0.4739
24659W        W38073  15.922  16.145   5.241 -0.2258 -0.3612  0.0779
24660W        W38074  11.073  15.911   4.689  0.1708  0.0535 -0.1262
24661W        W38075   9.128  15.582  13.739 -0.0223  0.1596  0.0089
24662W        W38076  13.562  10.629   6.442 -0.0513 -0.0253 -0.4435
24663W        W38077  10.516  16.818  15.223  0.2400 -0.0852 -0.0559
24664W        W38078  12.157   6.749  13.706  0.2439 -0.3027  0.0945
24665W        W38079   6.458  17.658   1.332  0.0841 -0.2790  0.1246
24666W        W38080   3.785   4.693   1.755 -0.0821 -0.0112  0.1496
24667W        W38081  17.029  16.742   3.968  0.3421 -0.1999 -0.0708
24668W        W38082   2.303  12.436   4.988  0.1214  0.5149  0.0796
24669W        W38083  15.933   0.678   1.923 -0.0309  0.0565  0.2182
24670W        W38084   7.711  14.707   1.953  0.2010 -0.1483 -0.1529
24671W        W38085   3.724   7.302   1.583  0.1237 -0.1636 -0.0670
24672W        W38086   5.487  16.879  15.820 -0.1720 -0.0852  0.2510
24673W        W38087  13.131   2.470  16.418 -0.2524 -0.0855  0.3372
24674W        W38088  14.907  11.503   2.579  0.0828  0.3759 -0.0172
24675W        W38089  10.488  10.026   1.334  0.1169 -0.2088  0.2345
24676W        W38090   8.540   3.149  14.046 -0.0351  0.2086  0.1320
24677W        W38091  11.087   9.513  14.337 -0.0147 -0.2327  0.0258
24678W        W38092   6.982   0.862   1.821 -0.2534  0.1716 -0.1620
24679W        W38093  17.851  13.662  10.527 -0.3068  0.0106  0.1725
24680W        W38094  10.110  10.382  16.305 -0.3766 -0.1023  0.2503
24681W        W38095  10.218   3.042  14.975 -0.1576  0.1320 -0.1104
24682W        W38096   6.026  17.031  12.874 -0.2062 -0.3824 -0.0763
24683W        W38097   3.447   1.236  15.515 -0.2646 -0.0629  0.1376
24684W        W38098   5.689  10.299  11.726 -0.4052  0.0818  0.0158
24685W        W38099   8.835  14.359  12.360 -0.1372 -0.2002  0.2698
24686W        W38100   4.845   8.391  12.544  0.2660 -0.1759  0.0558
24687W        W38101  10.200   9.208   1.423  0.1436 -0.1340 -0.0992
24688W        W38102   2.007   0.167  13.613 -0.2022 -0.0959  0.1401
24689W        W38103  12.836   4.641  16.572  0.1515 -0.0040  0.2644
24690W        W38104   4.208   9.832  14.787 -0.0402  0.0083 -0.1165
24691W        W38105  16.640   1.796  10.680 -0.3171 -0.0238 -0.1444
24692W        W38106  14.936   1.724  12.350  0.1573 -0.0339 -0.1658
24693W        W38107  12.603  17.124   5.507 -0.0591  0.1690  0.0004
24694W        W38108   1.277  15.337   2.880  0.1235  0.1728  0.4254
24695W        W38109   4.162   9.138  14.342 -0.2386  0.0351 -0.1211
24696W        W38110  13.480  17.284   4.324 -0.3223  0.3536  0.1843
24697W        W38111   2.558  15.882   9.907  0.0268  0.0988 -0.1356
24698W        W38112  10.503   0.297   4.728  0.2512 -0.2929 -0.0455
24699W        W38113   9.961  15.354  16.645  0.1368  0.0643 -0.0001
24700W        W38114   7.311  14.762   2.801 -0.1092 -0.1110 -0.2741
24701W        W38115   6.329   6.895  14.970  0.1421  0.1235 -0.1247
24702W        W38116   4.061  15.283  14.018  0.0852  0.0277  0.3672
24703W        W38117   0.105  13.426   5.442 -0.1346  0.0370  0.2862
24704W        W38118   4.848   0.733   2.505 -0.0695 -0.0421 -0.4988
24705W        W38119   3.855  12.072  16.001  0.1749 -0.2300 -0.0129
24706W        W38120   2.410  14.831  12.225 -0.2222  0.0678  0.4791
24707W        W38121  13.537   6.230  13.264  0.0542  0.0695 -0.0224
24708W        W38122   9.055   4.881  13.059 -0.0665  0.0165 -0.0037
24709W        W38123  11.805  14.845  16.081 -0.0264 -0.1298  0.0276
24710W        W38124   9.496   9.463   5.509  0.0463 -0.1859 -0.0664
24711W        W38125  13.852   2.226  15.496 -0.1020  0.0452  0.1383
24712W        W38126   5.913  10.309  13.364 -0.3234 -0.1656  0.1444
24713W        W38127  17.919  15.394  14.757 -0.3743 -0.3609  0.2136
24714W        W38128  11.022  12.848  12.299 -0.3490 -0.0336 -0.2940
24715W        W38129   6.701  11.866  13.176  0.0542  0.1718 -0.0224
24716W        W38130  14.886   1.976   5.229 -0.0654  0.1725  0.2225
24717W        W38131  15.718   6.878  10.399  0.0870  0.6928 -0.2253
24718W        W38132   6.548   0.494  14.302  0.0459  0.0820  0.1456
24719W        W38133  13.312  16.492   3.516  0.3705  0.0570 -0.0830
24720W        W38134   7.106   6.317  15.598 -0.1382  0.0678 -0.1325
24721W        W38135  15.433   4.792   4.536 -0.0271  0.0167 -0.1600
24722W        W38136  14.549   5.952  16.161  0.0176 -0.1856  0.1086
24723W        W38137   9.213   5.790  14.109  0.0950 -0.1037 -0.1016
24724W        W38138   2.402   3.712  13.332  0.0391  0.1617  0.0686
24725W        W38139   5.680   7.736   2.903  0.0093  0.0696  0.1509
24726W        W38140   3.695  16.636  14.221 -0.1396 -0.3106 -0.0152
24727W        W38141   3.292   2.246   1.809 -0.2457 -0.1918 -0.0347
24728W        W38142  12.978   3.323  15.874  0.1856  0.1703 -0.0073
24729W        W38143  10.464  14.137  10.769  0.1592 -0.0609  0.0175
24730W        W38144   1.711   4.875   2.426 -0.1561 -0.2113 -0.1731
24731W        W38145   4.883   2.763  12.717 -0.1660 -0.2112 -0.0747
24732W        W38146  11.517   6.330   5.200  0.1751  0.2084  0.1174
24733W        W38147  10.696   8.888   5.734  0.0149 -0.3909  0.0016
24734W        W38148   3.359  10.319  11.179 -0.1072 -0.1698  0.1752
24735W        W38149   5.337   2.335  14.859  0.2093 -0.0874  0.1018
24736W        W38150   8.716   9.508  14.686  0.0322 -0.2664  0.1417
24737W        W38151   4.786   2.947  15.177  0.3214  0.0862  0.1414
24738W        W38152   5.005   7.800   4.242  0.0504  0.2938  0.3644
24739W        W38153   4.433   1.638  16.414  0.0013  0.0499  0.2180
24740W        W38154  11.818   3.142   3.487  0.1515 -0.2418  0.0088
24741W        W38155   0.444   6.740  14.543 -0.3086 -0.1843 -0.3000
24742W        W38156  17.610  10.804  10.518 -0.2598 -0.1530  0.2841
24743W        W38157   6.216  16.469   1.457  0.0319 -0.0664 -0.2060
24744W        W38158  11.835  14.062   4.756  0.0682  0.0183  0.0795
24745W        W38159   1.052   4.833   0.430 -0.0916 -0.1362  0.0299
24746W        W38160   2.322   5.234   1.977  0.1392 -0.1483 -0.0469
24747W        W38161   5.262   5.031   3.957 -0.3434  0.1759  0.1109
24748W        W38162   5.549   5.355   2.826  0.1538 -0.0743  0.1043
24749W        W38163   7.633   4.830  14.804 -0.0166  0.2410 -0.0214
24750W        W38164  16.217  17.201   3.855 -0.0742  0.2308  0.0725
24751W        W38165   4.550   3.401  14.011  0.2311  0.1023 -0.1054
24752W        W38166   4.591  11.364   3.447  0.0303  0.1056 -0.2740
24753W        W38167   5.125  10.461  12.749 -0.0118 -0.2556 -0.0545
24754W        W38168   3.197   2.044  12.569 -0.2415  0.1970  0.0291
24755W        W38169  11.627   2.863  14.618 -0.1331 -0.0694 -0.1619
24756W        W38170  14.869  11.719   1.846  0.1163  0.0334  0.0881
24757W        W38171   5.647   5.458  16.764 -0.0339  0.1685 -0.0667
24758W        W38172  13.408   8.006   0.944  0.0226 -0.3008 -0.1316
24759W        W38173  16.735  14.122   1.353 -0.0434 -0.4276  0.2146
24760W        W38174   4.457   8.471   3.386 -0.2286 -0.0726 -0.1883
24761W        W38175  16.432   4.974   4.921  0.1081  0.0925  0.4895
24762W        W38176  10.475   0.261  15.696  0.2625 -0.2220  0.0005
24763W        W38177   6.961   8.619  10.940  0.0307 -0.1261 -0.4814
24764W        W38178  16.646   8.470  11.506  0.1176 -0.1449  0.0011
24765W        W38179   3.738   5.875  11.179  0.0160  0.2070  0.0982
24766W        W38180  14.536  12.460  12.206 -0.1074 -0.3216 -0.0405
24767W        W38181  13.296  10.581  10.796  0.1785  0.2454 -0.1696
24768W        W38182   1.242   6.345   5.025  0.1161  0.2252 -0.1424
24769W        W38183  11.616  14.531   5.515  0.0314 -0.1515 -0.0985
24770W        W38184   5.292   4.163   1.527  0.0540 -0.4209 -0.1631
24771W        W38185   0.307   1.760  11.360 -0.2020 -0.0641  0.1459
24772W        W38186   0.562   2.281   1.000 -0.0027  0.1251 -0.0706
24773W        W38187  14.758   0.853  14.550 -0.0873 -0.0612  0.0041
24774W        W38188  16.134   4.422  13.489  0.1626 -0.0500 -0.2120
24775W        W38189   4.754   3.244   3.084  0.2077 -0.1759 -0.0443
24776W        W38190   2.698   4.497   2.230 -0.0433  0.0334  0.0469
24777W        W38191  10.698  17.288   4.917 -0.2575  0.1358 -0.0464
24778W        W38192   2.906   4.837   3.686  0.0886 -0.0965  0.1122
24779W        W38193  10.439   3.114   5.270 -0.2042  0.1273  0.2661
24780W        W38194  10.801   7.255  10.578 -0.2118 -0.2165  0.0266
24781W        W38195   0.074  15.263   1.142  0.0181  0.1144 -0.1408
24782W        W38196  15.934  10.708  16.712 -0.1887  0.0091  0.3276
24783W        W38197   1.249   8.678  15.222 -0.0829 -0.1035 -0.1763
24784W        W38198  17.131   4.161  12.094 -0.0543 -0.1494  0.0719
24785W        W38199  13.380  12.524  13.016  0.1428 -0.1309 -0.0070
24786W        W38200   6.002   0.700  15.018 -0.2176 -0.1302  0.1147
24787W        W38201  14.594   3.946   3.944  0.0730 -0.3552 -0.0156
24788W        W38202   4.106   2.346  14.562 -0.3641  0.2007  0.0028
24789W        W38203   6.501   9.860   2.813  0.0679 -0.0451 -0.0112
24790W        W38204   8.422   2.025   3.966  0.0246  0.3274 -0.0130
24791W        W38205  13.664   3.170  10.903 -0.2950  0.0970  0.0861
24792W        W38206   9.002  17.784   5.038  0.2380 -0.1236 -0.1465
24793W        W38207   1.321   0.244  10.306  0.0332  0.1131 -0.2583
24794W        W38208   0.362   3.095   2.662 -0.0300  0.2500  0.1419
24795W        W38209  16.636   5.962  16.155 -0.0638 -0.0819 -0.2488
24796W        W38210  10.308  16.529   1.835 -0.1067  0.0710 -0.1162
24797W        W38211   8.285   3.110  10.321  0.0947  0.1977 -0.2139
24798W        W38212   4.113  17.158   5.192  0.0692 -0.2148 -0.2413
24799W        W38213   2.930   9.548  12.042  0.0218  0.0191  0.1113
24800W        W38214  10.628  11.272   4.968 -0.0434  0.1490 -0.2160
24801W        W38215   7.925  17.178   2.461 -0.0139  0.0372  0.1431
24802W        W38216   0.879   9.066  10.365  0.1915 -0.1614  0.2592
24803W        W38217  16.412  13.015   4.047 -0.2275 -0.1264  0.0526
24804W        W38218  15.308  11.440   4.898 -0.0691 -0.2750  0.3030
24805W        W38219  17.467  14.759   0.363  0.1138 -0.1561 -0.2020
24806W        W38220  10.947   1.196  11.421  0.4808 -0.1157 -0.2209
24807W        W38221   8.967  11.238   2.146 -0.0809  0.0249  0.1339
24808W        W38222   3.891  11.432  12.588 -0.1765  0.0744  0.0543
24809W        W38223  15.473   5.152  14.462 -0.0709 -0.0247 -0.2093
24810W        W38224   6.889   1.438  11.756  0.1651 -0.0750  0.0863
24811W        W38225   5.425   9.698  12.197 -0.0920 -0.1525 -0.2456
24812W        W38226   9.075   7.100   4.557 -0.3257 -0.0986 -0.2152
24813W        W38227  15.269   2.184   3.140  0.3080  0.0684 -0.0321
24814W        W38228   0.839  15.899   1.638 -0.1572  0.2884 -0.0913
24815W        W38229   3.516   1.665  12.695 -0.0237  0.2869  0.0950
24816W        W38230  11.732  15.748   6.068 -0.2668  0.1495 -0.1255
24817W        W38231  11.729  14.967  15.506 -0.1179 -0.0843 -0.1281
24818W        W38232   4.893   0.357  10.943 -0.0375  0.0158 -0.0603
24819W        W38233  15.169   4.045   0.245 -0.0300 -0.2533  0.4169
24820W        W38234   8.057   2.708  14.169 -0.2417  0.3029 -0.0694
24821W        W38235   8.843   7.223  10.824  0.0714 -0.2558  0.0529
24822W        W38236   6.901  15.942   5.008 -0.2747  0.5364  0.0768
24823W        W38237  17.407   4.800  13.252  0.2300 -0.2428  0.3764
24824W        W38238   7.052   7.677   3.245  0.2021 -0.0450 -0.0017
24825W        W38239   4.559   1.636  14.171 -0.3739  0.0474  0.3827
24826W        W38240   4.252  12.889  14.111 -0.0291  0.0456 -0.2217
24827W        W38241  12.271   9.739   2.233 -0.1145  0.1985 -0.1475
24828W        W38242  11.193  10.267   2.427  0.0170  0.0038  0.1987
24829W        W38243   8.454  17.107  14.523 -0.1438 -0.0836 -0.0259
24830W        W38244   3.502   7.218  13.900  0.0394 -0.0039  0.0011
24831W        W38245  10.133   6.390   4.060  0.0224 -0.2711 -0.1977
24832W        W38246  12.113  12.156  15.955 -0.1593  0.2502  0.1670
24833W        W38247   0.055   4.116  13.126 -0.0788 -0.3191  0.0539
24834W        W38248   1.829  14.719   4.817 -0.0840 -0.0799 -0.1906
24835W        W38249  12.008   5.618  12.207  0.2685 -0.0078  0.0960
24836W        W38250  10.390  10.338  12.186 -0.1385 -0.1176 -0.1026
24837W        W38251  11.522  10.822   3.381 -0.1064  0.1006 -0.1909
24838W        W38252  16.314   5.368  15.533  0.0868  0.2281 -0.0300
24839W        W38253   4.962   7.117  13.381 -0.1982 -0.2078  0.1217
24840W        W38254  13.573   4.788  11.721  0.1267 -0.0891 -0.1477
24841W        W38255   9.797  16.874  13.764  0.1320  0.0523  0.2340
24842W        W38256   2.384   0.558  16.193  0.0577 -0.1684  0.4073
24843W        W38257   6.416   2.980   5.193 -0.3043 -0.0803  0.1770
24844W        W38258   2.829  10.445  11.951 -0.3238 -0.0936  0.0791
24845W        W38259   0.746  13.338   1.732  0.4968  0.1081  0.2778
24846W        W38260   5.597  13.637   1.471 -0.1827 -0.0755 -0.1430
24847W        W38261   9.000   2.929   2.551  0.0613 -0.1546  0.0060
24848W        W38262   1.317   3.170  10.681 -0.1216  0.3248  0.0279
24849W        W38263  16.086  17.671   3.544  0.0286  0.0262 -0.0894
24850W        W38264  13.060  15.865   0.424 -0.0016  0.0795 -0.0497
24851W        W38265   8.418  15.457   6.708  0.2516  0.2339 -0.1910
24852W        W38266   6.252   3.994  15.946  0.0257  0.0758 -0.0001
24853W        W38267  12.595  12.601   3.446 -0.1738 -0.2064  0.1533
24854W        W38268  15.040   3.152  14.533 -0.1148 -0.1943 -0.1933
24855W        W38269  12.899   2.354  15.397  0.2014 -0.1545 -0.2936
24856W        W38270   6.565  10.040   1.136  0.0085 -0.1236 -0.0538
24857W        W38271   3.674  14.147   4.700 -0.1325 -0.1252 -0.0736
24858W        W38272   0.441   3.268   4.833 -0.1990 -0.0562 -0.0582
24859W        W38273   6.353  13.639   5.402 -0.0880  0.3031  0.1841
24860W        W38274  14.706   3.194  16.729 -0.0710  0.0375  0.0835
24861W        W38275  11.180  12.168  12.300 -0.0463  0.0868 -0.3508
24862W        W38276   3.131  11.366  12.179 -0.0045 -0.0185 -0.1321
24863W        W38277   8.230   5.356  14.430  0.1236  0.1185  0.0991
24864W        W38278   1.903   5.903   0.319 -0.0549  0.2304  0.0465
24865W        W38279  17.891  13.579   2.117 -0.0873  0.0417  0.1557
24866W        W38280  10.900   9.090  16.717 -0.0500  0.3570  0.1011
24867W        W38281   4.430  17.235  14.507  0.0454 -0.0447  0.0509
24868W        W38282   6.842  16.855   0.733  0.1609 -0.0127  0.0093
24869W        W38283   9.807  17.773  10.388 -0.0732 -0.3155 -0.0290
24870W        W38284  17.773  12.154  14.804  0.0796 -0.4182 -0.2743
24871W        W38285   7.381   1.755   1.347  0.2041  0.1474  0.1035
24872W        W38286   0.970   5.698  13.540 -0.2582  0.3598  0.1309
24873W        W38287   1.198   5.338   0.237  0.0285 -0.0464 -0.1577
24874W        W38288   8.160  13.602  12.390 -0.4886  0.2080  0.2513
24875W        W38289  10.520  12.597   3.363  0.0660  0.2314 -0.0855
24876W        W38290  10.897   1.733  13.039  0.2150  0.0387  0.1243
24877W        W38291  12.849   7.831   4.681 -0.1981  0.1455  0.1588
24878W        W38292  16.587  15.916  13.090 -0.2629  0.0464  0.1227
24879W        W38293  16.527   8.605   5.428  0.0168  0.3267 -0.1250
24880W        W38294   5.707  13.963  13.192  0.0418  0.0969  0.3117
24881W        W38295   8.796  14.203  13.636 -0.0502 -0.1913  0.1097
24882W        W38296   6.966  11.064   6.258  0.0892 -0.0447 -0.1840
24883W        W38297  14.636  11.529  14.002  0.0827  0.0012  0.0822
24884W        W38298   9.726   1.101  14.809 -0.2940  0.1305  0.0061
24885W        W38299  14.156   2.457  11.735 -0.0594  0.1990 -0.1232
24886W        W38300  14.533  10.974   5.576 -0.1925 -0.0905  0.0669
24887W        W38301   6.484   5.928  10.538  0.2470 -0.4036 -0.3223
24888W        W38302   6.511   1.348  16.729  0.0162  0.0665 -0.0731
24889W        W38303   0.476   2.048  14.788  0.0386 -0.1494  0.2131
24890W        W38304   3.069   2.939   1.947  0.3074 -0.0939 -0.3467
24891W        W38305   5.699   7.833   5.851  0.4174 -0.4356 -0.0730
24892W        W38306   7.087   3.550  14.584  0.0496 -0.3653  0.2307
24893W        W38307  12.954   2.942   2.434  0.0450 -0.0921  0.0115
24894W        W38308  13.076  16.944   3.566 -0.3592 -0.0000 -0.0525
24895W        W38309   1.517  13.111  11.360 -0.0092  0.2259 -0.2377
24896W        W38310  12.657   1.111   4.993  0.0640  0.2618 -0.1062
24897W        W38311   7.952  13.479  13.859  0.1913 -0.1982 -0.3289
24898W        W38312  12.670   4.786  11.142 -0.1143  0.0266  0.0680
24899W        W38313  11.388   4.041  16.202 -0.0492 -0.0055 -0.1205
24900W        W38314  17.048  11.067  11.746  0.3018 -0.2398 -0.0866
24901W        W38315   1.468   3.036  15.620  0.2242 -0.1988  0.0605
24902W        W38316   7.807   1.878   3.297 -0.1481  0.2561 -0.0777
24903W        W38317  12.845   4.468  14.802  0.1584 -0.2381 -0.4721
24904W        W38318  16.331   6.420   1.843  0.1713 -0.0462 -0.1449
24905W        W38319  13.105   4.595  12.588  0.3711  0.2489  0.0363
24906W        W38320   4.461  14.433   0.515  0.3307  0.1104  0.0116
24907W        W38321  17.576  10.300   3.917 -0.1684  0.0287  0.0686
24908W        W38322   1.553  11.062  16.209  0.0998 -0.2809 -0.0755
24909W        W38323  17.827  14.685   0.719  0.0819 -0.2276 -0.0970
24910W        W38324   9.421   7.444   4.320 -0.3038  0.0139 -0.1217
24911W        W38325   7.037  10.663  16.117 -0.1170 -0.3125 -0.0741
24912W        W38326  14.486   0.463   1.600 -0.3050 -0.0742  0.2688
24913W        W38327   6.372   1.243   3.078  0.3309 -0.0470  0.1949
24914W        W38328   9.926   6.345  16.481 -0.1353  0.0324 -0.0135
24915W        W38329   4.493  10.664  16.716  0.0257  0.0806  0.2044
24916W        W38330   8.020  14.033   2.875  0.0816 -0.0171 -0.0778
24917W        W38331  12.881  11.765   0.538 -0.1056 -0.2683 -0.1110
24918W        W38332   7.824   2.781   3.659 -0.1758  0.0775  0.0458
24919W        W38333   4.302   9.699  16.581  0.2388  0.2705 -0.0695
24920W        W38334   4.643  16.996   4.013  0.1086 -0.4542  0.0555
24921W        W38335   0.507  11.966  14.770  0.2740 -0.0938 -0.4090
24922W        W38336  11.186  12.776   4.808 -0.1544 -0.0808 -0.1430
24923W        W38337   4.226   4.917   6.367 -0.0922 -0.0647  0.1127
24924W        W38338   8.687  10.472   5.813  0.0667 -0.0757 -0.0754
24925W        W38339  16.851  17.275   0.799  0.2812  0.0040  0.1151
24926W        W38340  15.962   6.343   2.235 -0.1150 -0.0393  0.1211
24927W        W38341   8.792  16.791   0.985  0.0139  0.0617  0.1278
24928W        W38342  11.735  10.862   4.463 -0.1336 -0.1487  0.0325
24929W        W38343   3.722  14.596   1.281 -0.3318 -0.0977  0.1892
24930W        W38344  13.169   6.486  11.121  0.1436  0.1746  0.1402
24931W        W38345   3.457  14.493  16.048  0.1857  0.0141  0.0561
24932W        W38346   4.131   9.247   5.681 -0.0501  0.0383  0.0942
24933W        W38347   2.101   2.962  12.830 -0.0183 -0.2807  0.1177
24934W        W38348   4.189   9.500  13.956  0.1098  0.2304 -0.0644
24935W        W38349  12.762  15.139  13.563  0.0860 -0.0232 -0.2053
24936W        W38350   1.284   1.642   1.901 -0.1733 -0.0862 -0.1751
24937W        W38351   7.044  18.011   2.597  0.2499  0.1305 -0.2195
24938W        W38352   7.629   1.324   0.263  0.2343  0.1462 -0.1713
24939W        W38353  16.715   5.695  15.222  0.0199  0.1644  0.0932
24940W        W38354  16.642   5.310   2.491  0.1643  0.1420 -0.0329
24941W        W38355  12.625   0.701   5.797  0.0875  0.1904 -0.2263
24942W        W38356   1.037   8.521   4.617  0.1269 -0.1920  0.1934
24943W        W38357   0.321   5.032  13.101  0.1980  0.1096 -0.0624
24944W        W38358  10.758   2.944   4.834  0.0215  0.0227  0.0466
24945W        W38359   4.910   1.062  11.762  0.0211  0.2573 -0.1582
24946W        W38360  10.635  12.859   6.831  0.2582  0.1969  0.0481
24947W        W38361  17.489   1.837  13.228  0.0252  0.0993 -0.0628
24948W        W38362   2.242   6.621   5.583 -0.3595  0.2338 -0.2304
24949W        W38363   5.575  12.730   5.868  0.0064 -0.0208 -0.1979
24950W        W38364  10.190   3.377  12.452  0.3561 -0.0896 -0.0731
24951W        W38365   2.999  15.651  12.151  0.0579  0.0337 -0.0388
24952W        W38366   1.968   4.005  14.089  0.4783  0.1571 -0.2858
24953W        W38367  16.208  17.159   3.316 -0.0164 -0.2701 -0.1011
24954W        W38368  17.003  10.783   0.051 -0.2035 -0.0973  0.0406
24955W        W38369   8.302   0.912   1.810  0.1380  0.0620 -0.3477
24956W        W38370   9.415  13.288   6.191 -0.1271 -0.1518 -0.0658
24957W        W38371  10.586   3.744   5.823 -0.0247 -0.2438  0.1624
24958W        W38372  10.799   9.165   6.608  0.0168  0.0378  0.1052
24959W        W38373   8.836  16.184   6.160 -0.0024  0.1107 -0.1467
24960W        W38374  12.733   1.408   4.529  0.4585  0.0313 -0.0085
24961W        W38375  16.218  11.931  14.023 -0.2395 -0.0701  0.0792
24962W        W38376   6.912   7.909   5.266  0.0089  0.3036  0.0076
24963W        W38377  15.994   0.272  12.063  0.3410  0.1236  0.1660
24964W        W38378   8.256   0.560  10.980  0.1447 -0.0252 -0.0540
24965W        W38379   1.076   0.186   2.318 -0.0726  0.3513 -0.1100
24966W        W38380   1.589  10.434   1.984 -0.1647  0.0740  0.2907
24967W        W38381  12.716   7.266  14.759 -0.0644 -0.2078 -0.2178
24968W        W38382   4.256   4.279   3.737  0.3310  0.0844 -0.2061
24969W        W38383   5.613  11.459   5.087 -0.0705 -0.1252 -0.0444
24970W        W38384  14.402   2.410   5.234  0.3752  0.3920 -0.0549
24971W        W38385  12.411  12.141  13.725  0.0265  0.1186 -0.4342
24972W        W38386   6.345   0.266  10.281  0.2661  0.0557  0.0765
24973W        W38387   0.468  12.143   6.285 -0.2831  0.1203  0.1209
24974W        W38388   8.830   6.413   0.018 -0.0832 -0.1966  0.2402
24975W        W38389  11.564   9.920  16.014 -0.0885 -0.0075 -0.0647
24976W        W38390  16.225   4.000  14.658  0.1600  0.1903  0.3558
24977W        W38391   3.345  12.701   5.392 -0.1227 -0.2233  0.0714
24978W        W38392   1.352  11.491  14.466 -0.0754  0.2853 -0.0592
24979W        W38393  13.829  10.304  15.369  0.0813  0.0279  0.1044
24980W        W38394  11.680  13.214   0.060 -0.0277  0.2563  0.2177
24981W        W38395  17.204   1.785  12.773 -0.0784 -0.1019  0.2261
24982W        W38396   2.513   5.403   1.395  0.2150  0.0935  0.1861
24983W        W38397   0.361   7.654  13.347  0.2460 -0.1082  0.0788
24984W        W38398   4.260   1.180   5.320 -0.2794  0.0748 -0.1352
24985W        W38399   5.969  14.387  10.851  0.1186  0.1212 -0.0318
24986W        W38400  11.624  14.012   5.692  0.0726 -0.0941 -0.1446
24987W        W38401  12.089  17.601   3.175  0.0382 -0.2259  0.2158
24988W        W38402   3.159   3.523  12.977  0.4256 -0.2558 -0.1826
24989W        W38403   9.076  15.675   6.204 -0.2249 -0.0792 -0.1870
24990W        W38404  10.717   1.950   3.847 -0.1379 -0.0595  0.2006
24991W        W38405  13.415   1.766   1.342  0.2238 -0.1165 -0.2373
24992W        W38406  11.248   8.145  13.909  0.0541 -0.2117  0.0747
24993W        W38407   4.091   5.278  12.330 -0.0121  0.2771  0.1231
24994W        W38408   4.008  15.253   3.954 -0.0488  0.2482 -0.0740
24995W        W38409   1.825  15.191   2.754 -0.1120 -0.0415  0.0928
24996W        W38410  13.286   9.508   7.050  0.1493  0.1993  0.2852
24997W        W38411  13.030  15.279  15.011 -0.2745 -0.2488 -0.0533
24998W        W38412  17.065   0.117  14.787 -0.0515  0.0554  0.2857
24999W        W38413   3.688  17.999   4.124  0.0329 -0.0262 -0.0082
25000W        W38414   5.960  17.277   5.263  0.0106  0.1284  0.0487
25001W        W38415  12.595  11.355   2.813 -0.0158  0.0259 -0.0635
25002W        W38416  11.988   2.485   4.006  0.3477 -0.3512  0.1512
25003W        W38417   7.021  14.069   1.844  0.0283  0.4164 -0.1144
25004W        W38418   5.575   7.368   5.476  0.0290  0.0902 -0.0557
25005W        W38419  12.845  16.510  16.169 -0.3751  0.0795  0.0055
25006W        W38420   0.659   4.988  11.178 -0.0068 -0.0413 -0.2619
25007W        W38421   8.201   2.975  14.534  0.2546  0.0519 -0.4150
25008W        W38422   7.500   1.351   5.892 -0.1718 -0.0309 -0.1583
25009W        W38423  16.378   6.154   5.008  0.1933  0.0197 -0.0234
25010W        W38424   5.264  13.770   2.446 -0.0567 -0.2096 -0.1182
25011W        W38425  16.052  16.826   5.044 -0.1546 -0.0691  0.1625
25012W        W38426  15.967   9.362  14.665  0.3264 -0.0441  0.2339
25013W        W38427  13.563   9.523   6.106  0.2183  0.2283 -0.0117
25014W        W38428  14.273   2.797   1.232  0.0075 -0.1496 -0.0108
25015W        W38429   1.246  14.293   2.841  0.3012 -0.1547  0.0427
25016W        W38430   0.712   7.654  11.067  0.1263 -0.1939  0.1418
25017W        W38431  12.616   7.847  15.270  0.1006  0.1399 -0.0272
25018W        W38432  17.687   6.617   5.294  0.2507 -0.0086 -0.3129
25019W        W38433  13.883   4.365  10.931 -0.2194  0.1093  0.2006
25020W        W38434   3.040   6.723   4.413  0.2533 -0.2172  0.1302
25021W        W38435   2.283   2.042  14.993 -0.0501  0.1730  0.1370
25022W        W38436   0.248   9.407   3.867 -0.1422 -0.1150  0.1199
25023W        W38437   7.843   0.647  15.217  0.1060  0.0313  0.3449
25024W        W38438   8.189   4.476   1.015  0.1878 -0.0356 -0.0331
25025W        W38439   2.897  12.396  14.286 -0.4817 -0.4830  0.0858
25026W        W38440  10.672  11.034   2.379 -0.0239  0.1055  0.1045
25027W        W38441  10.241  14.256   3.115  0.0011  0.0115 -0.2041
25028W        W38442  11.398   4.824   4.101 -0.2249 -0.0812 -0.1005
25029W        W38443  17.158   8.649   3.741 -0.0132 -0.1218  0.3018
25030W        W38444   7.619  12.473  15.505 -0.1154 -0.0676 -0.0337
25031W        W38445   5.464   2.065   2.778  0.0519  0.1432  0.0414
25032W        W38446  10.751  15.051   3.455  0.0566  0.0819  0.2274
25033W        W38447  14.903  14.693  13.165 -0.1715  0.1680  0.2627
25034W        W38448   1.450   6.809   4.985 -0.2285  0.0368 -0.1559
25035W        W38449  16.563   3.406   6.341 -0.0887 -0.0608 -0.3258
25036W        W38450  15.661   0.118   1.392  0.3412 -0.0961 -0.1829
25037W        W38451   0.016   0.647   0.886 -0.1493  0.2957 -0.2780
25038W        W38452   1.603  17.362  13.190 -0.2116 -0.1418  0.0594
25039W        W38453  14.063  17.151  10.626  0.1208  0.2668  0.0588
25040W        W38454  17.062   4.509   5.035  0.1027 -0.2407 -0.1139
25041W        W38455   9.877   9.408   3.164 -0.3455  0.0528 -0.0449
25042W        W38456  16.602  10.444  12.681 -0.1963  0.0104 -0.0933
25043W        W38457  14.728   9.258   6.063 -0.3927  0.4909  0.0461
25044W        W38458   9.171   6.017  11.962  0.1475  0.1279  0.0439
25045W        W38459   6.265  13.300   0.700 -0.1964  0.2877 -0.1099
25046W        W38460  10.568   4.353   0.965  0.4350  0.1004  0.1740
25047W        W38461  12.830  16.309   2.023 -0.0484 -0.5053 -0.1456
25048W        W38462   0.113   5.927  13.060  0.1521  0.5106 -0.0764
25049W        W38463   0.638  12.502  13.084  0.0639 -0.2847  0.0576
25050W        W38464   9.330  13.216   2.966  0.0147 -0.1886  0.1164
25051W        W38465   3.123  14.785   5.281  0.0425 -0.0475  0.2202
25052W        W38466   3.544   6.317   2.987 -0.1746  0.2715 -0.1222
25053W        W38467   5.591  13.084   6.424 -0.2579 -0.2297 -0.1793
25054W        W38468   8.939  12.042  12.794  0.0401  0.1303 -0.1827
25055W        W38469  12.987  17.848  11.707 -0.0985  0.0893 -0.2217
25056W        W38470   9.034   6.568   0.737  0.0317  0.0754 -0.3410
25057W        W38471   6.899   3.106  10.993  0.0355  0.0714 -0.0563
25058W        W38472   5.802   5.778  13.095  0.2772  0.2950 -0.2342
25059W        W38473   9.280  12.977   2.547  0.0600 -0.1792 -0.0541
25060W        W38474  13.202   7.992   5.233 -0.2260 -0.0733 -0.2484
25061W        W38475  10.904   6.505  13.182 -0.0802 -0.0248  0.0626
25062W        W38476   1.806   2.104  15.036  0.1160 -0.0133  0.0986
25063W        W38477   7.718  11.070   5.237 -0.3755 -0.1246  0.2090
25064W        W38478  17.037   2.791   0.167 -0.0684  0.0887  0.3542
25065W        W38479   9.454   0.689   2.917  0.2680 -0.2754  0.0593
25066W        W38480   7.141   8.974  15.674  0.1145 -0.0819 -0.1038
25067W        W38481   1.528   2.974   1.458  0.1493 -0.0806  0.1889
25068W        W38482  17.972   4.885  15.461 -0.0406 -0.0842  0.2657
25069W        W38483  12.492   5.414   5.929  0.2127 -0.0007 -0.1896
25070W        W38484   7.946   1.774   2.097  0.3129  0.2385 -0.1246
25071W        W38485   2.611  15.203  16.770  0.0179 -0.1886  0.0802
25072W        W38486   5.526  16.360  16.228 -0.0784  0.0459  0.1135
25073W        W38487   1.147   3.595  14.293 -0.1518 -0.1397 -0.0177
25074W        W38488   9.410   2.542   0.348  0.1744 -0.4260  0.1396
25075W        W38489  15.852   0.133   2.155 -0.2237  0.3169 -0.2573
25076W        W38490   2.120   0.374   2.324  0.0966  0.2215 -0.1403
25077W        W38491   2.092   5.333  10.955  0.3868 -0.1854 -0.1800
25078W        W38492   8.014  15.258  16.465  0.0346  0.0124  0.0250
25079W        W38493   8.754  17.307   5.071 -0.2456 -0.2924 -0.2159
25080W        W38494  12.834   2.137  11.806 -0.0449  0.0304  0.0399
25081W        W38495   1.445  13.644   1.107  0.0664 -0.0433  0.2099
25082W        W38496   2.975  10.311  15.342 -0.1451 -0.1975  0.0105
25083W        W38497   9.260  12.925  15.183  0.1170 -0.0185  0.1171
25084W        W38498  14.764   0.551  16.477 -0.2167 -0.0777 -0.1295
25085W        W38499  15.763   6.152  14.326  0.0760 -0.0623  0.2087
25086W        W38500   1.997  16.175   2.566  0.2841  0.0318 -0.3366
25087W        W38501   0.889  13.236  11.384  0.1266  0.0319  0.2614
25088W        W38502   4.218   3.190   1.926  0.1562  0.2131 -0.0579
25089W        W38503   6.412   5.648   4.632  0.0075 -0.1423  0.2829
25090W        W38504   1.977  12.248  11.966  0.1151  0.0655  0.0738
25091W        W38505   4.806  15.176   4.035 -0.2229 -0.1405 -0.3859
25092W        W38506   4.154   6.743   0.374  0.3931  0.3009 -0.0660
25093W        W38507  13.345   8.605   0.013 -0.1929 -0.0867  0.0460
25094W        W38508   9.777   7.608   3.069 -0.0519  0.0311  0.1200
25095W        W38509   5.705   4.969  13.595  0.0953  0.3631 -0.0861
25096W        W38510   4.483  15.219   2.915 -0.1638  0.0651  0.0696
25097W        W38511   9.696  16.117  15.020 -0.1281  0.1284  0.1165
25098W        W38512   1.628   9.779  15.196  0.2061 -0.2151 -0.0364
25099W        W38513   1.339  12.355  12.609 -0.0750  0.2465  0.0749
25100W        W38514  16.751  13.093  11.458 -0.0735 -0.3137  0.1065
25101W        W38515   7.197   6.499  13.889 -0.0270  0.3095  0.0423
25102W        W38516   0.476   6.124   1.618  0.0353  0.2173  0.3455
25103W        W38517  12.670   7.299  11.420 -0.1259  0.1411  0.0582
25104W        W38518  13.822   6.779   4.949  0.2574  0.1204 -0.1142
25105W        W38519  11.009   2.155   2.876  0.0487  0.0874 -0.1030
25106W        W38520   9.119   6.842  11.699  0.0253  0.0988  0.0076
25107W        W38521   8.070   8.855  10.957  0.2492 -0.0419 -0.1061
25108W        W38522  15.185  15.110  16.299 -0.2023  0.0100  0.0565
25109W        W38523   6.250   1.491  14.477  0.2451  0.0854 -0.0894
25110W        W38524   8.607   5.377   5.377  0.0536 -0.2411  0.0173
25111W        W38525   7.562  11.516   2.213  0.1198 -0.1294  0.1890
25112W        W38526  17.889   9.163   0.248 -0.2718 -0.0663  0.0759
25113W        W38527  16.211   4.977   5.891 -0.0459 -0.5229 -0.1795
25114W        W38528   9.549  14.665   0.448  0.1366  0.1407 -0.4295
25115W        W38529   8.933  16.803  13.203 -0.2314  0.1618  0.1894
25116W        W38530  10.434   1.958   6.164 -0.0775 -0.0894 -0.1529
25117W        W38531   4.015   1.788   3.798 -0.0819  0.1648  0.1172
25118W        W38532  10.008   8.676  13.502  0.0064  0.2766 -0.0100
25119W        W38533  17.998   3.948   4.405  0.3676 -0.0093  0.0391
25120W        W38534   2.550  14.552   2.710 -0.2134 -0.2825  0.0097
25121W        W38535  17.492   2.252  15.624 -0.1288 -0.3746  0.1329
25122W        W38536   9.164   0.502   5.641 -0.1807  0.1310  0.1437
25123W        W38537  13.931   0.485  11.104  0.1522  0.2238  0.0570
25124W        W38538   6.514  14.493   2.682  0.1008 -0.0715  0.0672
25125W        W38539  13.027   1.794  14.715  0.1347 -0.1594  0.0361
25126W        W38540   2.132  11.024   0.883 -0.0573 -0.1512  0.2966
25127W        W38541  17.433  10.079  13.549 -0.2294  0.2064 -0.2493
25128W        W38542  16.322   7.384   2.111 -0.1739 -0.0080 -0.1528
25129W        W38543  10.205   5.192  15.540 -0.1872  0.4355 -0.0870
25130W        W38544  13.460   8.016   3.604 -0.0297  0.1009 -0.1441
25131W        W38545   6.921   5.798  16.654  0.1504 -0.1925  0.2057
25132W        W38546   5.836   1.841  16.358 -0.0144  0.3820  0.1128
25133W        W38547   9.595  14.575  15.796  0.0363  0.4915  0.2422
25134W        W38548   8.318  12.284  12.305  0.0972 -0.0355  0.1983
25135W        W38549  14.282  10.283  15.157 -0.2065  0.0092 -0.1927
25136W        W38550  14.977   4.353  12.695 -0.1761  0.0608 -0.0327
25137W        W38551   1.710   6.058  11.013  0.4345  0.5587 -0.1651
25138W        W38552   7.106   8.560  14.128 -0.4294  0.0415  0.0075
25139W        W38553  15.291  10.949   2.051  0.2245 -0.0293 -0.0416
25140W        W38554  14.725   5.019  15.270 -0.1383 -0.0750  0.0302
25141W        W38555  13.554   9.304   0.489  0.2188  0.2277  0.1679
25142W        W38556   3.345  13.295   5.160  0.0904  0.0490  0.1945
25143W        W38557  17.936  13.729  13.567  0.0881 -0.2305 -0.0052
25144W        W38558  16.229   1.157   5.988 -0.1218  0.2328  0.2507
25145W        W38559  13.125   5.429   0.253  0.0738  0.4284  0.0019
25146W        W38560   1.269   0.812   1.838  0.0808 -0.3216  0.0603
25147W        W38561  13.621  17.705  16.702 -0.0815 -0.0357 -0.2107
25148W        W38562  12.514   1.104   4.192 -0.5261  0.2415  0.0882
25149W        W38563  16.292  16.760   4.176 -0.0132 -0.0293 -0.2194
25150W        W38564   6.947  13.447   4.572 -0.2063  0.0244 -0.3876
25151W        W38565  13.799  10.630   5.589  0.2262 -0.0393 -0.0496
25152W        W38566   4.202   9.086  11.450  0.1578 -0.1003  0.0959
25153W        W38567  10.132   2.776   1.613  0.2157 -0.2659  0.2320
25154W        W38568  14.867   3.086  13.739 -0.2864  0.0977 -0.2777
25155W        W38569  12.212   3.510  13.290 -0.0339  0.1413 -0.1855
25156W        W38570   0.923   3.057  15.734 -0.1657  0.0939  0.0887
25157W        W38571  12.586   5.971  16.268  0.0313  0.1120  0.2111
25158W        W38572  12.002  10.704  16.004  0.0728 -0.1168  0.0056
25159W        W38573  15.103   3.612   5.596 -0.0502 -0.0365  0.2167
25160W        W38574   4.169  14.058   0.709  0.0467  0.0847  0.0343
25161W        W38575  17.867   1.732   1.385  0.0886  0.2572 -0.3159
25162W        W38576   4.177   7.667  12.144 -0.0855 -0.3231 -0.0527
25163W        W38577   3.697  15.658  13.423  0.3320 -0.2153  0.0692
25164W        W38578  11.103   2.768  16.116 -0.1929  0.5790 -0.0741
25165W        W38579  15.110  15.595   4.386 -0.2188 -0.1014  0.0436
25166W        W38580   4.055  16.088  10.680  0.0379 -0.1288  0.1809
25167W        W38581   2.944  14.798  11.957 -0.1325 -0.2353 -0.1054
25168W        W38582  15.801   7.113   2.603  0.2161 -0.0075 -0.2516
25169W        W38583   1.506   7.112  15.171 -0.0646 -0.0186 -0.1281
25170W        W38584  17.862   6.748  13.127  0.1264 -0.0647  0.1953
25171W        W38585   2.664  15.542  13.664  0.0147  0.0216 -0.0828
25172W        W38586   6.686   1.385   3.577 -0.0184 -0.1161 -0.1113
25173W        W38587  17.141  13.463   3.541 -0.0268 -0.0757  0.2396
25174W        W38588  12.328   0.175  11.139 -0.1133  0.1904 -0.0640
25175W        W38589   3.855   7.900   2.953  0.4749  0.0798  0.0460
25176W        W38590  15.618  13.316  15.667  0.2660  0.1090  0.0042
25177W        W38591   5.401  13.240   0.555 -0.1267 -0.2796  0.1584
25178W        W38592   4.454   0.520  14.101 -0.0875 -0.0813  0.0804
25179W        W38593  13.032  14.165  11.348  0.0118  0.1151  0.1123
25180W        W38594  17.904   0.249   0.534 -0.0737 -0.1952  0.0738
25181W        W38595   8.491   3.005  12.520  0.1428 -0.2300 -0.0248
25182W        W38596   0.529   1.203   4.793 -0.0813 -0.3542 -0.2254
25183W        W38597  15.278   7.020   3.962 -0.1774 -0.0363 -0.1719
25184W        W38598   2.549   9.945  14.545 -0.0757  0.0263 -0.0553
25185W        W38599  14.905   8.895   0.633  0.1072 -0.3651 -0.1934
25186W        W38600   6.651   3.346  11.950 -0.2384  0.1342  0.1874
25187W        W38601   1.526   1.198  14.621  0.1952 -0.0753  0.0020
25188W        W38602   9.085  16.282   2.191  0.0280  0.1118  0.0601
25189W        W38603   4.597   7.550   5.851  0.2316  0.5139  0.0011
25190W        W38604   0.690  10.464  15.412  0.1995  0.3649 -0.0439
25191W        W38605  16.646   9.722  14.650  0.0816 -0.3676 -0.2476
25192W        W38606  17.325   6.038  11.808  0.1222 -0.0627  0.0236
25193W        W38607   9.856   2.287   4.788  0.0920 -0.1497 -0.0681
25194W        W38608   4.663  11.573   1.730  0.2221 -0.0659  0.1819
25195W        W38609  15.881  16.065   3.104  0.0340  0.2205  0.0853
25196W        W38610   8.476   4.637  11.093 -0.2075  0.5119  0.0007
25197W        W38611   1.332  17.491  11.882 -0.0616  0.2466  0.0194
25198W        W38612   6.274   0.342   4.420 -0.1975 -0.0932  0.6123
25199W        W38613   1.464   2.010   9.663 -0.2441 -0.1204 -0.1060
25200W        W38614   0.337  16.493  11.873 -0.2918  0.0130  0.1392
25201W        W38615  14.767   8.429  12.702  0.0686  0.3353  0.0782
25202W        W38616  16.387   5.857  12.689 -0.1045  0.3156 -0.1444
25203W        W38617  12.444   2.901   2.432  0.0779 -0.2143  0.2519
25204W        W38618  14.793  11.603   4.924 -0.0935 -0.0509  0.1003
25205W        W38619  11.547   8.696  15.199 -0.0081 -0.2195  0.0740
25206W        W38620  16.092   8.466  14.438 -0.0563 -0.1052  0.1650
25207W        W38621   5.265  17.009   0.150 -0.1092  0.0514 -0.0071
25208W        W38622  13.059   1.711   4.742  0.0511  0.2310 -0.0963
25209W        W38623  16.615  12.434   2.718 -0.0679 -0.2358 -0.0072
25210W        W38624  16.664   8.285   4.100 -0.0056  0.0906  0.1560
25211W        W38625   5.081   5.799  12.459  0.2358  0.2486 -0.0316
25212W        W38626   5.473   6.531  14.730 -0.3091 -0.0981 -0.0270
25213W        W38627   0.729   6.290   0.705 -0.0753 -0.2731 -0.3665
25214W        W38628   9.279   8.690  16.131  0.0992  0.2794 -0.0427
25215W        W38629   8.123   4.063  13.305  0.2224  0.1251 -0.1227
25216W        W38630   0.657  15.532  12.972  0.0516 -0.0827 -0.0279
25217W        W38631  10.458   7.760  10.834 -0.1491 -0.2222 -0.3354
25218W        W38632  17.755   5.080  15.846  0.1319 -0.2267 -0.2697
25219W        W38633  16.112  15.560  10.758  0.0073  0.2257  0.1079
25220W        W38634  10.787  15.939  13.697 -0.0523  0.1068 -0.2316
25221W        W38635   9.309  12.195   6.294 -0.2039  0.1421  0.0984
25222W        W38636  17.115   0.072   3.446 -0.2626  0.0946  0.1729
25223W        W38637   2.549  15.386   1.714  0.1582 -0.0088 -0.1623
25224W        W38638   6.849  12.465   5.756 -0.1680  0.1687 -0.0566
25225W        W38639   3.586  12.984   0.232  0.1441 -0.2979 -0.2040
25226W        W38640  13.619   5.454  14.395 -0.0182  0.2045  0.0367
25227W        W38641   8.322  12.643   1.215  0.1250 -0.1087  0.3766
25228W        W38642  10.267  10.830  16.705 -0.3796  0.1815 -0.0110
25229W        W38643  16.713   2.326   4.925 -0.1762  0.0155  0.0550
25230W        W38644   1.614  10.941   2.128  0.3456  0.1116  0.0196
25231W        W38645   7.711  10.939  14.201 -0.0949  0.2411 -0.1981
25232W        W38646   4.934   2.950  11.432  0.2223 -0.3079  0.3880
25233W        W38647   8.063   3.048   3.296  0.0620  0.0706  0.1120
25234W        W38648  11.892   4.771  11.759  0.0442 -0.4428  0.1459
25235W        W38649   0.618   3.629   0.382 -0.2015  0.2077 -0.0974
25236W        W38650   9.157  15.682   4.297  0.2940  0.1744 -0.0967
25237W        W38651  12.551  12.040  16.124 -0.1610 -0.0411  0.1016
25238W        W38652   8.863  14.726  16.646  0.0398  0.1663 -0.1448
25239W        W38653  16.140  13.443  11.776  0.2316 -0.4494  0.2149
25240W        W38654  13.852   1.367   3.753 -0.0864 -0.1875  0.0844
25241W        W38655  16.281  17.945   4.498 -0.2229 -0.5270  0.0606
25242W        W38656  15.711   9.770  13.748 -0.3261  0.0419  0.1215
25243W        W38657  14.028  15.658  15.214 -0.1190 -0.2575  0.0502
25244W        W38658   6.415  13.752   5.948 -0.1118 -0.2690  0.0050
25245W        W38659   7.837  16.837   1.433  0.0316  0.0009  0.0838
25246W        W38660   8.591  12.944   5.950 -0.1195 -0.0171  0.1341
25247W        W38661   4.766  12.786  10.612 -0.0247 -0.0458 -0.1170
25248W        W38662  16.946  15.416   3.670 -0.1704  0.2204 -0.2459
25249W        W38663   5.916  11.205  12.156 -0.2052 -0.2026 -0.0187
25250W        W38664   6.970   4.662  12.923  0.0610 -0.2297 -0.1347
25251W        W38665   3.606   6.563   5.869 -0.1031  0.0905 -0.0761
25252W        W38666  13.116  12.857   0.329  0.0087 -0.1575 -0.3058
25253W        W38667   3.475  16.857   2.077 -0.2943 -0.0568  0.1327
25254W        W38668   8.186  14.993  13.707  0.0144  0.2012  0.2404
25255W        W38669   5.921   2.861  13.747  0.0021 -0.1190 -0.0208
25256W        W38670   0.854   2.925  13.925 -0.2775 -0.0069 -0.1348
25257W        W38671  13.637   8.210  15.110  0.1030  0.1198 -0.1573
25258W        W38672   0.283   0.118   0.927  0.3785  0.0256  0.1534
25259W        W38673   5.039  16.812   3.293 -0.0078 -0.0057  0.1574
25260W        W38674  12.044  16.415   1.314  0.0306 -0.0792  0.0908
25261W        W38675   6.593   4.974  13.054  0.0607  0.1894  0.0352
25262W        W38676   7.787   4.739   1.446  0.1483 -0.0630  0.0486
25263W        W38677   6.276  18.001   3.144  0.0454 -0.1527 -0.1858
25264W        W38678   9.441  17.989  14.496 -0.0548  0.4715 -0.1540
25265W        W38679   1.197  13.731   5.747  0.0147  0.1783 -0.2198
25266W        W38680  11.651   7.384   4.020 -0.0874  0.0874  0.2087
25267W        W38681   6.356   5.559  13.562  0.1782 -0.1403  0.1706
25268W        W38682   7.616   3.025  14.216 -0.0782  0.2681 -0.1264
25269W        W38683  17.939  16.464  14.118 -0.0500  0.0271  0.1966
25270W        W38684   1.653   0.666   5.115  0.3563  0.0002  0.2195
25271W        W38685   5.413   6.834   0.761  0.3621 -0.1758  0.4065
25272W        W38686   2.118   6.580   1.850 -0.0656 -0.2999  0.1454
25273W        W38687   8.211   1.877   1.326  0.0767 -0.1457  0.0908
25274W        W38688  12.162  14.206  11.087  0.1463 -0.2645 -0.0353
25275W        W38689   4.907   7.505   6.294 -0.0059 -0.3289  0.0669
25276W        W38690   5.992   6.599   1.034 -0.1368  0.5069  0.0708
25277W        W38691  15.107   3.855   3.788  0.1486  0.0581 -0.0000
25278W        W38692   0.928   9.348   0.452  0.0059  0.1090 -0.0238
25279W        W38693   3.487   0.239  15.442 -0.0953 -0.0799  0.0564
25280W        W38694  10.232  11.187  11.873 -0.0927 -0.0584 -0.1701
25281W        W38695   2.083   1.327  16.575  0.0648  0.0094 -0.0813
25282W        W38696   1.620  11.343  11.823  0.0737  0.0478  0.2071
25283W        W38697  14.940  16.294  14.366 -0.1892  0.0104  0.0157
25284W        W38698  13.882  15.014  14.376  0.0779  0.1396  0.0165
25285W        W38699  17.521  17.466   5.384 -0.0455  0.1384  0.1373
25286W        W38700   2.763   3.314  15.256  0.0999 -0.0721  0.1819
25287W        W38701  10.103  11.563  13.569 -0.1996  0.2955 -0.1140
25288W        W38702  16.005   6.465  10.395  0.0701 -0.2082  0.1501
25289W        W38703   4.062   7.176   6.221 -0.0295 -0.3060 -0.1518
25290W        W38704  10.614  13.973   2.008  0.1978 -0.0172 -0.0864
25291W        W38705  17.254  16.275  16.168 -0.1067  0.1602 -0.0583
25292W        W38706   2.460   2.802   3.188  0.1127  0.1007 -0.1339
25293W        W38707   8.370   3.528   3.602 -0.1385  0.0535  0.1007
25294W        W38708  16.349   2.754   0.666  0.4674 -0.0928 -0.0567
25295W        W38709   8.441   7.706  11.864 -0.1173 -0.1279 -0.2391
25296W        W38710   3.125   2.387   1.033  0.0081 -0.0598  0.0302
25297W        W38711  12.235   9.050   3.175 -0.1473 -0.0404  0.0668
25298W        W38712   7.933   8.581   4.252  0.1432 -0.1680 -0.1332
25299W        W38713   3.585   2.073  13.802 -0.1057  0.1026 -0.0531
25300W        W38714   9.433   8.737   5.153 -0.0378  0.0728 -0.0830
25301W        W38715  15.512   8.136  10.616 -0.3436 -0.0370  0.0160
25302W        W38716   0.822   1.190   5.577  0.2409  0.0806 -0.0790
25303W        W38717   9.850   5.470   0.899 -0.1436  0.0503 -0.0008
25304W        W38718  10.370   8.505   0.551  0.0366 -0.1138 -0.2023
25305W        W38719   9.076  16.257  13.345  0.1362 -0.0071  0.1545
25306W        W38720   5.406  15.161   0.311 -0.1042 -0.0079  0.2815
25307W        W38721  13.657   0.486  11.516  0.1732  0.0906  0.0369
25308W        W38722  10.844   6.783   5.720  0.0722 -0.0234  0.1939
25309W        W38723   8.335   4.413   3.248  0.0197  0.4029 -0.0863
25310W        W38724   9.832   0.657  16.487 -0.1006 -0.1153  0.0034
25311W        W38725   6.341   0.370   5.336 -0.1843 -0.2049  0.1289
25312W        W38726  16.980  13.214   2.257 -0.3346 -0.0868  0.1122
25313W        W38727  11.799   2.197   0.149  0.1647 -0.1788  0.0835
25314W        W38728   6.618   1.131   1.024  0.0579  0.0221  0.1520
25315W        W38729   7.725   0.943  12.763  0.2750 -0.1692 -0.0254
25316W        W38730   5.187   7.180  12.516  0.1405  0.2149  0.1197
25317W        W38731   4.041   4.603   2.193 -0.3205 -0.4886 -0.1702
25318W        W38732   6.289   2.351  16.252 -0.0877 -0.2716  0.0584
25319W        W38733   9.000   5.383  11.206  0.1358  0.1842  0.0179
25320W        W38734   4.194   3.958   2.354 -0.0627 -0.1972 -0.1684
25321W        W38735   4.059   2.216   1.275  0.0990  0.4513 -0.1976
25322W        W38736  17.738  17.730   0.541 -0.4302  0.3362  0.1429
25323W        W38737   4.237   8.683  11.190  0.0066  0.0886 -0.0967
25324W        W38738   9.661  11.289   5.315  0.1899  0.0313  0.0957
25325W        W38739  17.460   3.374  12.988 -0.2018 -0.2551 -0.1605
25326W        W38740   4.510   6.531  15.531  0.0314  0.1577 -0.1295
25327W        W38741   0.127   2.454  14.661  0.3597 -0.3608  0.1773
25328W        W38742  12.305   0.599  16.012 -0.0847  0.0436  0.1452
25329W        W38743  16.010   4.414   0.245  0.2460 -0.1707 -0.0979
25330W        W38744   3.960  10.473   5.030  0.1494 -0.0184 -0.3278
25331W        W38745  13.309  12.384  16.231 -0.1858  0.0673  0.1411
25332W        W38746   1.244   9.189   3.470  0.0429 -0.0423  0.0954
25333W        W38747  15.322   3.516   5.010 -0.0318  0.0441 -0.1077
25334W        W38748   2.522   0.655   0.319  0.2440  0.0622  0.0847
25335W        W38749   9.961   0.067   2.667  0.1728 -0.0258  0.0158
25336W        W38750   3.758   8.458  16.095 -0.0132  0.0154  0.1970
25337W        W38751  15.756   8.274   0.482  0.0076 -0.0476  0.0186
25338W        W38752  11.812   8.752   4.943 -0.0126 -0.0459  0.6015
25339W        W38753  12.846  17.012   0.526  0.1493  0.1292  0.3054
25340W        W38754   0.698   7.201   0.230 -0.3026  0.1561 -0.0795
25341W        W38755  10.509  13.489   6.233 -0.0248  0.0029 -0.1173
25342W        W38756   0.082  15.871   3.796 -0.0715 -0.0314 -0.1858
25343W        W38757  15.859   4.100  13.111 -0.0411  0.0560  0.1128
25344W        W38758   2.550  12.320   0.432 -0.0629 -0.1055  0.0404
25345W        W38759  16.428  15.651   2.014 -0.0330  0.1287 -0.0496
25346W        W38760   8.239  16.730   5.525 -0.0537  0.0816 -0.1692
25347W        W38761   6.397   0.738  15.366  0.1765 -0.0608  0.0486
25348W        W38762  11.694  16.245   5.153  0.0891 -0.0581 -0.0755
25349W        W38763   2.470  11.848   0.595  0.0028  0.1731 -0.4764
25350W        W38764  15.971  12.550  13.401  0.1179  0.0924 -0.0815
25351W        W38765   8.659  15.706   3.994 -0.0496 -0.3919  0.0415
25352W        W38766   4.115   2.940  10.302 -0.2214 -0.2229  0.0760
25353W        W38767   6.177  10.966   4.572  0.1309 -0.1300  0.2014
25354W        W38768   9.410  15.893   3.187 -0.0309  0.2813 -0.1437
25355W        W38769   4.579   2.640  16.165  0.1247 -0.0781 -0.1487
25356W        W38770   4.590  14.202   4.642  0.0925  0.0906 -0.3530
25357W        W38771   9.487  11.617  15.181 -0.1103  0.1825  0.1900
25358W        W38772  14.597  11.940  13.009  0.0595  0.5703  0.3401
25359W        W38773  14.797   2.689   1.410  0.1729  0.0138 -0.2902
25360W        W38774  10.899   4.806  15.028 -0.1600  0.1471  0.3102
25361W        W38775  14.835  12.453   4.856  0.2020  0.0786  0.0317
25362W        W38776  14.116   7.329  12.902  0.3039  0.1377 -0.0688
25363W        W38777   2.556   2.658   1.227  0.3139 -0.0534  0.2510
25364W        W38778   4.949  15.260  13.777 -0.2678 -0.0489 -0.1908
25365W        W38779   4.256  16.208   6.144  0.3195  0.0168 -0.1006
25366W        W38780   2.124   1.936   0.945 -0.0062 -0.1203  0.0705
25367W        W38781  15.237   0.972   4.362  0.0323  0.0298 -0.1134
25368W        W38782   8.982   4.830   0.268  0.0155  0.0444 -0.1044
25369W        W38783   5.926  13.480   0.378  0.1841 -0.4849  0.2787
25370W        W38784  16.468  12.648   3.277 -0.1363 -0.2177  0.3345
25371W        W38785  15.111   5.609  14.118 -0.0182  0.1641 -0.0580
25372W        W38786  11.575   4.959   0.884  0.0888  0.2488 -0.1051
25373W        W38787   9.323   1.808   5.848 -0.2044  0.1229  0.1345
25374W        W38788   1.564  14.446  12.819 -0.2853  0.0534  0.0288
25375W        W38789  11.319   2.220   0.067  0.0228  0.0666 -0.0148
25376W        W38790   0.219   4.540  12.871 -0.1713  0.0180  0.1050
25377W        W38791   4.154   6.712  15.211 -0.0003  0.1120  0.1946
25378W        W38792  10.550  10.390  16.570 -0.2532  0.0079 -0.0157
25379W        W38793  16.481  12.745  12.299 -0.1731 -0.2089 -0.0757
25380W        W38794   6.651   2.659  15.186  0.1734 -0.0102 -0.2160
25381W        W38795  17.739   0.229  16.453  0.1898  0.0575  0.4593
25382W        W38796   9.772  11.540   4.771  0.0901  0.1886 -0.0615
25383W        W38797   5.989  17.383   0.737  0.2864 -0.0084  0.0106
25384W        W38798   4.627   2.440   4.470  0.0359  0.3820  0.0126
25385W        W38799   3.314  11.452   1.720  0.1089  0.2419  0.0186
25386W        W38800  12.392  14.931  13.842 -0.0076  0.3147 -0.2030
25387W        W38801   7.087   7.636  15.157  0.0100  0.0019 -0.1081
25388W        W38802   4.375   1.958   4.298  0.1603  0.3986 -0.1574
25389W        W38803  12.691  16.875  12.071 -0.2363 -0.0481 -0.0917
25390W        W38804   6.828   5.729  16.183  0.0141 -0.0850  0.1417
25391W        W38805  15.549  14.431   1.025 -0.1001  0.0478 -0.1049
25392W        W38806   2.218   5.032   0.792 -0.0474 -0.0963  0.0357
25393W        W38807  17.449   8.929  11.488 -0.1742 -0.1579 -0.0583
25394W        W38808   9.674  16.984   4.273 -0.0773  0.2542  0.3246
25395W        W38809  17.297   9.279  11.046  0.3062 -0.0659 -0.1008
25396W        W38810   3.263  10.745   2.343 -0.0322  0.0446 -0.0395
25397W        W38811  16.007   7.892   4.624 -0.3359  0.1499 -0.0076
25398W        W38812  11.586  13.478   1.677 -0.2141 -0.2471 -0.0749
25399W        W38813   1.602  14.294  12.356  0.2414  0.1383  0.3502
25400W        W38814   2.582   2.696  11.980  0.1593 -0.2639  0.0357
25401W        W38815   0.965  13.468   3.721  0.0963  0.1792 -0.0463
25402W        W38816   9.966   5.518  11.712  0.0627 -0.3950 -0.2207
25403W        W38817  15.311   6.152  12.581 -0.1655  0.2634  0.4196
25404W        W38818   7.641   3.634  11.049  0.1778 -0.1687 -0.0086
25405W        W38819  16.121  17.512   1.519  0.1103 -0.1127  0.1029
25406W        W38820  17.090   3.472  13.424 -0.1430  0.0374 -0.1531
25407W        W38821   3.005   3.276  13.784  0.0922 -0.2410  0.1284
25408W        W38822  14.576  16.607  15.297  0.0442  0.1250 -0.1511
25409W        W38823   6.980  10.104  16.014  0.0637  0.1043  0.3023
25410W        W38824  16.467  11.977   4.922  0.0919  0.0145  0.0088
25411W        W38825   1.297  17.707  11.038  0.3607 -0.2119  0.0399
25412W        W38826  16.066   8.793   1.925  0.2445 -0.1585  0.0818
25413W        W38827   5.509  17.867  11.266  0.2117 -0.2699 -0.2147
25414W        W38828   3.824   6.734  12.169 -0.0160 -0.1538  0.2572
25415W        W38829   9.272  16.147  13.882 -0.0905 -0.1769  0.0887
25416W        W38830   2.346   3.304  15.647 -0.2483 -0.1104  0.1737
25417W        W38831   0.812  12.840  12.388  0.2159 -0.0297  0.2330
25418W        W38832   4.825   6.177   2.073 -0.1218  0.4126 -0.3192
25419W        W38833   2.616   8.251  12.990 -0.0499  0.2234  0.1874
25420W        W38834  14.241  12.837   2.552  0.1873  0.0681 -0.3212
25421W        W38835  14.814  16.911   5.211 -0.0156  0.2732 -0.0916
25422W        W38836   3.394   3.663   3.609 -0.2629 -0.2109  0.0399
25423W        W38837  13.383   9.047   1.257 -0.0692  0.0122 -0.1722
25424W        W38838  11.893   4.579  15.463  0.4355  0.2618 -0.0620
25425W        W38839   6.773  16.320   5.274 -0.0916  0.1097  0.0844
25426W        W38840   9.073   7.220   5.469  0.5348 -0.3220  0.0225
25427W        W38841   1.079   6.104   1.604  0.0130  0.0086 -0.3899
25428W        W38842  10.722  13.787   1.203  0.1657  0.1708  0.0023
25429W        W38843   9.606  12.096  13.050 -0.1789  0.0029 -0.0121
25430W        W38844  16.382   5.799  13.304 -0.0910 -0.0658 -0.0890
25431W        W38845  12.851   5.110   5.689  0.1412 -0.1021 -0.2052
25432W        W38846  14.988   2.526   0.500 -0.0718  0.3357 -0.2187
25433W        W38847  14.608  12.765  15.430  0.0777 -0.1647  0.1922
25434W        W38848  14.815  11.644   4.430 -0.0024 -0.2911 -0.0550
25435W        W38849   0.500  11.001   0.377 -0.0773 -0.0412 -0.0582
25436W        W38850   5.219   6.936  15.091  0.0336  0.0955  0.0139
25437W        W38851   5.497   5.217  10.533  0.1829 -0.0468  0.0814
25438W        W38852  16.249   6.049  15.879  0.0264  0.0433 -0.1259
25439W        W38853  10.891  15.494  12.578 -0.0285 -0.0617 -0.0683
25440W        W38854   4.549  11.729  15.366  0.0962 -0.0374  0.1952
25441W        W38855   0.518   4.531   5.008 -0.2010 -0.1640 -0.1132
25442W        W38856  10.223   6.717  14.413 -0.1602 -0.0291 -0.0122
25443W        W38857  10.477  14.285  13.940  0.0838  0.1979  0.0610
25444W        W38858   7.899  17.169  11.944  0.0171  0.1211  0.1900
25445W        W38859   9.139   8.679  13.877 -0.2872 -0.2075  0.0402
25446W        W38860   3.812  17.677   1.640  0.3072 -0.1735 -0.0571
25447W        W38861   9.806   6.522  14.165 -0.0673  0.1173 -0.3611
25448W        W38862  11.482   5.741  13.638 -0.0372  0.2540  0.3875
25449W        W38863  14.042   6.470   5.929 -0.0290 -0.2432 -0.1254
25450W        W38864   8.963   0.737   6.310  0.0014  0.2474 -0.1123
25451W        W38865   4.451  13.741  11.111 -0.0588 -0.0812  0.1255
25452W        W38866   3.551   8.038   1.082  0.2054  0.0075 -0.4035
25453W        W38867   8.155   9.120  11.577  0.0777 -0.3914  0.0408
25454W        W38868  10.365   5.012  13.954  0.0224 -0.1866  0.1098
25455W        W38869  10.429  11.043  12.930  0.1502  0.1345  0.1447
25456W        W38870   5.669  12.245   5.651  0.1726 -0.0535 -0.3193
25457W        W38871   6.183  14.262   2.006  0.0216 -0.0143 -0.2198
25458W        W38872   5.968   9.379  13.422 -0.0972  0.3639 -0.0596
25459W        W38873  16.063  10.647   6.041  0.0049 -0.0339 -0.1178
25460W        W38874  17.108  17.964  11.553 -0.0631 -0.1964  0.4225
25461W        W38875  14.432   7.674  15.839  0.1231  0.2467  0.1576
25462W        W38876  17.947   3.125   0.533  0.2783 -0.0372  0.1044
25463W        W38877  10.702   1.405  15.604 -0.1392 -0.2220 -0.1103
25464W        W38878   7.793  10.361  16.045  0.2927  0.1247 -0.3946
25465W        W38879  16.266   0.552   4.872 -0.0186 -0.2438 -0.0674
25466W        W38880  10.528  12.486   5.412 -0.1489 -0.1242  0.0469
25467W        W38881   7.821  15.778   5.371 -0.1674 -0.0894  0.0233
25468W        W38882  13.802   3.751   4.823 -0.4263  0.2838 -0.0208
25469W        W38883  13.082   9.235   6.215 -0.1058  0.2174  0.1670
25470W        W38884  10.310  16.227   0.621 -0.2853  0.2939  0.1839
25471W        W38885  15.120   0.570   0.040  0.0657  0.1101 -0.1105
25472W        W38886   9.573  14.388  13.321 -0.1497  0.2971  0.0666
25473W        W38887  12.310   2.640  12.884 -0.1879 -0.0731  0.2068
25474W        W38888  10.549   7.479   6.393  0.3886 -0.1440 -0.1023
25475W        W38889  13.826  16.387  12.628  0.1396  0.2795  0.0893
25476W        W38890   5.922  14.596   3.256 -0.0656  0.1241 -0.1258
25477W        W38891  10.768  15.106   1.299 -0.0193  0.0308 -0.2153
25478W        W38892  12.843   4.199  12.831 -0.2345 -0.0478  0.5354
25479W        W38893   2.462   6.364  12.675 -0.0902  0.4459 -0.0335
25480W        W38894  10.130  12.619   0.984  0.0094 -0.0702 -0.1643
25481W        W38895   3.134   5.014  15.320  0.2025  0.0265  0.1555
25482W        W38896   8.541   8.807  15.497 -0.1390 -0.1037 -0.4058
25483W        W38897   9.796   5.407   2.690  0.0987  0.4703 -0.2804
25484W        W38898   2.952   0.033   5.651  0.1527  0.0997 -0.0969
25485W        W38899  10.210  12.706   2.565 -0.0664 -0.1729  0.0175
25486W        W38900   4.381   4.908   5.065  0.1745 -0.2600  0.5692
25487W        W38901  15.788   1.418   1.810  0.0413  0.2184  0.0360
25488W        W38902   5.873   1.138  14.291 -0.2370  0.1290 -0.1042
25489W        W38903  17.646  12.955  15.401 -0.0225 -0.2673 -0.1799
25490W        W38904  14.091   3.373  14.661  0.1010  0.0977  0.0836
25491W        W38905  13.545   8.573  12.426 -0.0855 -0.0500 -0.2454
25492W        W38906   9.780  14.402  15.190  0.1836  0.2975  0.2464
25493W        W38907   5.569   7.246  11.136 -0.0629  0.0895  0.1701
25494W        W38908   7.198   2.942  13.188  0.1535  0.0206  0.1818
25495W        W38909  11.128  16.822   2.378  0.0752  0.1702 -0.0816
25496W        W38910  17.318   5.583   0.366 -0.0564 -0.5154 -0.2361
25497W        W38911   2.996  10.618   3.278  0.1461 -0.0935 -0.0042
25498W        W38912  11.959  16.616   0.568 -0.0103 -0.2246  0.1387
25499W        W38913  15.178   0.898  15.677 -0.1074  0.1184  0.0026
25500W        W38914   9.052   7.607  16.695 -0.0944  0.0415 -0.1225
25501W        W38915  11.679  12.451   4.158  0.2320 -0.0552 -0.1503
25502W        W38916   7.503   8.673  14.527  0.0221  0.1326 -0.3265
25503W        W38917   3.906  15.630   1.902  0.2154 -0.1383  0.3429
25504W        W38918   6.986   8.049  11.872 -0.1019 -0.2046 -0.4364
25505W        W38919   1.252  14.079  11.537 -0.1573 -0.0218  0.0513
25506W        W38920   1.173  11.958  12.038 -0.0166 -0.0194  0.1349
25507W        W38921   6.542   1.100   4.852 -0.1517  0.1225 -0.1332
25508W        W38922  14.888   0.428   0.668 -0.1023  0.2231 -0.0222
25509W        W38923  16.294  10.820  13.798  0.1347 -0.1624  0.0553
25510W        W38924   0.920  12.514   3.302 -0.4060 -0.1127  0.0703
25511W        W38925   4.826   5.374   6.501 -0.0783  0.0839  0.1138
25512W        W38926   1.398  14.913  12.938 -0.0838  0.1022  0.2210
25513W        W38927  11.305  14.885   0.503  0.1438  0.1241  0.0172
25514W        W38928  15.536   3.322  16.610 -0.1081  0.1298  0.1597
25515W        W38929   0.786   5.953  15.471 -0.2727 -0.1437  0.0095
25516W        W38930   1.819  12.795  13.332 -0.3273 -0.2956 -0.2420
25517W        W38931   7.160  16.434  13.197  0.0355 -0.0087  0.2147
25518W        W38932   6.991  14.209  12.144  0.0503 -0.1439  0.2531
25519W        W38933  14.739  17.973  11.802  0.1619 -0.0010  0.1625
25520W        W38934  15.257  11.985   3.101  0.0880  0.0105 -0.1964
25521W        W38935   6.663   1.654   3.082  0.1368 -0.0748 -0.1400
25522W        W38936  10.043  11.336   5.800  0.1095  0.1933  0.0972
25523W        W38937   2.605   4.381  15.458  0.0335  0.1201 -0.0459
25524W        W38938   6.731   9.953   0.142  0.0225 -0.0600  0.1877
25525W        W38939  16.931   9.135  10.732 -0.1675  0.0387 -0.4871
25526W        W38940  17.729   0.163   2.235 -0.4273 -0.0438 -0.0092
25527W        W38941  16.762   9.175   1.172  0.1914 -0.0977  0.0075
25528W        W38942  12.669   2.409  13.987 -0.0304 -0.3245 -0.0189
25529W        W38943  14.004   6.142  14.878  0.2003 -0.1219  0.1919
25530W        W38944  11.049   5.468  16.651  0.0225  0.2257  0.4068
25531W        W38945  10.628   4.095  14.535 -0.0027  0.1387  0.1953
25532W        W38946   3.627   7.711  13.878  0.1390  0.4966  0.1557
25533W        W38947   1.379  12.932   2.668  0.1932  0.1190  0.2470
25534W        W38948   7.991   5.570   5.355 -0.3799  0.0880 -0.2309
25535W        W38949   9.565  11.434   4.287 -0.0189  0.0253  0.4667
25536W        W38950  15.614  11.808   5.184  0.2022  0.0180  0.1152
25537W        W38951  12.003  12.605  13.775 -0.0011 -0.2059  0.1886
25538W        W38952  16.790   5.036   0.062  0.0255  0.0881 -0.0433
25539W        W38953   2.103   5.741   2.979  0.0522  0.3934  0.2662
25540W        W38954   9.322   6.526  12.712  0.2285 -0.0992  0.0732
25541W        W38955   1.533   1.794  12.301  0.0007  0.1431  0.0165
25542W        W38956   2.820   5.465   5.486 -0.0066  0.2951 -0.1167
25543W        W38957  10.994   7.464  13.197 -0.2462 -0.0086  0.2026
25544W        W38958   6.546  10.424   2.426 -0.0433  0.0840  0.1240
25545W        W38959   6.053   5.585   3.666  0.0765  0.2919 -0.3335
25546W        W38960   6.683  17.481  13.446 -0.2312  0.0726  0.1369
25547W        W38961   9.307   2.880   3.361  0.1337  0.3717 -0.0559
25548W        W38962  10.349  14.559   4.157 -0.2231  0.3601 -0.1800
25549W        W38963   2.878  13.003   5.300 -0.4528 -0.1236 -0.3660
25550W        W38964   7.414  15.096   5.409 -0.1661 -0.0870 -0.3809
25551W        W38965  13.889  16.956   5.716  0.0066 -0.0739  0.3066
25552W        W38966  17.130   7.722  12.765 -0.0510  0.1450  0.0478
25553W        W38967  15.825   7.566   2.809  0.1319  0.1054 -0.1632
25554W        W38968   3.641   9.316  13.575 -0.0291  0.0995 -0.3111
25555W        W38969  17.965   5.642  10.684  0.0568 -0.0404 -0.1402
25556W        W38970   7.269   3.063  14.640 -0.2991  0.0603 -0.0160
25557W        W38971   6.117   8.979   0.359 -0.0712 -0.4316  0.2374
25558W        W38972  16.545   7.070   2.433  0.1422 -0.0282 -0.3439
25559W        W38973  15.210   9.079  16.701  0.2978 -0.0244 -0.0863
25560W        W38974   7.413   7.906   5.489  0.0358  0.0994 -0.1708
25561W        W38975   4.589   8.023   5.642 -0.1016  0.0033  0.4568
25562W        W38976   3.258   4.170   4.770  0.1624 -0.0056 -0.1329
25563W        W38977   8.941   3.185   1.726  0.4235  0.0417 -0.0400
25564W        W38978  10.836  13.954   0.493 -0.0466  0.0440 -0.1990
25565W        W38979   2.602  14.084   2.645 -0.3166 -0.1550  0.3623
25566W        W38980   9.086  11.346  15.021  0.0778  0.0459 -0.0187
25567W        W38981  14.352  16.847   5.531  0.0965 -0.1783  0.0759
25568W        W38982   4.205  16.439   0.753 -0.0301  0.3682 -0.3139
25569W        W38983  12.511  15.142  13.096 -0.0997  0.1904  0.0714
25570W        W38984  12.419   8.956  16.062  0.0387 -0.0908 -0.2444
25571W        W38985  14.570   8.472  14.130 -0.0902 -0.2433 -0.0472
25572W        W38986   9.572   8.615   0.954  0.1217 -0.2904  0.0438
25573W        W38987  16.182  13.923   0.296 -0.0016 -0.1451  0.2706
25574W        W38988  13.757   0.037   3.833  0.2206 -0.1762  0.0186
25575W        W38989   9.719   9.858   1.156  0.1507  0.3286 -0.0399
25576W        W38990  15.132   6.525  16.025 -0.0339  0.2053  0.2226
25577W        W38991  14.243   9.918   4.023  0.0998  0.3366  0.2819
25578W        W38992  14.178   1.294   4.287 -0.1065  0.0037 -0.1102
25579W        W38993   4.830  15.421  15.853  0.0331  0.2549  0.0354
25580W        W38994  11.984   0.534  13.607 -0.1421 -0.2959  0.0504
25581W        W38995  16.452   0.226   5.306  0.0334 -0.1631 -0.1112
25582W        W38996   6.402  11.749  12.626 -0.0788  0.0711  0.0284
25583W        W38997   7.503   6.988  13.233 -0.4729  0.1419  0.1715
25584W        W38998   0.832  10.846  16.464 -0.0982  0.1885  0.1108
25585W        W38999  12.660   4.137   4.020  0.1351 -0.1134 -0.1244
25586W        W39000  17.375  14.728   2.365  0.2028 -0.0083  0.0076
25587W        W39001   1.830   8.143   0.929  0.0783  0.2089 -0.0105
25588W        W39002  12.009  13.499  14.300 -0.1270  0.2418  0.0808
25589W        W39003  16.705   5.259  15.013 -0.2262  0.1360 -0.0627
25590W        W39004   9.985  12.112  12.024 -0.0087  0.1932  0.1200
25591W        W39005   3.298  13.354   4.565  0.0416 -0.0070 -0.2424
25592W        W39006  12.667   2.107  14.989 -0.0027 -0.1350  0.1675
25593W        W39007   9.877  10.618  15.921  0.0006 -0.4893  0.1466
25594W        W39008   9.311  14.442   0.840 -0.0483  0.0263  0.0671
25595W        W39009  11.161   2.591   3.055 -0.3102 -0.0298  0.4589
25596W        W39010   8.755   9.022   3.296  0.0403 -0.0793 -0.0654
25597W        W39011  13.088  14.614   5.854 -0.2601  0.0706  0.0213
25598W        W39012   0.951   9.725  16.439  0.0873  0.1637  0.0894
25599W        W39013   5.475   5.630  11.413 -0.0213 -0.0964 -0.1026
25600W        W39014  10.982   5.764   4.194  0.2688  0.1036 -0.0284
25601W        W39015   3.976   0.202  16.202 -0.2623 -0.0019  0.0259
25602W        W39016  12.611   7.801   2.760 -0.0260 -0.0910 -0.0081
25603W        W39017  17.524   6.675  12.142  0.5358 -0.1546  0.0092
25604W        W39018  16.622   3.364   2.474  0.2515  0.2344 -0.0439
25605W        W39019   2.448  17.006  12.362  0.1404  0.1526  0.2234
25606W        W39020   4.650   9.893  13.302 -0.0821 -0.0547  0.0389
25607W        W39021   5.958   9.095  15.151 -0.1576  0.1341  0.2890
25608W        W39022  13.695   2.343  13.038  0.0345 -0.1613 -0.3386
25609W        W39023  14.965   7.399  16.109  0.4431  0.2006 -0.2834
25610W        W39024  15.465  14.837   0.715 -0.0021 -0.0295 -0.1153
25611W        W39025  17.098  13.374  14.671 -0.1914 -0.0934 -0.2234
25612W        W39026   8.972  11.864  14.317 -0.0102  0.2455  0.1997
25613W        W39027   8.250  15.404  11.871  0.1669  0.0501  0.0529
25614W        W39028  17.040   9.452  14.828  0.0427  0.0669 -0.1649
25615W        W39029  11.957   4.480  10.284 -0.2174 -0.1594  0.3464
25616W        W39030   8.401  12.971  11.433 -0.3220  0.3136 -0.0026
25617W        W39031   3.520   7.345   2.908 -0.1023  0.0143 -0.0939
25618W        W39032   2.552   2.921   2.261 -0.0921  0.1138 -0.3387
25619W        W39033   8.630  17.972  13.209  0.0004  0.0016  0.0004
25620W        W39034   7.606  15.974  12.910  0.0077  0.5113 -0.0581
25621W        W39035   4.665  14.469   2.075  0.0524 -0.2237  0.1197
25622W        W39036   5.269  10.810  13.556 -0.0412  0.0957 -0.3146
25623W        W39037   3.860  14.650   4.497  0.2389 -0.1329  0.1004
25624W        W39038   7.703   8.621   6.123  0.2608  0.0578  0.0212
25625W        W39039  10.268  17.451  14.434  0.2041 -0.5166  0.2060
25626W        W39040  12.013   2.607   0.546 -0.0535 -0.0646  0.0293
25627W        W39041  11.264  15.918   0.770 -0.1173  0.2405 -0.0339
25628W        W39042   5.828  17.725  12.179 -0.0955  0.0134 -0.0835
25629W        W39043  12.534  10.530   2.739 -0.2633  0.0875  0.0521
25630W        W39044   2.552   0.765  12.281 -0.3021 -0.0486  0.0015
25631W        W39045  15.770   6.118   4.096 -0.2280 -0.0596  0.3762
25632W        W39046  11.871   0.828   4.749 -0.0006  0.1393  0.0358
25633W        W39047  15.185   9.810  15.992  0.1087  0.1090  0.1196
25634W        W39048  14.411   6.429   0.752  0.1637 -0.0796  0.0893
25635W        W39049   7.084  13.811   6.599  0.0276  0.1379 -0.0993
25636W        W39050  14.294   6.898   3.831 -0.1453  0.1484 -0.0408
25637W        W39051   7.530   4.062   1.778  0.1819 -0.2232 -0.1959
25638W        W39052   2.004  17.009  16.465 -0.0029  0.0622 -0.0920
25639W        W39053   6.022  10.613  11.485 -0.2045 -0.0480 -0.2530
25640W        W39054   9.473   0.664  13.962  0.0772 -0.1128  0.4537
25641W        W39055  14.183   3.268  12.116 -0.2569  0.0960  0.1356
25642W        W39056  15.389  12.078   4.100  0.0332  0.1326 -0.3492
25643W        W39057   4.569   1.611   5.350  0.1977  0.0241  0.3433
25644W        W39058  14.583  17.686  14.571  0.1404  0.0578  0.2209
25645W        W39059  14.874   4.529  15.398  0.0833  0.0850  0.4311
25646W        W39060  16.609   3.416  12.610  0.0740  0.0415 -0.1163
25647W        W39061  13.851   3.589   1.221 -0.1782  0.1132 -0.1036
25648W        W39062   6.449   7.402   4.779  0.3984 -0.2536  0.0114
25649W        W39063  12.463   4.741  13.884 -0.0974  0.0428  0.1864
25650W        W39064  16.326   2.784  13.394  0.1366 -0.1587  0.1709
25651W        W39065   0.646   7.810  13.730 -0.0185  0.0156  0.1378
25652W        W39066  17.173  14.922   1.762  0.0172  0.0828  0.1622
25653W        W39067   3.102   7.470  13.068 -0.0730 -0.2810  0.2292
25654W        W39068   9.983   8.197  11.253 -0.3797  0.0086  0.1053
25655W        W39069   9.297  17.412   1.282 -0.0026 -0.0632 -0.0138
25656W        W39070   3.813  15.201   1.745  0.1471 -0.2949 -0.3060
25657W        W39071  12.028   9.826  14.455 -0.0333 -0.1620 -0.3557
25658W        W39072  16.871  10.663   5.449 -0.2325 -0.0621  0.2255
25659W        W39073   7.749   8.908   1.913  0.0740  0.2634  0.2623
25660W        W39074   2.750  14.664   0.154  0.0824 -0.1455  0.2224
25661W        W39075   2.948   3.641   3.235 -0.2863 -0.1639 -0.0709
25662W        W39076  10.408  13.512   0.068  0.1612  0.1982 -0.1810
25663W        W39077  17.490   6.893   6.248 -0.2765  0.3107 -0.0864
25664W        W39078   2.129  16.509   0.916  0.2889  0.0083 -0.0141
25665W        W39079  14.272  14.667  11.744 -0.2104 -0.0084 -0.0115
25666W        W39080  14.410   0.918   4.056 -0.1978 -0.0390 -0.0189
25667W        W39081   4.880  17.661  11.954 -0.3234 -0.1067 -0.1156
25668W        W39082   5.581  16.655   4.882  0.1001  0.0848 -0.3000
25669W        W39083   0.508  16.506  12.317 -0.1049  0.1677  0.0040
25670W        W39084  14.103  17.770   1.624 -0.0460 -0.0038  0.1236
25671W        W39085  12.585   1.903  10.882  0.0302  0.1522  0.1346
25672W        W39086  10.411  11.748  15.239  0.0146 -0.4566  0.0787
25673W        W39087  16.822   2.776   4.669 -0.1525 -0.1496 -0.0052
25674W        W39088   4.755  16.458   3.072 -0.1323 -0.0798  0.0710
25675W        W39089  13.010  10.091   0.163 -0.0870  0.0371  0.1021
25676W        W39090  11.752   4.529  12.166 -0.2052  0.0916  0.0949
25677W        W39091   4.416  10.220   1.098 -0.0797  0.3154  0.2047
25678W        W39092  17.996   4.247  11.063 -0.2962 -0.0096 -0.1768
25679W        W39093  12.671   3.864   2.677 -0.3007  0.3057 -0.1882
25680W        W39094   7.745  17.250  14.982  0.0555 -0.3710  0.0824
25681W        W39095  13.734  13.717   3.222  0.1635 -0.1700 -0.0786
25682W        W39096   8.422  12.738   4.422 -0.1125  0.1004  0.2022
25683W        W39097  14.383   0.837   4.580 -0.1890 -0.1614  0.0050
25684W        W39098   2.403  10.295  11.629 -0.1086 -0.3785 -0.0831
25685W        W39099   9.876   8.973  16.413  0.2984 -0.2347  0.1004
25686W        W39100   8.330  13.213  12.687 -0.0585  0.1992 -0.3106
25687W        W39101  12.513   3.074   4.488 -0.0756  0.0486 -0.2133
25688W        W39102   4.810  14.686   5.826 -0.3034 -0.2508 -0.2438
25689W        W39103  16.282  10.925  14.866 -0.1399  0.0890  0.2306
25690W        W39104   9.725  13.952  12.076  0.4337 -0.1251  0.0536
25691W        W39105  16.073   9.292   5.722  0.2239 -0.2418 -0.0267
25692W        W39106   6.658  12.311  12.572  0.0517  0.2235 -0.1484
25693W        W39107  13.394  12.683   1.504  0.1130 -0.0191 -0.0292
25694W        W39108   8.932   3.543   1.378 -0.0002 -0.1072  0.1688
25695W        W39109   3.304  10.675  13.016  0.3239 -0.3325  0.0892
25696W        W39110  10.435  15.164   2.739 -0.0441 -0.1038 -0.0109
25697W        W39111  11.067   8.445  12.711  0.1505 -0.1853 -0.1336
25698W        W39112  13.101   2.157   0.490 -0.3384 -0.0996 -0.2626
25699W        W39113   3.353  15.965   4.430  0.1075 -0.2102 -0.2796
25700W        W39114   0.226  10.911   2.326  0.0082 -0.1265 -0.0323
25701W        W39115  11.834  11.733   6.129  0.3706 -0.3413  0.1127
25702W        W39116  10.675  12.952   5.546  0.1877 -0.1512 -0.1912
25703W        W39117   9.572   8.131  12.301  0.1472 -0.1225 -0.0815
25704W        W39118   7.294   2.741  11.016  0.2156  0.0843  0.2511
25705W        W39119   0.962   6.595  11.900  0.0453  0.1902  0.1677
25706W        W39120  11.138   1.195   0.773 -0.1351 -0.2164 -0.4215
25707W        W39121  12.491   5.646  14.621 -0.0433  0.0780 -0.1721
25708W        W39122  14.446   2.312   6.343 -0.0793 -0.2549  0.4670
25709W        W39123  14.015  17.811   5.253  0.0111 -0.0319 -0.1586
25710W        W39124   1.122   4.896  13.499 -0.1179  0.3554 -0.0856
25711W        W39125  17.483  12.468  15.118  0.0962 -0.2077 -0.0821
25712W        W39126   3.954  16.703   0.413  0.0184 -0.1771  0.1762
25713W        W39127  13.057   7.082   5.192  0.1256  0.1205  0.1766
25714W        W39128  13.202   9.229   3.855 -0.0185 -0.0801  0.3187
25715W        W39129  17.968   6.659  12.404 -0.1239 -0.0726 -0.3065
25716W        W39130  12.843   2.695   3.359  0.2423  0.0515  0.2047
25717W        W39131  12.721   4.387  13.284 -0.0382  0.1164 -0.0280
25718W        W39132   1.710   8.714   2.890 -0.3081  0.1697  0.2229
25719W        W39133   8.481   5.383   3.828  0.1584 -0.2159  0.2034
25720W        W39134  16.911   9.381  16.168  0.1356 -0.1809  0.0864
25721W        W39135   7.980   6.510  12.157 -0.2763  0.3364  0.0775
25722W        W39136   0.623  11.726   4.607  0.0161  0.1197  0.1176
25723W        W39137   1.905   1.569  10.348  0.1990 -0.2293  0.2188
25724W        W39138   7.767  13.187  12.608  0.0133  0.0206 -0.0493
25725W        W39139  10.829   4.172   4.614 -0.2561  0.0310 -0.1149
25726W        W39140  14.167   5.861  14.451 -0.0313 -0.0244 -0.0788
25727W        W39141  10.268   5.370  12.952  0.3637  0.0721 -0.0247
25728W        W39142   1.981   6.329  11.889  0.0647 -0.0885  0.0827
25729W        W39143  11.082  14.225   2.019  0.3009 -0.3389  0.1403
25730W        W39144   8.525  14.340   2.887 -0.0891  0.1151 -0.1569
25731W        W39145   5.703   6.914   3.917 -0.2075  0.0064  0.0014
25732W        W39146   1.180  17.194   5.233 -0.1325 -0.1931  0.2906
25733W        W39147   0.662  14.244  12.681 -0.0224 -0.1674 -0.2158
25734W        W39148  10.421  14.965  16.678 -0.1246 -0.0114  0.0128
25735W        W39149   5.522   1.535   0.333  0.2770  0.2575 -0.1607
25736W        W39150   9.905   7.855  12.027  0.1073  0.0708 -0.0019
25737W        W39151  10.436  15.244   0.913 -0.2491  0.2591 -0.2236
25738W        W39152   8.269  15.330   1.849  0.2127  0.1466 -0.0124
25739W        W39153   3.565  16.034   5.077 -0.4256 -0.2203 -0.0291
25740W        W39154   2.684  13.798  12.005  0.1103  0.2054 -0.2119
25741W        W39155  17.047   9.666   1.589 -0.0192 -0.1649 -0.2790
25742W        W39156   2.846  15.413  10.302 -0.0430 -0.2811  0.0516
25743W        W39157   1.354  13.733  13.440  0.1611  0.2537 -0.1327
25744W        W39158   1.713  17.877  16.554  0.1118  0.0554 -0.1272
25745W        W39159  12.772   3.383  12.473  0.0798 -0.0807  0.0310
25746W        W39160  17.370  16.630  13.324  0.0963  0.1478  0.0280
25747W        W39161   9.038   9.286  12.834  0.2645  0.3855 -0.0587
25748W        W39162  10.757   6.138   6.176  0.0970  0.3031  0.1403
25749W        W39163   9.589   7.493  16.629 -0.2395 -0.1006 -0.0619
25750W        W39164   7.890  13.285  15.466 -0.2085  0.1577 -0.2391
25751W        W39165   6.844   4.148  11.791  0.0157  0.0323 -0.3249
25752W        W39166   8.635  15.728   1.154 -0.0457 -0.0287  0.1460
25753W        W39167  11.362   9.629   2.312  0.1297 -0.1257  0.0298
25754W        W39168  10.802   0.697   4.384 -0.0920 -0.0248 -0.0176
25755W        W39169   3.672   2.656  11.166 -0.0567 -0.1800 -0.0161
25756W        W39170   1.959  14.676  15.658  0.1048 -0.0216  0.0540
25757W        W39171  10.987  14.048   4.933  0.0937  0.0657  0.3223
25758W        W39172  17.177   0.537   5.999  0.1204 -0.1211  0.0907
25759W        W39173   1.569   7.141   4.158 -0.0121  0.1350  0.0842
25760W        W39174   8.831  10.875  14.726  0.0613 -0.1409  0.1389
25761W        W39175  12.494   5.972  11.428 -0.1241  0.1319 -0.2990
25762W        W39176   6.167  15.037   2.681  0.0604  0.1065  0.0056
25763W        W39177  16.681   3.799  15.477  0.1647 -0.0095  0.0273
25764W        W39178   5.179   5.977  16.100  0.2014  0.0446  0.0270
25765W        W39179  10.778   3.598   1.946 -0.2221  0.0060  0.2372
25766W        W39180  16.796  17.779  14.411  0.5903 -0.1172  0.2470
25767W        W39181  15.740   9.359  11.000 -0.0859 -0.2070  0.1270
25768W        W39182  17.781   5.223   3.398 -0.0018 -0.0034 -0.2565
25769W        W39183  15.004  17.320   2.165 -0.4714  0.3396 -0.2105
25770W        W39184   8.479   6.501  14.812 -0.0605  0.1295  0.0314
25771W        W39185   2.729   6.459  13.361  0.1272  0.3964 -0.0060
25772W        W39186   2.749   6.294   3.421  0.0088 -0.1363  0.0933
25773W        W39187   6.093  15.792   5.021  0.0370 -0.3793  0.1091
25774W        W39188   8.222  15.611   4.268 -0.4216 -0.0831  0.0150
25775W        W39189   9.022  14.134  14.755 -0.1819  0.0985  0.0072
25776W        W39190   9.175   9.803  14.934 -0.2116  0.2743  0.1631
25777W        W39191  13.702  13.809  15.974  0.1272 -0.1072 -0.2582
25778W        W39192   0.401   0.037  12.683 -0.0469 -0.0756  0.1666
25779W        W39193   0.634   9.269  16.525 -0.3405  0.2615  0.1754
25780W        W39194   6.335   6.083   5.545  0.1499 -0.1871  0.0559
25781W        W39195   2.442   5.739  11.199  0.2646  0.0629  0.0981
25782W        W39196   1.651   0.713  13.758 -0.0259  0.2333  0.0728
25783W        W39197   1.098   9.648   3.638  0.2820 -0.1115 -0.0064
25784W        W39198   8.412  11.255   2.020  0.3475  0.0381  0.3156
25785W        W39199  17.988   7.368  14.837 -0.0783 -0.1975  0.0081
25786W        W39200  11.400   4.877  12.039 -0.0255 -0.0488  0.0741
25787W        W39201  10.982  11.317  16.572  0.1760  0.0200 -0.1534
25788W        W39202   5.015   9.661  11.609 -0.1599 -0.3801 -0.1723
25789W        W39203   3.831  13.126   0.698  0.5615  0.1514  0.4959
25790W        W39204  11.756   1.148  11.787 -0.3028 -0.4013 -0.0111
25791W        W39205   8.876  11.349   4.874  0.3133  0.1359  0.1633
25792W        W39206  12.379  16.480   4.681 -0.1370 -0.0761  0.2462
25793W        W39207  17.235  15.821   3.334 -0.1485 -0.1576  0.2756
25794W        W39208  12.387   9.964  15.573 -0.1494 -0.2257 -0.1063
25795W        W39209   0.612  16.200   4.677 -0.3635 -0.2291 -0.0396
25796W        W39210  12.205  16.374  13.845 -0.0050  0.1124 -0.1198
25797W        W39211  17.437   1.361   1.433 -0.2870  0.0479  0.0895
25798W        W39212  16.685   8.400   2.604  0.3719  0.3199  0.0260
25799W        W39213   1.001  14.606   5.755  0.0135  0.0949  0.1491
25800W        W39214   6.262   1.622   5.362  0.0478  0.2838  0.0173
25801W        W39215   8.063  14.593   2.909  0.0898  0.1409  0.0606
25802W        W39216  13.375   6.364  15.675 -0.4328  0.2502  0.0039
25803W        W39217  10.448   9.718  13.068  0.2541  0.1687 -0.0084
25804W        W39218  14.991  15.150   4.535 -0.1000  0.1678  0.0907
25805W        W39219  15.350   6.891   1.665  0.0628 -0.2773 -0.0726
25806W        W39220   0.081  16.018  11.476 -0.1149 -0.1683 -0.0861
25807W        W39221   4.646  14.027   3.650 -0.0256 -0.2689  0.2214
25808W        W39222  11.282  12.276   1.953 -0.1381 -0.3156  0.1331
25809W        W39223  11.985   6.756   0.438 -0.1972 -0.2101  0.1292
25810W        W39224  17.552   5.454   2.456  0.1304  0.1283 -0.3529
25811W        W39225   9.053  13.342  11.126  0.0289  0.2063  0.2173
25812W        W39226  15.878   7.610  13.564  0.2636 -0.0299  0.0592
25813W        W39227   3.754   8.199   2.165  0.0350 -0.1344  0.0843
25814W        W39228  16.236  12.236  14.745 -0.0804  0.0828  0.2239
25815W        W39229  14.618  15.872   4.375  0.3484 -0.3628 -0.1826
25816W        W39230   4.804  17.661   1.798 -0.2529 -0.2140 -0.0800
25817W        W39231  12.340  17.988   3.006  0.1194 -0.1046 -0.0910
25818W        W39232  12.705   8.024   2.140 -0.3610  0.0448 -0.2904
25819W        W39233   4.284   9.388   5.185 -0.2217  0.0723 -0.0484
25820W        W39234   2.844  14.543  12.373 -0.0272 -0.0466 -0.0178
25821W        W39235   9.009   5.257   2.254  0.1874 -0.0577 -0.0272
25822W        W39236   4.061  12.410   1.514 -0.0929  0.1220 -0.1383
25823W        W39237   5.905  10.448   6.013 -0.1449 -0.1226 -0.1164
25824W        W39238   7.117  10.371   0.374  0.0743  0.0188  0.0483
25825W        W39239  15.290   4.743  12.070  0.0484  0.3094  0.1680
25826W        W39240   9.094  12.681  16.304  0.1150 -0.1733 -0.0951
25827W        W39241   3.731  14.931   0.886  0.0208 -0.0938  0.2220
25828W        W39242   8.599  13.500   5.268 -0.0319  0.1343 -0.2225
25829W        W39243  10.255   0.697   5.634 -0.2872 -0.1619 -0.2195
25830W        W39244  10.785   2.424   3.793  0.1863  0.0546  0.1311
25831W        W39245   8.212  14.471  16.480  0.1064  0.4682  0.1374
25832W        W39246   3.980   9.471  15.082  0.0897  0.1459 -0.1655
25833W        W39247   3.437   0.785   3.043  0.1112 -0.2742  0.0337
25834W        W39248   7.693  12.413   3.329 -0.1619 -0.0662 -0.0194
25835W        W39249   7.618   7.421  11.506  0.2684 -0.0334 -0.2060
25836W        W39250  12.048   7.178  15.481  0.0321  0.0636 -0.0482
25837W        W39251  11.172   0.902  13.673  0.5393  0.1793 -0.2931
25838W        W39252  11.515   9.171   1.040 -0.0441 -0.0442 -0.0617
25839W        W39253   2.030   2.861   1.570  0.4480  0.0607  0.0748
25840W        W39254   3.018  13.823  10.666  0.0812  0.1942 -0.1229
25841W        W39255   8.442  14.470  15.989  0.2754 -0.1646  0.3136
25842W        W39256   3.430  16.031   2.910  0.2253 -0.0100  0.1802
25843W        W39257  12.433  15.819   5.077  0.2374  0.0425 -0.1172
25844W        W39258   1.788  15.717  15.197  0.2335 -0.1320  0.1183
25845W        W39259   6.509   1.852   4.458  0.0554 -0.2753 -0.1196
25846W        W39260   4.174  14.744   0.980 -0.2912 -0.2488  0.0601
25847W        W39261   1.358   3.527  15.732  0.0015  0.2136  0.4446
25848W        W39262   4.177  13.646  14.210  0.2429  0.0210 -0.3208
25849W        W39263   0.119   9.417  13.121 -0.2403 -0.0607 -0.3713
25850W        W39264   5.917  10.210   0.082 -0.1580 -0.0392 -0.0531
25851W        W39265  11.319   9.266   4.721 -0.1124  0.3521 -0.0378
25852W        W39266  13.381   6.856  15.723  0.0301  0.1790 -0.2071
25853W        W39267   3.681  17.909  13.913 -0.0050  0.2676  0.2605
25854W        W39268  10.138  12.222  14.770 -0.0726 -0.2836  0.2919
25855W        W39269  11.711  11.712   6.652  0.1190 -0.0583  0.1365
25856W        W39270   7.736  11.896   3.700 -0.2551  0.3755 -0.4288
25857W        W39271  11.095   6.917   4.007  0.2644  0.1467  0.0290
25858W        W39272   5.215  12.331   5.868 -0.2074 -0.0472 -0.2062
25859W        W39273  16.247   0.935   5.155  0.0268  0.2484 -0.0211
25860W        W39274  11.914   3.839  13.494  0.3283 -0.0800 -0.0596
25861W        W39275  16.403  12.674  15.516  0.0393 -0.3998 -0.2686
25862W        W39276   7.602  14.943  15.609  0.4527 -0.0401 -0.3643
25863W        W39277   4.594   4.826   3.477 -0.0938 -0.1851 -0.3016
25864W        W39278   2.132   0.200  12.965 -0.1860 -0.1877 -0.1139
25865W        W39279   7.873   0.563   5.560 -0.2494  0.0128 -0.1959
25866W        W39280  13.227   1.435  13.948  0.2447 -0.1432 -0.0003
25867W        W39281   2.547   5.996  13.538  0.1751  0.1045  0.0217
25868W        W39282  13.795   8.098   4.415  0.1177 -0.2961  0.0536
25869W        W39283  12.281   1.788  13.864  0.3513  0.2422 -0.2894
25870W        W39284   3.248   5.832  14.382  0.1234  0.0560 -0.0902
25871W        W39285  14.395  13.964  15.505  0.1349 -0.0418 -0.0082
25872W        W39286  10.870  17.920   5.724 -0.2463 -0.3850  0.1840
25873W        W39287  12.743  15.855   2.350 -0.3825 -0.0238 -0.1080
25874W        W39288   5.947   8.762   0.945  0.0952  0.0085  0.1678
25875W        W39289   5.766  16.132  12.338  0.0642 -0.0148  0.3223
25876W        W39290   4.332   0.318  12.596  0.1472 -0.0651 -0.0246
25877W        W39291  14.328  16.206   2.042  0.2184 -0.2156  0.2886
25878W        W39292   2.656  12.393  11.790  0.1013  0.0680  0.1086
25879W        W39293   2.202  13.970  14.289 -0.3231 -0.1602 -0.2572
25880W        W39294  10.512   9.247  12.851 -0.1368  0.3416  0.1744
25881W        W39295   2.847  10.743   6.230  0.2917 -0.1416  0.2174
25882W        W39296  10.839  14.902   0.224 -0.2683  0.1118 -0.1561
25883W        W39297  16.606  15.138   1.145 -0.0867  0.3018 -0.1502
25884W        W39298  10.615  14.220   1.499 -0.3973 -0.0140 -0.1538
25885W        W39299  10.782   1.212  13.455  0.0490  0.0377  0.4645
25886W        W39300  11.176   6.700  15.162 -0.3098  0.1632  0.3126
25887W        W39301  17.960   1.970   0.510 -0.1812 -0.0629  0.2432
25888W        W39302   0.030   4.209  12.494  0.0293 -0.2472 -0.0352
25889W        W39303   1.214   8.015  10.391 -0.0953 -0.1297 -0.0383
25890W        W39304  11.264   8.768   4.515 -0.0096  0.1234 -0.2199
25891W        W39305   5.179   2.773  16.136  0.1082  0.3951  0.1508
25892W        W39306  10.141   7.869   5.100  0.2693  0.0318  0.1664
25893W        W39307   9.499  12.868  11.796 -0.0232 -0.0018  0.2820
25894W        W39308  17.774   0.516  14.082  0.1237 -0.0194 -0.1669
25895W        W39309   6.806   4.773   4.683  0.0532 -0.0128  0.2406
25896W        W39310   9.607   4.745  13.234  0.0368  0.2718  0.4460
25897W        W39311   6.243  13.199   5.701 -0.0899 -0.1455 -0.1887
25898W        W39312  11.106   0.513  16.532  0.0028 -0.0134  0.0358
25899W        W39313   8.219  14.342   3.310 -0.1890  0.0423  0.1875
25900W        W39314  15.817   0.384  13.332 -0.3014 -0.1702 -0.2073
25901W        W39315  14.536   5.185   5.190 -0.0014 -0.1570  0.2056
25902W        W39316   9.956   3.168   2.803  0.1217  0.1963 -0.0462
25903W        W39317   4.426  16.612   9.668 -0.1686  0.2401 -0.1943
25904W        W39318  15.724  17.375  15.387 -0.4410 -0.0010  0.0013
25905W        W39319  15.355   6.539  11.339  0.0100 -0.6310  0.3029
25906W        W39320   6.750   4.693  15.213 -0.2268 -0.0194  0.0529
25907W        W39321  17.281   5.768   1.339  0.1289 -0.0334 -0.0776
25908W        W39322   3.376  12.796  10.545  0.0271  0.3173  0.1757
25909W        W39323   2.504   4.696   5.906  0.2601 -0.2804  0.1200
25910W        W39324   1.578   3.261   2.308 -0.0789  0.1237 -0.1707
25911W        W39325   9.738   4.180  13.935 -0.2269  0.2990  0.1453
25912W        W39326   5.765  15.380   2.749 -0.0497  0.1588 -0.0429
25913W        W39327  15.854   7.170   1.836  0.2783  0.0475  0.0397
25914W        W39328   1.801  11.651  14.164 -0.0150 -0.0446 -0.0772
25915W        W39329   0.628   2.369   0.125  0.0538  0.1736  0.2048
25916W        W39330   7.359   7.471  13.497 -0.2253  0.2503  0.3214
25917W        W39331  15.145   1.044   2.395 -0.1079 -0.0571 -0.4114
25918W        W39332   1.379  11.352   0.221 -0.1405  0.0593  0.1032
25919W        W39333  17.268   8.246   2.634  0.1265 -0.4203 -0.0721
25920W        W39334  17.383  16.325  12.124  0.0904 -0.1519  0.0023
25921W        W39335  10.108   4.887   3.846 -0.1467 -0.0604  0.0096
25922W        W39336   2.791   4.275  10.979 -0.1149 -0.1016 -0.4110
25923W        W39337  14.978   5.201  14.482 -0.1520  0.1639 -0.1352
25924W        W39338   9.550   0.288   1.941  0.1700  0.1074  0.0987
25925W        W39339   2.902  13.698   4.566  0.0912 -0.1317  0.2421
25926W        W39340   1.252  17.213  14.841 -0.2700 -0.0148  0.1859
25927W        W39341   6.475   7.723  16.616 -0.2428  0.2446 -0.1610
25928W        W39342   9.295   1.392   3.545  0.1378  0.4220 -0.1114
25929W        W39343   6.180   9.443   3.058 -0.2955 -0.1357  0.1974
25930W        W39344   0.790   6.766   2.169  0.1899  0.3651 -0.0246
25931W        W39345  12.346  13.316   2.167  0.1271 -0.0064 -0.2469
25932W        W39346   0.791   7.132   0.784 -0.0580 -0.1050 -0.0502
25933W        W39347   2.468   3.449  14.765 -0.0217  0.2722 -0.0850
25934W        W39348   6.935  14.420  13.933  0.1602  0.3798  0.1348
25935W        W39349  13.911  17.720   1.144  0.2004  0.2398  0.0268
25936W        W39350  10.869  16.454  12.177  0.3066  0.1080 -0.0091
25937W        W39351  15.022   3.860   0.776 -0.0053  0.0836  0.1666
25938W        W39352   9.619   1.120  13.070  0.2888  0.3126 -0.0625
25939W        W39353  17.700   7.869   5.227 -0.2781 -0.0026  0.2671
25940W        W39354   3.880   4.312   2.559  0.0817 -0.1367 -0.3455
25941W        W39355  13.375  14.502  14.743 -0.0771  0.1708 -0.1452
25942W        W39356  13.588  15.750   3.988 -0.0820  0.1617 -0.2049
25943W        W39357  17.394   8.499  13.911 -0.0475 -0.0910  0.0841
25944W        W39358   3.059   1.437   0.661  0.0941 -0.1587 -0.1910
25945W        W39359  10.843   2.608   2.614  0.3274  0.0346  0.0237
25946W        W39360   0.126  15.466   2.602 -0.0676  0.0512 -0.0072
25947W        W39361   7.392  11.082   4.845  0.1108  0.0447  0.3139
25948W        W39362   8.129   2.581  15.739  0.2486  0.0974  0.0453
25949W        W39363  14.769  15.573   3.964  0.0036 -0.2508 -0.1096
25950W        W39364  15.490  13.067  12.331  0.1074 -0.0590  0.0194
25951W        W39365  17.881  14.184  11.444  0.1279  0.2997  0.0700
25952W        W39366  14.911  16.071  16.469  0.4608 -0.0856  0.1995
25953W        W39367   1.561  17.036  11.652 -0.1477  0.2091 -0.0427
25954W        W39368  12.024   5.004  11.338 -0.0348 -0.2898 -0.0461
25955W        W39369  16.199  10.718   2.231  0.2152  0.1504  0.0659
25956W        W39370   3.127  17.708   2.968  0.2072  0.1770 -0.1849
25957W        W39371  10.548   1.038  11.050 -0.0271  0.2378 -0.1751
25958W        W39372  10.029  11.240  16.399  0.2740  0.0415 -0.0668
25959W        W39373   6.703   4.300   3.867  0.0717  0.4474 -0.2191
25960W        W39374  15.458   6.768  11.759 -0.1101  0.2828  0.0929
25961W        W39375   4.632   6.877  15.137 -0.5009 -0.3574  0.1609
25962W        W39376   6.918  12.009   6.018 -0.1195  0.0809  0.1869
25963W        W39377  11.288   4.310  16.697 -0.1544 -0.0985  0.1182
25964W        W39378  11.179   1.051   1.243 -0.1694 -0.7316  0.1324
25965W        W39379  14.305   9.941   0.757 -0.0139  0.0379 -0.2292
25966W        W39380  16.252   5.532  13.936 -0.2417  0.1648  0.0473
25967W        W39381   4.603  13.046   2.016 -0.0983  0.0757 -0.4329
25968W        W39382   1.302   7.424  12.142  0.1499 -0.2927  0.0061
25969W        W39383   5.000  10.878  13.963 -0.0401 -0.2158  0.1846
25970W        W39384  12.252  10.325   6.338 -0.2108 -0.0609  0.2426
25971W        W39385   1.183   2.386  16.756  0.1083  0.1673  0.1072
25972W        W39386   0.495  11.942  11.501  0.0434  0.0911 -0.0139
25973W        W39387  16.656  11.268   3.753  0.2558  0.2109 -0.1469
25974W        W39388  10.081  12.214   6.080  0.0301  0.0824  0.0404
25975W        W39389   8.866  11.337  12.105  0.2022  0.0418  0.3643
25976W        W39390   5.228  16.312   4.659 -0.0757  0.0592  0.0404
25977W        W39391  13.196   4.981  11.018  0.0295  0.1427 -0.1104
25978W        W39392  17.059   1.568  12.303  0.1191  0.0865  0.0082
25979W        W39393  17.073   7.003  16.393 -0.0752  0.3272 -0.1080
25980W        W39394   6.365  13.000  12.051  0.3097  0.1151  0.1119
25981W        W39395   5.987  12.087   2.501  0.0639  0.0731 -0.1447
25982W        W39396   6.498   0.835   4.399 -0.1663  0.4369  0.4219
25983W        W39397   4.538   8.693  16.467  0.2216 -0.0932  0.0930
25984W        W39398  17.436  16.196   4.925 -0.1025  0.1714  0.0319
25985W        W39399  16.824   9.374   5.354  0.1005 -0.2089 -0.0760
25986W        W39400   8.442  14.464   4.277  0.0919  0.0979  0.1775
25987W        W39401   9.112   3.235   4.275 -0.0450 -0.1519  0.2602
25988W        W39402   9.390   3.984  13.593 -0.1030  0.0581 -0.0926
25989W        W39403   1.234  16.152   1.428 -0.2649  0.0941 -0.2183
25990W        W39404   3.964  15.211  15.440  0.2073 -0.0496  0.0929
25991W        W39405  14.116  11.316   5.386  0.1745  0.0694 -0.2957
25992W        W39406   5.345   1.202   5.868  0.2115 -0.2331  0.0044
25993W        W39407   1.272  12.343  16.691 -0.0194 -0.1333 -0.1097
25994W        W39408   3.916   1.604  11.738 -0.0434  0.1201  0.2115
25995W        W39409   6.222  16.226   3.117  0.2030 -0.0933  0.0040
25996W        W39410  17.945   1.469  13.312  0.1447  0.0570 -0.0965
25997W        W39411   6.826  15.779  16.635  0.2368 -0.0243  0.0762
25998W        W39412   8.759  15.299   0.623 -0.1464 -0.0474  0.2494
25999W        W39413   3.520  10.362   4.755 -0.0919 -0.0775 -0.1656
26000W        W39414  12.970  13.962   0.515 -0.3839 -0.1513 -0.0668
26001W        W39415  12.298   2.540   2.106  0.1347  0.2225 -0.2866
26002W        W39416  12.947   8.854  14.015  0.0361  0.0422 -0.1587
26003W        W39417  17.342  14.962  11.978 -0.2176 -0.0277  0.0260
26004W        W39418   7.688  10.575   5.126 -0.6410  0.3928 -0.0412
26005W        W39419  12.266   5.323   5.436 -0.4427  0.0336 -0.0572
26006W        W39420   2.266   9.206   1.923 -0.0862 -0.0811  0.1099
26007W        W39421   8.008   4.648   0.585 -0.2594 -0.5095  0.3087
26008W        W39422  17.983  12.240  11.241  0.0096 -0.0384 -0.2058
26009W        W39423  14.252   0.205  14.028 -0.0080 -0.3406  0.3813
26010W        W39424   7.175   6.774   2.167 -0.0960  0.1818  0.0840
26011W        W39425  17.934   8.583  12.376  0.1419  0.3387 -0.4415
26012W        W39426  15.628   3.000   9.992 -0.0472 -0.0665  0.0877
26013W        W39427   2.860  17.525   4.969  0.1998  0.3205 -0.0563
26014W        W39428  12.948   8.874  12.088 -0.0458 -0.0087  0.0303
26015W        W39429   3.008  14.026  12.603 -0.4136 -0.0059 -0.0815
26016W        W39430  10.792  16.694  16.195 -0.0595  0.1772  0.3162
26017W        W39431   5.702   8.071  10.659  0.2529  0.0588  0.0757
26018W        W39432  15.172  17.754   5.203  0.0384  0.3261  0.4307
26019W        W39433  12.144   1.404   3.355 -0.0706  0.2425 -0.0754
26020W        W39434   6.060   6.462  12.122  0.3680  0.0197 -0.0496
26021W        W39435   9.400  16.010  14.661  0.0727  0.0453 -0.1961
26022W        W39436  14.383  13.152   3.759  0.2018  0.2669 -0.1933
26023W        W39437  17.677   4.469   0.910  0.3180  0.1449  0.1526
26024W        W39438  15.236   2.157  12.131 -0.1917  0.1838 -0.2006
26025W        W39439   2.460  14.060   0.790  0.1177  0.2041 -0.2892
26026W        W39440   4.947  13.471  15.204 -0.0574 -0.1353 -0.1813
26027W        W39441   7.005   8.268  14.637  0.0897  0.0725 -0.0618
26028W        W39442   3.683   4.463   3.491 -0.2058 -0.0523  0.0761
26029W        W39443   7.739  10.528  11.284 -0.4003 -0.1806  0.2446
26030W        W39444  13.199   1.022   5.583 -0.0706  0.1523 -0.0665
26031W        W39445   7.221  15.305   2.132 -0.0245  0.4245  0.2219
26032W        W39446   7.733   7.183  13.706  0.0818  0.0760  0.0766
26033W        W39447   9.636  14.782   1.384 -0.1006 -0.0307 -0.0283
26034W        W39448   1.061   3.358  15.333  0.0170  0.0309 -0.0435
26035W        W39449   4.569   6.413   0.429 -0.0021  0.5325 -0.0702
26036W        W39450   9.292   9.183  13.939 -0.3711  0.0899 -0.0492
26037W        W39451  14.559   3.595   5.291 -0.1303  0.0996  0.3851
26038W        W39452  12.229  16.985  16.695 -0.0826 -0.0759 -0.2270
26039W        W39453  16.789  15.081  13.821  0.0976 -0.2814 -0.1052
26040W        W39454   6.904   9.616   0.442 -0.1341 -0.2430  0.0611
26041W        W39455   6.683  13.310  13.522  0.2007  0.2607 -0.1322
26042W        W39456  12.378  15.810  11.510  0.0115 -0.2812  0.3692
26043W        W39457  10.429  15.297  13.895 -0.0166  0.0288  0.3262
26044W        W39458   5.323  11.438   3.014 -0.1448 -0.1021  0.2409
26045W        W39459  10.844   1.334  14.821 -0.2494 -0.2369 -0.1161
26046W        W39460   5.251   9.489   4.027 -0.0108  0.0009  0.0313
26047W        W39461  14.661  11.070   4.136  0.1363 -0.2072  0.0126
26048W        W39462  13.346   2.254   2.125  0.2988 -0.1559  0.2157
26049W        W39463   9.512   4.048  12.574 -0.3760 -0.3768 -0.1788
26050W        W39464  15.010  11.939  11.086  0.1317  0.0638  0.0093
26051W        W39465   6.406   5.331   0.848 -0.0923  0.0790  0.1639
26052W        W39466   9.364   9.855  11.631  0.2584 -0.0719  0.1194
26053W        W39467   2.213   5.826  12.927  0.2804 -0.2593 -0.1884
26054W        W39468   5.465   0.103  11.807 -0.1657 -0.0926  0.0673
26055W        W39469   9.774  16.116  13.091  0.3143 -0.1678 -0.4334
26056W        W39470  12.550  16.988   4.877 -0.2308  0.1200 -0.0791
26057W        W39471   9.180  11.091   2.848  0.1224  0.1561  0.3000
26058W        W39472  16.584   2.244  14.837 -0.1948 -0.1584 -0.0326
26059W        W39473   4.417   0.552   2.709  0.1256 -0.3151 -0.1329
26060W        W39474   3.127   7.581  14.625  0.1873  0.1769 -0.0634
26061W        W39475   3.690   3.405  11.619 -0.3171  0.3269 -0.0169
26062W        W39476  10.858   6.558  11.271  0.0152  0.1747 -0.0805
26063W        W39477   7.997   3.841  10.717  0.4155 -0.0511 -0.2851
26064W        W39478  13.431   8.708   3.893 -0.0182 -0.0712  0.2830
26065W        W39479   8.578   1.354   5.676  0.2819  0.1066 -0.2387
26066W        W39480   0.606  16.736   4.672  0.0262 -0.0206  0.0514
26067W        W39481   9.900   1.882  13.359 -0.1377  0.0398  0.1311
26068W        W39482  16.414   7.162  11.839  0.1336  0.0997  0.1406
26069W        W39483   8.469  11.882  12.597 -0.1235 -0.1134 -0.0021
26070W        W39484   5.042  15.434  11.151 -0.0180  0.0169  0.3266
26071W        W39485   5.519  17.982   0.250 -0.0496 -0.1481 -0.4648
26072W        W39486   6.507   8.814   6.081  0.0213 -0.3485  0.2400
26073W        W39487   2.097  13.825   1.564  0.1027  0.2678  0.0516
26074W        W39488  15.713   7.310  15.375  0.1415  0.0698 -0.2046
26075W        W39489  11.113  17.682   4.526 -0.0305  0.1409  0.1188
26076W        W39490   9.037  17.642  12.732 -0.1018  0.1996  0.2664
26077W        W39491   1.082   6.693  11.403 -0.2877 -0.0514  0.1545
26078W        W39492   1.816   0.278  12.242  0.1674  0.0647 -0.1487
26079W        W39493  10.641   4.595  13.080  0.3619 -0.3233 -0.0956
26080W        W39494  11.659   8.166   4.139  0.0783  0.1285  0.0425
26081W        W39495  10.080  13.406   1.316 -0.1020 -0.1159 -0.1733
26082W        W39496   7.415   8.946  16.565 -0.1652 -0.1554  0.1278
26083W        W39497   0.905   2.663  10.654 -0.1055 -0.0720  0.2295
26084W        W39498   2.296  14.280  15.109  0.0766 -0.0105 -0.1058
26085W        W39499   2.385  12.920  12.869  0.0656 -0.0309 -0.0833
26086W        W39500  12.117  12.941   3.377 -0.2610  0.0578  0.1516
26087W        W39501   4.008  13.829  11.533  0.1966 -0.0807  0.2247
26088W        W39502   7.648  17.347   2.869  0.0391  0.1527  0.1941
26089W        W39503   4.519   5.356   5.215  0.0614  0.1422 -0.2284
26090W        W39504   6.209  12.323   4.456 -0.2339  0.2202  0.1585
26091W        W39505   7.178   7.978  12.962  0.0443  0.1496  0.0851
26092W        W39506   1.315   3.307   3.765 -0.0770 -0.1081  0.2667
26093W        W39507  17.933   3.468   4.218 -0.0460 -0.0994 -0.3666
26094W        W39508  11.355  11.401  11.989 -0.1223  0.4275 -0.0493
26095W        W39509   7.045  14.792  11.947 -0.1010  0.0753 -0.4201
26096W        W39510  11.394   2.086   5.789 -0.0284  0.2185 -0.1518
26097W        W39511   3.760   5.583  16.013 -0.0750  0.0659  0.2006
26098W        W39512   5.261  15.841  13.829 -0.0020 -0.1694 -0.0446
26099W        W39513   4.543  13.738  14.464 -0.0947  0.2031  0.1176
26100W        W39514  13.155  15.740   2.761 -0.1899  0.3144 -0.0386
26101W        W39515   7.864   0.147  15.067  0.0255 -0.1612 -0.3292
26102W        W39516  17.176   5.685  15.646  0.0738  0.0809  0.2375
26103W        W39517   3.605   9.674  14.841  0.0704 -0.0731  0.1975
26104W        W39518   9.946  16.095   6.997 -0.0394  0.1105 -0.1005
26105W        W39519   4.672   3.601   3.390  0.0486  0.1007  0.0548
26106W        W39520   4.888  16.913   1.089  0.1914 -0.0240  0.0439
26107W        W39521  13.458   9.376  15.924 -0.4126  0.3350 -0.1706
26108W        W39522   2.159  16.839   3.834 -0.0301 -0.2153 -0.2754
26109W        W39523  17.030   1.150   3.677  0.0193  0.1485 -0.0815
26110W        W39524  12.014   5.469  14.921  0.0759  0.0499  0.1308
26111W        W39525   9.362   5.487  16.771  0.0689 -0.2155 -0.0529
26112W        W39526   1.173  13.881  16.324 -0.0333  0.2875  0.1865
26113W        W39527  16.460  10.804  12.994  0.2066  0.0602  0.0840
26114W        W39528  10.263  13.586   5.733  0.0591  0.1377  0.1274
26115W        W39529  12.023  14.497   6.832 -0.1446 -0.1005 -0.0565
26116W        W39530   4.643  10.986  14.249  0.0942  0.1219 -0.1149
26117W        W39531   9.283  12.652  14.779 -0.0859  0.1411  0.1029
26118W        W39532   5.565   1.441   4.469  0.2577 -0.1911  0.0757
26119W        W39533   0.931  17.040  15.927 -0.2768  0.3094  0.0419
26120W        W39534  13.574  14.966   4.457  0.0099  0.1493 -0.1589
26121W        W39535   7.276  13.194  14.884  0.0875 -0.1434  0.0302
26122W        W39536  11.750  13.471   5.965 -0.1675 -0.2200 -0.1368
26123W        W39537   8.248   3.025  15.060  0.1035  0.0047 -0.1900
26124W        W39538  11.992   8.198  16.672  0.2343 -0.2991 -0.2104
26125W        W39539   1.010  15.132  14.239  0.4159 -0.1039  0.0614
26126W        W39540   9.013   9.522   5.412  0.0174 -0.1587 -0.2096
26127W        W39541  13.712  13.585   5.203  0.1221  0.0275  0.0536
26128W        W39542   1.099  14.187   5.266  0.0455 -0.3288 -0.0414
26129W        W39543  16.496   1.151  13.829  0.1040  0.1663  0.0158
26130W        W39544   6.152   2.718  15.985  0.0423  0.1293 -0.0548
26131W        W39545   2.184   5.742  14.336 -0.1064  0.1075  0.0131
26132W        W39546   5.097   1.868  15.661  0.1073 -0.0497 -0.2014
26133W        W39547  17.325   5.291  13.340 -0.2630 -0.1183  0.4460
26134W        W39548  12.381  14.033   2.628  0.0022  0.2383  0.1271
26135W        W39549   8.461  14.015  13.964  0.0692 -0.2079 -0.0099
26136W        W39550   4.300   6.691  13.272  0.1462  0.2380  0.0668
26137W        W39551   0.508  16.613   0.890 -0.0635  0.1724 -0.1247
26138W        W39552   1.931   5.265  12.244 -0.0793 -0.1496 -0.4473
26139W        W39553  16.592   2.791   5.146 -0.2295  0.1606  0.1864
26140W        W39554  13.673   9.325   0.985 -0.0866 -0.0283 -0.0926
26141W        W39555  11.483   9.803  14.653 -0.2994  0.1009 -0.0284
26142W        W39556   2.066   5.429   1.111 -0.1410 -0.2045  0.1990
26143W        W39557   1.434   7.022  15.708  0.1671  0.0457  0.2467
26144W        W39558   6.959   2.808   4.509  0.1809  0.0502  0.3551
26145W        W39559  13.895   5.483   1.479 -0.0825 -0.0523 -0.2934
26146W        W39560  17.893   5.993   3.458  0.1617 -0.2157 -0.0748
26147W        W39561  10.246   4.379  15.919 -0.1774  0.2953  0.0096
26148W        W39562  17.387   2.615   3.393  0.3487 -0.1150 -0.2243
26149W        W39563   6.786  13.993   4.098 -0.1209 -0.2142 -0.1387
26150W        W39564   0.608   6.704  13.189 -0.1735 -0.1619 -0.1724
26151W        W39565  11.661   6.802   5.522  0.1520 -0.0345  0.0738
26152W        W39566  17.792  13.786  15.803  0.1734 -0.0297 -0.2884
26153W        W39567   0.984  13.395  13.660 -0.2836  0.0780  0.2741
26154W        W39568   5.968   9.471   2.595 -0.0412 -0.1743  0.0691
26155W        W39569  13.032   1.864  12.241 -0.0008 -0.5166  0.0735
26156W        W39570  13.209   6.042  12.511 -0.0810  0.1826 -0.2210
26157W        W39571  12.579   4.339   0.241 -0.0407 -0.1081 -0.2093
26158W        W39572  17.910   0.199  12.070  0.1054  0.2960  0.1490
26159W        W39573   5.320   5.269  10.018 -0.0142 -0.0734 -0.1420
26160W        W39574  16.738   4.950  12.626  0.0534  0.0955 -0.1709
26161W        W39575   4.000   4.469   0.694  0.1892 -0.4263  0.3424
26162W        W39576  16.433  14.399  13.174  0.4829 -0.0330 -0.0421
26163W        W39577  12.881  12.043   2.038 -0.0054 -0.2028  0.0458
26164W        W39578  12.967  17.500   1.826  0.0124  0.1475  0.1891
26165W        W39579   7.455   9.228  14.617  0.1950 -0.2461  0.0320
26166W        W39580   9.348  12.034   4.960 -0.1379 -0.1246  0.1205
26167W        W39581   7.174  17.766  16.167 -0.0045  0.2695 -0.3161
26168W        W39582  12.173   1.279   4.817  0.0571 -0.2693  0.0912
26169W        W39583   2.426  15.087   5.572  0.2822  0.0912 -0.2667
26170W        W39584   1.262   8.829  16.089 -0.1147 -0.1784  0.0335
26171W        W39585  15.982   8.385  12.283 -0.3700 -0.0477  0.1039
26172W        W39586  15.232   4.708  13.620  0.0242  0.0152 -0.2874
26173W        W39587   1.237  16.217  15.163 -0.0428  0.1757  0.0773
26174W        W39588  12.936  11.276  13.619 -0.2112  0.1379  0.0789
26175W        W39589   9.823  10.923   4.993 -0.0830  0.1466  0.1749
26176W        W39590  13.667  15.990   4.414 -0.3788 -0.0631 -0.1822
26177W        W39591   9.577  16.217   1.317 -0.0145  0.0994  0.1614
26178W        W39592   2.108  11.737  11.886 -0.0445  0.0608 -0.2243
26179W        W39593  13.566  11.090  12.923 -0.0770  0.1699 -0.1139
26180W        W39594  12.081   9.525   6.759 -0.0422 -0.2540 -0.0303
26181W        W39595  15.475   1.003   4.821 -0.0728 -0.0133 -0.1166
26182W        W39596  11.136   6.911  13.158 -0.1041 -0.1950  0.2125
26183W        W39597  10.627   2.425   3.114 -0.2235  0.1361 -0.0031
26184W        W39598   1.693  12.571   0.329  0.2427  0.1964 -0.3232
26185W        W39599   9.815   0.725   5.944 -0.3624 -0.0297  0.3026
26186W        W39600  14.750  16.439   1.160 -0.3176 -0.1795  0.0921
26187W        W39601   6.630  14.433   3.989  0.1768 -0.3362 -0.1122
26188W        W39602   4.937  10.295   3.960 -0.0561  0.1323  0.0074
26189W        W39603  14.593  13.926   2.175 -0.0586  0.4438  0.0903
26190W        W39604   0.193  16.868   5.083  0.0184  0.0925 -0.1652
26191W        W39605   4.978  15.122   2.664 -0.0319  0.0457  0.0977
26192W        W39606   3.984  15.759   5.903 -0.4747  0.0808 -0.1470
26193W        W39607  13.585  16.833  11.880  0.0602 -0.0629 -0.0727
26194W        W39608  15.307   7.668   2.163  0.1023  0.0155 -0.0273
26195W        W39609   6.934   9.855  14.131  0.0175  0.1944 -0.0282
26196W        W39610   0.711   0.356  10.445 -0.2463 -0.0373 -0.0227
26197W        W39611   9.659   4.221   0.661  0.2879  0.1230  0.0674
26198W        W39612   9.836   0.940   2.512 -0.1220  0.1102  0.0957
26199W        W39613  15.947  15.982   4.365 -0.0202  0.2652  0.1208
26200W        W39614   2.194   4.125  16.392  0.0744 -0.0722 -0.2293
26201W        W39615  10.571  11.482  13.673  0.1573  0.1500 -0.1025
26202W        W39616   6.834   3.976   3.056  0.3737 -0.0996 -0.2509
26203W        W39617   0.450  17.027   5.689 -0.2674  0.1912 -0.4437
26204W        W39618  12.847  13.909   5.083  0.2151  0.0894  0.0432
26205W        W39619  16.978  13.941  14.878  0.0165  0.2697  0.2309
26206W        W39620  17.944  12.836  16.301  0.1724  0.2577 -0.0563
26207W        W39621   1.755  13.119   0.311 -0.1856 -0.0869  0.1286
26208W        W39622  11.204  11.251   0.867 -0.0195 -0.0947 -0.1293
26209W        W39623   7.223  11.283   3.900 -0.2166 -0.2728 -0.3385
26210W        W39624   6.990  12.445  16.773  0.0092 -0.1120 -0.1558
26211W        W39625   4.654   2.371   2.423  0.0321 -0.1711 -0.0624
26212W        W39626   2.631   6.000  14.178 -0.2579  0.1227 -0.2480
26213W        W39627   5.315   0.504  14.411  0.0355  0.1808  0.2159
26214W        W39628   2.161   3.303  14.316 -0.0157 -0.0410  0.0101
26215W        W39629   2.638   6.125   0.686 -0.2409 -0.1528 -0.1643
26216W        W39630  17.441  12.227   3.507 -0.3803  0.0675 -0.0443
26217W        W39631   8.346  13.412   2.412 -0.2680  0.2015 -0.0261
26218W        W39632   2.014   9.809   5.416 -0.1482 -0.2663 -0.2488
26219W        W39633   2.290  16.150   2.093 -0.3357 -0.1501  0.1392
26220W        W39634   7.525  15.164  12.680  0.1620  0.3025  0.1134
26221W        W39635  17.689  11.009  12.744 -0.1301  0.2841  0.0035
26222W        W39636   1.395   4.819  15.172  0.1068  0.2946  0.0083
26223W        W39637   6.907   6.550   3.435  0.0971 -0.1999 -0.2172
26224W        W39638  11.909   1.542  13.456 -0.1896  0.2364  0.1046
26225W        W39639  11.342   5.760   3.173  0.1644  0.0225  0.3267
26226W        W39640  11.275   0.747  12.752 -0.1480  0.2849 -0.2919
26227W        W39641   1.661   1.221   0.553  0.1548 -0.0840 -0.4032
26228W        W39642  16.271   5.891  15.391  0.0203  0.1130 -0.0313
26229W        W39643   9.124  15.800   3.743  0.0086 -0.1481 -0.0936
26230W        W39644   9.260  12.955   4.724 -0.0060  0.0288  0.0490
26231W        W39645   1.856  15.090   0.401 -0.0289  0.1669  0.0287
26232W        W39646  15.588  15.327  11.616  0.0635 -0.2294 -0.2357
26233W        W39647   8.012  14.603  14.621 -0.2206 -0.1995 -0.0847
26234W        W39648  11.151   3.643   3.611  0.0145  0.2112  0.0289
26235W        W39649   5.825  12.624   4.121  0.0062 -0.1283  0.2884
26236W        W39650   3.644  17.289   4.827 -0.2552  0.1884  0.1460
26237W        W39651   1.594  15.241  14.904 -0.1383 -0.0072  0.0041
26238W        W39652   5.188   1.181  13.072 -0.3306  0.3078 -0.1493
26239W        W39653  10.782   1.072   3.478 -0.0689  0.2290 -0.1592
26240W        W39654   3.847  16.917   2.506  0.2133 -0.1406 -0.4005
26241W        W39655  13.145   0.597  12.373 -0.0997 -0.1170 -0.0530
26242W        W39656   9.570   8.066   1.681  0.2971  0.0090 -0.0438
26243W        W39657   7.270  12.989   1.896  0.0140  0.3484 -0.1733
26244W        W39658  14.971  10.545   0.998  0.2950  0.0042  0.0582
26245W        W39659  16.407  11.224   0.757  0.2019 -0.2294 -0.1825
26246W        W39660   6.213   8.345   0.782 -0.2127  0.1147 -0.0498
26247W        W39661   9.331   5.360  14.336 -0.0042  0.0081 -0.2409
26248W        W39662   5.216  16.333  12.224 -0.0777  0.2009  0.0341
26249W        W39663  13.628   3.042   3.186  0.0755 -0.0307  0.3391
26250W        W39664  11.345  13.542  16.415  0.1799 -0.1532  0.2778
26251W        W39665  13.538  17.936  13.008  0.1143 -0.0334 -0.0728
26252W        W39666   0.142   2.426   9.914  0.0048 -0.2693  0.3939
26253W        W39667  14.709  10.973  15.371 -0.0213 -0.0701  0.0578
26254W        W39668  13.905  10.273  16.256 -0.2816  0.0552 -0.1134
26255W        W39669   1.597   2.722   2.622  0.4672  0.0675 -0.1991
26256W        W39670  16.120  16.436  14.258 -0.0950  0.1913  0.1321
26257W        W39671  16.263   2.809   4.024  0.1663  0.0882 -0.2380
26258W        W39672  16.005   0.502  11.618  0.1393  0.4223 -0.2071
26259W        W39673  11.740   4.759  13.403  0.0866 -0.0277 -0.0289
26260W        W39674   8.344   9.022   4.500  0.0588  0.0138  0.1703
26261W        W39675  14.778  11.206  12.092 -0.4402  0.0996 -0.2922
26262W        W39676  16.931  12.167   9.906 -0.1841 -0.4204 -0.0916
26263W        W39677   2.974   2.091   4.184  0.0678  0.1677 -0.0488
26264W        W39678   8.903   1.266   4.020 -0.0472 -0.0376  0.1791
26265W        W39679   3.782  14.990  14.334 -0.2736 -0.0353  0.2665
26266W        W39680  15.685   2.410  12.157  0.0813  0.0383  0.0793
26267W        W39681   7.094  13.251  13.217 -0.0182  0.2292 -0.0991
26268W        W39682  15.255  14.335   4.877  0.2145  0.3558 -0.0207
26269W        W39683   0.491  11.820   0.162 -0.2826 -0.1700  0.2505
26270W        W39684  14.935  11.459   3.922  0.6181  0.0425  0.2108
26271W        W39685   0.605   4.920  16.349  0.1258  0.1913 -0.0579
26272W        W39686  15.601   0.255  16.124  0.0118  0.1941  0.0509
26273W        W39687  14.462   2.147   4.307 -0.1544  0.2932  0.2327
26274W        W39688   4.746   8.077  10.730 -0.2747  0.0768 -0.0433
26275W        W39689  10.521  12.792   5.054 -0.0488 -0.1015 -0.2692
26276W        W39690  14.652   9.139   3.100 -0.3059 -0.1602  0.0667
26277W        W39691  10.555  16.235   1.521  0.1076 -0.1706 -0.2258
26278W        W39692   2.682   0.878  14.822 -0.0328  0.0075 -0.0008
26279W        W39693  16.241   9.705  13.034  0.1621 -0.1177 -0.0507
26280W        W39694   8.415   7.805   3.050  0.1729 -0.0526  0.1062
26281W        W39695   1.567   7.607   3.772 -0.0411  0.0958  0.0070
26282W        W39696   6.626   9.445   6.616  0.1382 -0.2596 -0.0985
26283W        W39697   0.831  13.513  10.937  0.0777 -0.0131  0.3282
26284W        W39698  10.894   3.251  16.028  0.2546  0.0300 -0.2893
26285W        W39699   7.360   4.562  12.617 -0.0471 -0.0057  0.1000
26286W        W39700  13.285   6.536  15.198 -0.0122 -0.0127  0.0135
26287W        W39701  12.443  13.132  14.159 -0.0854  0.1315  0.1994
26288W        W39702   8.611   5.815   4.192 -0.1511 -0.2343  0.1871
26289W        W39703   9.526  10.257   0.878 -0.0298  0.1594 -0.0303
26290W        W39704   4.909   2.197  13.559  0.0079 -0.0142 -0.0551
26291W        W39705  11.740   9.950  13.468  0.2636  0.2759 -0.0342
26292W        W39706  13.394   2.412  15.424  0.1599  0.0449 -0.3100
26293W        W39707  17.940   2.083   1.889  0.2574 -0.0361 -0.1508
26294W        W39708  10.784   6.258  14.154  0.3078  0.0988  0.1296
26295W        W39709  15.178   8.991  13.676 -0.2397  0.2009 -0.1269
26296W        W39710   3.037  16.167  15.770  0.2040 -0.3119 -0.1390
26297W        W39711   1.694  16.724   0.903 -0.1767  0.1864  0.2757
26298W        W39712   4.359   1.923  12.573 -0.0067 -0.1010  0.0165
26299W        W39713   8.115   6.158   3.343 -0.1280 -0.0440  0.1936
26300W        W39714  13.288   7.503   5.146  0.1275 -0.0746 -0.0781
26301W        W39715  10.530   2.546   0.368 -0.0437 -0.0677  0.0336
26302W        W39716   5.062  17.215   3.735  0.1960  0.2896  0.0782
26303W        W39717  12.624   4.924   5.281 -0.0294  0.1998 -0.0838
26304W        W39718  12.402  15.975  14.120 -0.0472  0.1684  0.2540
26305W        W39719  12.599  16.577   6.200 -0.0555  0.1928  0.0706
26306W        W39720   8.295  10.519   1.397 -0.1481 -0.0744  0.2316
26307W        W39721  13.585   6.058   5.243 -0.2831  0.0646  0.1700
26308W        W39722  11.465   3.038  14.175  0.1451 -0.2001 -0.1366
26309W        W39723  14.117   8.540   0.591  0.3736 -0.1162 -0.0418
26310W        W39724   0.459  16.417   4.211 -0.0392 -0.1303  0.1916
26311W        W39725   8.680  18.002  12.414 -0.1088  0.0165  0.0496
26312W        W39726   3.512  16.081  13.329  0.0569 -0.0225  0.2305
26313W        W39727  12.631   8.879  11.718  0.2636  0.0421 -0.0647
26314W        W39728   7.793   5.321   4.978 -0.0553  0.1622  0.0182
26315W        W39729  17.337   2.618   0.551 -0.0975  0.0196  0.2208
26316W        W39730   7.381  16.267  14.561 -0.1973  0.0849  0.0995
26317W        W39731   8.881   0.763  12.724  0.4336 -0.3020 -0.2305
26318W        W39732  15.709   4.169  11.576  0.0532 -0.0101  0.0786
26319W        W39733   9.585   6.887  11.899  0.1330  0.1344 -0.1226
26320W        W39734   6.660   9.635   3.261 -0.0245 -0.0325 -0.0563
26321W        W39735   5.273   0.527   2.321  0.0528 -0.2924  0.0407
26322W        W39736   9.318  15.961  16.265 -0.0625 -0.1433 -0.1057
26323W        W39737   7.044   5.498  12.668  0.2439  0.0379  0.0738
26324W        W39738   2.631  14.293  12.817 -0.2161 -0.0713  0.3775
26325W        W39739   1.085   8.097  15.753  0.0903  0.2546 -0.2085
26326W        W39740   8.533   7.679  11.382  0.1721  0.0257 -0.1992
26327W        W39741  12.212   5.672   3.298  0.1049 -0.3376 -0.2413
26328W        W39742  13.896   8.184  12.444  0.2333 -0.2685  0.0350
26329W        W39743  13.207  11.563   4.544  0.1050 -0.1873 -0.1600
26330W        W39744   6.346  10.259   0.375  0.3543  0.1566  0.1466
26331W        W39745  11.406  10.658   5.182  0.1485 -0.2103 -0.3127
26332W        W39746   5.246  13.436  11.680 -0.2458 -0.0895  0.4028
26333W        W39747  11.996  15.585  11.753 -0.1716  0.0792  0.2634
26334W        W39748   5.405   4.372   4.509 -0.2852 -0.0742 -0.2163
26335W        W39749   8.225   1.491  11.126 -0.1181  0.1586 -0.0215
26336W        W39750  12.140   6.418   0.057  0.2725  0.0872 -0.4033
26337W        W39751   9.386   1.671  11.708 -0.0305  0.0864  0.1075
26338W        W39752  17.612   9.536  12.902 -0.0559  0.0663 -0.1889
26339W        W39753   7.256   9.977   0.559  0.1843  0.0483 -0.3308
26340W        W39754  10.777  17.409   3.886 -0.2101 -0.0219 -0.0014
26341W        W39755   3.215   1.174   2.158 -0.0553  0.0977  0.1796
26342W        W39756  12.949  10.012  14.011  0.1372 -0.0619  0.1690
26343W        W39757   4.410   6.705   1.280 -0.3482  0.2806  0.0903
26344W        W39758   4.560   0.555   3.874 -0.2035  0.0612  0.0563
26345W        W39759   4.661   4.925  16.100 -0.2022  0.2542  0.0127
26346W        W39760  13.470  12.657  15.087  0.0975 -0.1826 -0.0446
26347W        W39761   0.289  16.344   5.050  0.3807  0.4726  0.1300
26348W        W39762  10.992   2.866   4.017 -0.2000  0.2937 -0.0231
26349W        W39763  13.700   9.993   3.414  0.0674  0.1550  0.2870
26350W        W39764   7.357   2.823   5.406  0.1007 -0.2427 -0.1371
26351W        W39765   9.518  11.736   6.645  0.0678  0.0513 -0.1159
26352W        W39766   2.267  11.370  16.189 -0.3373  0.2410  0.3639
26353W        W39767   0.759   8.065  12.543  0.1927 -0.1473 -0.1487
26354W        W39768  12.729   9.003   4.112  0.0992  0.2650 -0.3483
26355W        W39769  17.908  17.497   1.777  0.1759  0.0581 -0.0621
26356W        W39770  15.729   9.510  12.761 -0.2970 -0.0761  0.1858
26357W        W39771  17.046   8.077   1.786  0.0860  0.0944 -0.1153
26358W        W39772  12.652  15.281   6.950 -0.1446  0.0978  0.0576
26359W        W39773  16.638  11.767   3.972  0.1429 -0.1173  0.1698
26360W        W39774  17.045   8.658   6.273  0.0790 -0.0429  0.1341
26361W        W39775   7.623   4.984   6.039 -0.0781 -0.0531 -0.0995
26362W        W39776  15.201  12.833   5.884  0.2330  0.0393 -0.0186
26363W        W39777   5.123  16.479  16.706 -0.2120 -0.0353  0.3626
26364W        W39778   7.312  10.002   3.256 -0.1283  0.1260  0.2043
26365W        W39779   3.149  12.271  13.191 -0.2375 -0.1157  0.2133
26366W        W39780   5.754  17.489   3.320 -0.2054  0.1860  0.0243
26367W        W39781   8.477  10.029   2.172 -0.0760 -0.1427  0.0717
26368W        W39782   6.473   5.125  11.777  0.2132  0.0413  0.0213
26369W        W39783   6.131   8.787   3.315 -0.2505  0.2030  0.1208
26370W        W39784   6.012  13.979  15.081 -0.1573 -0.1205 -0.0409
26371W        W39785  12.950  15.804   5.291  0.1144  0.0989  0.0817
26372W        W39786  10.402   8.589  13.964 -0.0330 -0.0102 -0.4625
26373W        W39787   6.766  14.643  12.827 -0.1874  0.1224 -0.2586
26374W        W39788  12.233  15.913  13.478  0.0321  0.0431 -0.0234
26375W        W39789   6.297   2.421   3.784  0.1904 -0.0048 -0.1815
26376W        W39790  13.349   4.335  15.652  0.4579  0.1281  0.3136
26377W        W39791   1.977  16.356  15.840 -0.1695 -0.1588 -0.0525
26378W        W39792   8.956  12.530  12.921 -0.1587 -0.0793  0.1592
26379W        W39793   4.225   7.499   0.947 -0.0365  0.0796 -0.1385
26380W        W39794   6.975   0.521   4.338  0.1651 -0.0710 -0.1300
26381W        W39795   4.944   4.157  16.415 -0.2121 -0.0097 -0.0065
26382W        W39796   4.284   7.941   6.016  0.2529  0.3166  0.1622
26383W        W39797   0.309   2.434   5.452 -0.1255 -0.0342  0.1805
26384W        W39798  16.246   9.840   0.791  0.0252 -0.1724  0.0371
26385W        W39799  16.520   4.672  13.050  0.2836 -0.2214  0.1022
26386W        W39800  10.483  15.160  12.419 -0.2759 -0.3581 -0.0325
26387W        W39801   0.264   5.724  11.127 -0.0292  0.0553  0.2150
26388W        W39802   2.464  17.541   1.595  0.0875  0.0930 -0.0533
26389W        W39803  17.670  17.563  12.684 -0.0430  0.0166  0.1079
26390W        W39804  14.901  11.227   3.367  0.2583  0.0463 -0.1667
26391W        W39805   6.930  14.270  10.912 -0.1980  0.0500 -0.2628
26392W        W39806  14.749  10.429   1.504  0.1664 -0.1231 -0.0120
26393W        W39807  16.885   9.872   0.644  0.0051  0.0249 -0.3014
26394W        W39808  11.294  11.852   5.457 -0.2991  0.4123  0.1080
26395W        W39809   8.294  12.119  16.270  0.1010  0.0638 -0.0643
26396W        W39810   8.808  12.233   2.173  0.0208 -0.0618  0.1956
26397W        W39811   8.101  13.658  15.681 -0.1763 -0.2086 -0.1246
26398W        W39812  17.645   5.875  12.733  0.1828  0.0063 -0.1418
26399W        W39813   0.238   3.637  11.861  0.0573 -0.0602  0.4463
26400W        W39814  11.002  16.077   6.350  0.0246 -0.0565 -0.2307
26401W        W39815   0.400  10.873   0.906 -0.0731 -0.0627  0.1166
26402W        W39816  14.539   2.040  12.521 -0.2000 -0.0257  0.1279
26403W        W39817   5.843   8.645   4.171  0.2549 -0.1114  0.1038
26404W        W39818  14.515  11.547   2.214  0.0314 -0.0464  0.1139
26405W        W39819  13.114  16.725   2.414 -0.1124 -0.0170 -0.0214
26406W        W39820   0.193   6.931   0.088 -0.2793  0.0014 -0.0748
26407W        W39821   5.640   0.718  14.057  0.2534  0.2615  0.1498
26408W        W39822  16.789   9.200  14.467  0.1541 -0.2802 -0.1112
26409W        W39823   8.165   3.065  12.899 -0.0370  0.0151  0.1815
26410W        W39824  13.027   8.948   4.568 -0.0413 -0.0076 -0.0632
26411W        W39825   4.644  16.958  13.267 -0.2723 -0.2549  0.3556
26412W        W39826  17.191   0.530   1.256 -0.0824 -0.2781 -0.0521
26413W        W39827  11.915   2.247   3.107 -0.1787 -0.2099  0.0796
26414W        W39828   0.397   7.916  14.866  0.2452 -0.1610  0.0386
26415W        W39829   8.228   5.303  15.605  0.3402 -0.0499  0.0217
26416W        W39830  14.033   2.439  16.660  0.1866 -0.2037 -0.0019
26417W        W39831  10.863   4.639   3.184  0.0595  0.0448  0.0475
26418W        W39832  15.894  14.025  15.166 -0.3214 -0.2180 -0.0341
26419W        W39833   3.911   4.912   5.940  0.1106 -0.0181  0.3129
26420W        W39834  14.199   5.552   3.967  0.0842  0.0141  0.2374
26421W        W39835   5.585   9.178  16.472  0.0508 -0.5435 -0.0809
26422W        W39836  13.201   5.614   4.938 -0.0189 -0.1806 -0.1377
26423W        W39837   7.420   8.137  16.767  0.0111 -0.2930 -0.1350
26424W        W39838   2.199  15.971  14.435 -0.0024  0.2575  0.1809
26425W        W39839   0.134   3.645  15.581 -0.2103  0.0006  0.1165
26426W        W39840   1.762  15.997   5.446 -0.0671  0.1742  0.4701
26427W        W39841  17.905  14.912   3.732  0.1154  0.1130 -0.0816
26428W        W39842   4.130  13.116   1.851 -0.0244  0.1043 -0.1450
26429W        W39843   9.873   2.325   1.475  0.0266  0.1392 -0.1482
26430W        W39844   8.318   5.238  13.498 -0.0511 -0.0363  0.5036
26431W        W39845   7.298  14.080  11.136 -0.0564  0.1543  0.2429
26432W        W39846   9.077  12.484   1.074 -0.0106  0.0258 -0.1422
26433W        W39847  16.639  16.952   3.631 -0.1613  0.2414 -0.3560
26434W        W39848  10.166  14.025   5.107  0.0361  0.0638  0.0917
26435W        W39849   1.081   6.742   3.376 -0.3756 -0.1375 -0.0164
26436W        W39850  11.483  11.279  16.460  0.1662  0.0349  0.2574
26437W        W39851   2.436   6.383   1.086 -0.0345 -0.2456 -0.0875
26438W        W39852  16.536   6.705   0.862 -0.0003 -0.2454  0.0302
26439W        W39853  15.922  15.591   2.807 -0.3218  0.2309 -0.0983
26440W        W39854  14.102   9.712   5.322 -0.1852  0.2058  0.0635
26441W        W39855  11.515  14.850   3.091 -0.0585  0.0153  0.3732
26442W        W39856  10.180  17.314   5.721  0.2096  0.2007  0.1869
26443W        W39857  14.007  17.249  11.927  0.1370 -0.0946  0.0566
26444W        W39858  11.717   1.112   5.983 -0.3796  0.0132  0.2203
26445W        W39859   0.595  15.215   0.873  0.0761 -0.2399 -0.1583
26446W        W39860   1.797   2.421  15.458  0.2047  0.0095  0.0124
26447W        W39861   7.676   8.681   6.893  0.0935  0.0854 -0.0661
26448W        W39862  16.472   5.344  11.499  0.0304 -0.1073 -0.0862
26449W        W39863  17.293   5.222   1.113  0.1020  0.2958  0.1220
26450W        W39864   2.578   6.797  12.958  0.1594  0.3497 -0.2517
26451W        W39865   7.281   7.011  11.535 -0.0311 -0.0255  0.1994
26452W        W39866  10.941  13.366  12.188 -0.0658 -0.1685 -0.1430
26453W        W39867   9.937  10.946  10.692 -0.1802 -0.1526  0.2514
26454W        W39868  10.314  17.011  14.085 -0.1111  0.0698 -0.0305
26455W        W39869  11.380   4.829  14.773  0.0019 -0.2492 -0.2727
26456W        W39870   7.352   6.384   0.518 -0.2365 -0.2260  0.3611
26457W        W39871   2.634   6.975  14.211  0.0339  0.1661 -0.3731
26458W        W39872  15.204  15.550   1.157 -0.0512 -0.0901  0.1086
26459W        W39873   5.960  10.200   5.002  0.0523  0.2500  0.0942
26460W        W39874   8.344  17.051   4.208 -0.0344  0.0755 -0.2135
26461W        W39875  13.708  10.326   4.650 -0.3155  0.0459 -0.0526
26462W        W39876   2.190   3.505  15.223  0.1366  0.4553  0.2510
26463W        W39877  10.247   6.899   1.661  0.1378 -0.0416 -0.0040
26464W        W39878   8.537   2.246  14.046 -0.1993 -0.0043 -0.0939
26465W        W39879   4.563   8.925   3.610  0.1335 -0.0292  0.1786
26466W        W39880   8.151   1.275  13.477 -0.2808  0.0030  0.1199
26467W        W39881  10.550   7.784  12.666  0.0543  0.0428 -0.0027
26468W        W39882   1.213   9.321  16.235 -0.1267 -0.1258 -0.1093
26469W        W39883  16.583   9.284   2.567  0.0701  0.2413  0.2532
26470W        W39884  16.673   9.799   5.597  0.1322 -0.0577  0.0586
26471W        W39885   3.559   4.521   2.851 -0.0850 -0.2909  0.1257
26472W        W39886   0.094  10.748  14.095  0.0358  0.0342 -0.0126
26473W        W39887   2.179   7.115   3.190 -0.0401  0.1073  0.3567
26474W        W39888   8.294  14.261  13.578  0.3173  0.0001 -0.0865
26475W        W39889   4.680  13.604  12.036  0.2067  0.0484 -0.3831
26476W        W39890   8.847   3.215  11.758  0.0976  0.0160  0.0808
26477W        W39891  14.996   9.924   5.347  0.2862  0.2280  0.1384
26478W        W39892   4.613   9.993  15.586 -0.0895  0.0166 -0.1646
26479W        W39893  17.280  12.254  12.610  0.2035  0.5785  0.2724
26480W        W39894   5.233  10.935   0.657  0.2242 -0.0827 -0.0341
26481W        W39895  13.800  12.330   4.814  0.0841 -0.1186 -0.3513
26482W        W39896  11.425   7.924  11.039  0.2920 -0.0854 -0.0180
26483W        W39897  13.059  13.707   6.427  0.0070  0.0528 -0.2338
26484W        W39898   2.613  13.483  10.657  0.1360  0.0281 -0.1933
26485W        W39899  10.990   0.091   3.597 -0.1215  0.1026 -0.0733
26486W        W39900  13.528   8.882   4.744 -0.1662 -0.2288 -0.2367
26487W        W39901   8.728  13.461  16.281 -0.0127  0.0380  0.2105
26488W        W39902  17.619  16.257   0.531 -0.0858 -0.0740 -0.1072
26489W        W39903  11.876   2.136  11.438 -0.1790  0.0955  0.1146
26490W        W39904  11.079   4.464   3.919  0.0921  0.0343  0.1712
26491W        W39905  13.635   8.850   3.004  0.0120 -0.0824  0.0022
26492W        W39906  12.232   2.858  11.903  0.3581 -0.2381  0.0140
26493W        W39907   7.753  11.939  13.072  0.0833  0.0845  0.3280
26494W        W39908  13.911  10.652   1.825 -0.0105  0.0892 -0.2510
26495W        W39909  10.556   8.051  12.204  0.3765 -0.0454  0.2701
26496W        W39910  10.872   6.287   5.688 -0.0262 -0.1378 -0.0093
26497W        W39911   3.517  15.478   1.463 -0.1564  0.1718  0.3579
26498W        W39912   6.139   4.774   4.073 -0.1840 -0.0854  0.1027
26499W        W39913   8.678   8.634   5.991  0.2137 -0.2589 -0.0424
26500W        W39914  15.863   4.646  11.346 -0.3586 -0.0036 -0.1286
26501W        W39915   1.540   6.025  15.784 -0.2814  0.0482 -0.2067
26502W        W39916   5.570   8.018   0.320  0.1044 -0.0963  0.4366
26503W        W39917  16.098  16.173   5.722 -0.0411 -0.1844  0.0341
26504W        W39918  11.150   3.681  15.367  0.0740 -0.5834  0.2020
26505W        W39919  10.724  11.852  12.463  0.1628 -0.1538  0.0254
26506W        W39920   2.321  10.344   2.510 -0.0548 -0.0296  0.0762
26507W        W39921   1.904   9.858   0.613 -0.0485 -0.1636  0.0778
26508W        W39922  11.322   3.604   2.776  0.0165  0.0009  0.1384
26509W        W39923  14.708   8.538   1.846  0.0225 -0.0677 -0.0258
26510W        W39924   8.986   9.871   0.285 -0.0108 -0.2473 -0.0710
26511W        W39925   6.409  14.420  16.593 -0.2076  0.0496  0.1372
26512W        W39926  14.312  12.536  13.191 -0.2009 -0.1261 -0.0638
26513W        W39927   4.146   8.703   1.500 -0.2255 -0.3115  0.1044
26514W        W39928   6.095   0.576   0.622  0.3921 -0.0692  0.2200
26515W        W39929   8.092   7.493  16.374 -0.1101 -0.1667 -0.4025
26516W        W39930  13.441   8.472   1.044  0.0075 -0.2639 -0.0473
26517W        W39931  15.569  12.043  16.469  0.2962 -0.0060  0.2567
26518W        W39932  13.050   0.317  15.114  0.1151 -0.0314 -0.2428
26519W        W39933   5.816   8.544  12.464 -0.1854  0.0519 -0.1012
26520W        W39934   9.731  14.488  12.245 -0.0656 -0.2103 -0.2571
26521W        W39935   9.158  11.295   0.370  0.0805 -0.1101  0.0673
26522W        W39936   6.750  12.019  16.751 -0.1174 -0.0301 -0.2879
26523W        W39937   2.913  14.268   0.939 -0.0984 -0.3915 -0.0669
26524W        W39938  17.429   6.017   5.248 -0.0604  0.1215 -0.3854
26525W        W39939   0.673  11.674   1.437 -0.0446 -0.1709 -0.0052
26526W        W39940   2.794  15.450   2.738 -0.0016 -0.0054 -0.2122
26527W        W39941  16.574  16.774   5.095 -0.1212 -0.0823  0.0465
26528W        W39942  14.033   6.963   6.045  0.0569  0.1681  0.2851
26529W        W39943   7.838   1.788   0.543  0.0849 -0.1054  0.0101
26530W        W39944   4.887  16.220  13.887  0.0408 -0.2248  0.1903
26531W        W39945   0.714  13.916  10.630  0.0821  0.0662 -0.2407
26532W        W39946   3.316  12.236  12.311  0.3624  0.2317 -0.0534
26533W        W39947  12.993  13.212  15.844  0.1292 -0.0981 -0.3441
26534W        W39948   6.829   6.004   1.068 -0.3096 -0.0881  0.0936
26535W        W39949  16.053  15.283  13.876 -0.3640  0.2646 -0.1864
26536W        W39950   0.791   2.021   4.132 -0.1199 -0.0147  0.0164
26537W        W39951  15.691  14.197   3.200  0.0544 -0.0780 -0.1621
26538W        W39952   4.287   2.440  11.129  0.1305 -0.0868 -0.0201
26539W        W39953   2.590   8.330  11.438  0.1375 -0.1432  0.2057
26540W        W39954   4.805   0.599  12.017  0.1344  0.0445 -0.3371
26541W        W39955  12.025   1.756   4.886  0.1126  0.0836  0.0462
26542W        W39956   8.753   8.217  11.861  0.1705 -0.0901  0.1747
26543W        W39957   4.063   5.121   2.085 -0.0973  0.0529  0.0001
26544W        W39958   4.832  14.160   0.303 -0.1435  0.0541  0.1502
26545W        W39959  12.645  17.516   6.476  0.0160 -0.1480 -0.1233
26546W        W39960  16.437   7.314   5.920 -0.1672  0.2714  0.3389
26547W        W39961  11.805  12.564  12.792  0.1120 -0.1822 -0.0727
26548W        W39962  15.679   7.802   3.766  0.2799  0.1336  0.2883
26549W        W39963   6.677  16.539   2.213 -0.0472 -0.2212  0.0691
26550W        W39964   2.900  10.132   5.864  0.0261 -0.4078 -0.1385
26551W        W39965  10.264   2.711  16.546  0.0372  0.0387  0.2919
26552W        W39966   5.552   2.294  14.416  0.1056 -0.1233  0.0309
26553W        W39967   8.448   0.580   1.395  0.3459 -0.0461 -0.2568
26554W        W39968   9.694  17.907   2.225 -0.0257  0.2043  0.1173
26555W        W39969  16.232   4.396  11.819 -0.0164  0.1418  0.0167
26556W        W39970  14.264   3.508   4.075 -0.0353 -0.0329  0.1363
26557W        W39971  15.461   3.775  13.806  0.0654 -0.0060 -0.1024
26558W        W39972  17.935   1.629  11.024 -0.2482 -0.0331 -0.0974
26559W        W39973  10.511  14.802   4.551  0.0148  0.0754  0.0169
26560W        W39974   6.352   2.555   2.395  0.1145 -0.2796  0.1415
26561W        W39975  14.421   0.800   5.790 -0.3261  0.2399 -0.3230
26562W        W39976  11.927   5.684  11.708 -0.1053  0.1788  0.2706
26563W        W39977   2.492  12.780   5.933 -0.0025  0.1523  0.1939
26564W        W39978   8.606  10.441  11.506  0.0124  0.2788  0.0308
26565W        W39979   3.502   7.468  15.129  0.3221  0.0047 -0.0902
26566W        W39980   4.316  10.242   5.826 -0.2095  0.1072 -0.2218
26567W        W39981   0.311  16.574  15.171  0.3414 -0.2187 -0.1066
26568W        W39982   4.152   8.274   1.835  0.1987  0.1218 -0.0976
26569W        W39983  12.461   5.044  15.737  0.1824 -0.4066 -0.4250
26570W        W39984   9.820  12.935   5.890  0.0372  0.0070 -0.0838
26571W        W39985   8.430   8.004   3.482 -0.1793  0.1004  0.3418
26572W        W39986   8.136  17.226   5.566 -0.0096  0.0020  0.0086
26573W        W39987   0.732   6.437   4.993 -0.0370  0.3216 -0.1546
26574W        W39988  10.640   2.978  15.271  0.0672 -0.0151 -0.0448
26575W        W39989   5.332   8.354   5.087 -0.1281 -0.1761 -0.2310
26576W        W39990   1.720   6.409   2.768 -0.0262 -0.1220 -0.0008
26577W        W39991  13.483  12.122  12.753 -0.3394  0.0748  0.1338
26578W        W39992  12.864   6.457   3.303  0.0321 -0.0454  0.0748
26579W        W39993  13.062  11.903  12.912 -0.0916  0.2991  0.1539
26580W        W39994   0.616  10.878  15.970 -0.1430 -0.1477  0.0311
26581W        W39995   9.705   9.388   0.974  0.0126  0.1906  0.1852
26582W        W39996   1.410  15.972  16.072 -0.3024 -0.2389 -0.0247
26583W        W39997   6.280  11.485  12.014  0.2328  0.1624  0.0079
26584W        W39998   6.368  11.779  15.119  0.1880  0.0129  0.0762
26585W        W39999   7.491   4.455   5.241 -0.1773 -0.1740  0.0176
26586W        W40000   3.270  10.301  14.849  0.0060  0.1440  0.1673
26587W        W40001   1.634  17.643  16.112  0.1811  0.1877 -0.0363
26588W        W40002  13.972   1.968   0.176 -0.1170  0.1060  0.1897
26589W        W40003  15.362  16.090  11.196 -0.1891 -0.3075 -0.0400
26590W        W40004   6.459   1.084  15.925  0.2307 -0.2812 -0.1749
26591W        W40005  14.857  16.403  16.020  0.1186  0.2576 -0.0859
26592W        W40006  13.404   6.466  16.552 -0.0525 -0.4066  0.2381
26593W        W40007   5.325   3.225  14.285  0.0729 -0.0771  0.2591
26594W        W40008   8.721   0.449  13.099  0.1580  0.0769  0.2294
26595W        W40009   1.618   0.278   2.519  0.0222  0.4750 -0.0360
26596W        W40010  14.896   0.225   4.353 -0.0715 -0.0446 -0.0735
26597W        W40011  17.570  17.618  10.336 -0.1355  0.1673  0.3961
26598W        W40012   7.203   0.454   0.449 -0.1876  0.1035 -0.1448
26599W        W40013  12.764  14.994   4.792 -0.0456 -0.0381 -0.1138
26600W        W40014  10.822   7.882   3.182 -0.0820 -0.0554  0.0934
26601W        W40015   2.829  15.276  14.574  0.1872 -0.0439  0.0389
26602W        W40016   7.110  16.644  10.893 -0.1097  0.1255 -0.1675
26603W        W40017  11.874  12.762   0.195  0.1961  0.2084 -0.2313
26604W        W40018  11.814  17.116   2.928 -0.0453 -0.1608 -0.2191
26605W        W40019   2.198   4.856   6.352 -0.0647 -0.1988 -0.0421
26606W        W40020  16.442  15.307  13.485  0.0615 -0.2024 -0.2481
26607W        W40021  14.541   3.436  10.069 -0.0410  0.0307 -0.1844
26608W        W40022   5.633  11.152   0.210  0.1482 -0.0236  0.1080
26609W        W40023  11.647  13.950  13.191 -0.2103 -0.3523 -0.1265
26610W        W40024   6.098  14.129   1.047 -0.2200  0.0767  0.3432
26611W        W40025   6.459  15.096  11.036  0.2122  0.0839 -0.3624
26612W        W40026  11.228   0.965   0.038  0.3621 -0.0504  0.0513
26613W        W40027   9.233  15.934  15.694 -0.3128  0.0054 -0.0592
26614W        W40028  16.397  10.721   5.499  0.2867 -0.0316 -0.2673
26615W        W40029  14.824   0.737   4.388  0.2237 -0.0153  0.1817
26616W        W40030   8.539   0.079  15.792  0.1089  0.2125 -0.0094
26617W        W40031   4.327  15.622   4.794 -0.1496 -0.1019 -0.2516
26618W        W40032   5.939   9.803  12.005 -0.1444  0.2762  0.0924
26619W        W40033   1.875   1.326   2.293 -0.0199  0.1051 -0.1706
26620W        W40034  11.997   8.239  15.617  0.2160 -0.3637 -0.2435
26621W        W40035   2.652   2.532   4.891  0.0528  0.0905  0.3915
26622W        W40036  10.525   2.182  16.364 -0.0456 -0.0922  0.0399
26623W        W40037  11.513  17.124  13.377  0.0102 -0.0025 -0.1152
26624W        W40038   4.301  17.388  15.906 -0.1212 -0.5725 -0.2805
26625W        W40039  12.858   7.249   0.202  0.3037  0.2984 -0.0252
26626W        W40040   3.774   4.808  11.953 -0.2437 -0.2851  0.1417
26627W        W40041   5.389   8.821  13.802 -0.2281  0.1199  0.1155
26628W        W40042   9.071  14.320  13.138 -0.1841  0.0738  0.2244
26629W        W40043   0.169  16.253  14.517  0.0304  0.1184  0.3629
26630W        W40044  11.326  17.234  15.608  0.0882  0.0425  0.2628
26631W        W40045   1.116  10.306  11.135 -0.2477  0.1123  0.1774
26632W        W40046   7.774   6.981  16.332 -0.0869 -0.1067 -0.0450
26633W        W40047   6.845   7.544   1.502  0.2230  0.0723  0.1570
26634W        W40048   0.045  10.315  15.325  0.0390 -0.1104  0.1435
26635W        W40049  13.456  10.087   4.265  0.0155  0.0099  0.2352
26636W        W40050   6.659   6.969  12.705 -0.0763 -0.1233  0.1170
26637W        W40051  12.499  13.065   3.785  0.0535  0.2612 -0.4934
26638W        W40052   0.898  15.068  11.728  0.0136 -0.0731  0.1550
26639W        W40053  15.020  14.982   3.218  0.1484 -0.0481  0.0308
26640W        W40054  14.793   6.841   5.479  0.0451  0.0196  0.2902
26641W        W40055  12.860   9.408  11.653  0.1296 -0.0720 -0.0881
26642W        W40056  11.721   2.226  15.420  0.0928 -0.1352  0.3169
26643W        W40057   7.970   1.407   5.602  0.0230  0.1797  0.0269
26644W        W40058   3.973  14.241   5.973  0.0503 -0.0088 -0.1013
26645W        W40059  16.035   3.873  11.937  0.0364 -0.0333  0.3211
26646W        W40060  16.132   1.509   3.973 -0.2582  0.0121  0.0794
26647W        W40061   4.581   2.496  15.389 -0.0783 -0.1607 -0.1420
26648W        W40062  17.976   8.505  14.951  0.0020  0.1899 -0.1725
26649W        W40063  17.318   2.205   2.579 -0.2006 -0.0171 -0.0037
26650W        W40064   3.460  16.232   1.356  0.1121  0.0934  0.0927
26651W        W40065   6.262   6.979  11.634  0.0988  0.2532  0.1003
26652W        W40066  16.153   2.134  12.094 -0.3136  0.2424 -0.1003
26653W        W40067   1.388  10.676  15.053  0.1725  0.1995 -0.4201
26654W        W40068   8.516  16.155  11.622 -0.0031 -0.0719 -0.1361
26655W        W40069  11.268  12.108   1.463  0.0396  0.3342  0.2936
26656W        W40070   9.998   7.754   3.555 -0.0759  0.1816  0.2914
26657W        W40071   1.663   2.205   1.038  0.1904 -0.2799  0.0108
26658W        W40072  14.608  12.790  14.376  0.0965 -0.1615 -0.1149
26659W        W40073  12.794  10.478   5.437  0.0331  0.0645  0.1087
26660W        W40074   6.755   8.335   0.881 -0.0354 -0.1320 -0.1106
26661W        W40075   3.530   6.468   5.383  0.1859 -0.0429 -0.0569
26662W        W40076   7.789  14.239  13.425 -0.2015  0.3057 -0.0755
26663W        W40077  12.080  17.466   1.677  0.1070 -0.3069  0.1078
26664W        W40078  13.155   3.119  12.171  0.1708  0.3335  0.2467
26665W        W40079   6.279   1.918  11.926 -0.0855 -0.1639  0.0519
26666W        W40080   9.691   8.562   3.204 -0.0164  0.1295 -0.1250
26667W        W40081  10.927   3.977   2.550 -0.0511  0.1664  0.0758
26668W        W40082  17.561  15.318   5.782 -0.1329  0.1805  0.0008
26669W        W40083   0.013  15.543  11.951  0.2958  0.0700 -0.2722
26670W        W40084   5.202   3.708   4.671  0.3192  0.2295 -0.2093
26671W        W40085  10.678   1.915  15.579 -0.1593  0.1277  0.0883
26672W        W40086   7.039  11.244   1.347 -0.1478  0.2838 -0.1030
26673W        W40087  13.250   3.917   2.735  0.0574  0.1780 -0.0458
26674W        W40088   0.921  16.771   4.093  0.0552  0.2819 -0.0094
26675W        W40089   7.507  15.038   4.896  0.2146 -0.0592  0.2384
26676W        W40090   7.402  15.746  14.914 -0.1540 -0.0873  0.1027
26677W        W40091  12.466  14.394   1.764 -0.0944 -0.1779  0.0981
26678W        W40092   1.561  16.315   2.796 -0.1852 -0.3075  0.2737
26679W        W40093   8.606  14.039  14.948  0.3382 -0.2242  0.1063
26680W        W40094   1.305  13.327   4.898 -0.1703  0.1079 -0.2094
26681W        W40095  11.887  12.572  15.670 -0.2623 -0.0491  0.2143
26682W        W40096  14.122   1.822   1.476  0.0140 -0.1304  0.3317
26683W        W40097  14.245  11.805  11.486 -0.0067  0.1432  0.3489
26684W        W40098  15.387  11.273   3.437 -0.0564 -0.1110 -0.1078
26685W        W40099  13.646   0.025  11.836  0.0561  0.2551  0.2138
26686W        W40100   9.538  17.300   0.422 -0.0374 -0.1007 -0.0012
26687W        W40101  11.336  14.594   1.012  0.2729 -0.0434 -0.0048
26688W        W40102  15.747  13.971   1.228  0.0943  0.1611 -0.0949
26689W        W40103   5.576   0.454  13.022  0.0510 -0.1328  0.1815
26690W        W40104   5.097   1.400  11.377 -0.3234 -0.0720 -0.1190
26691W        W40105  15.186   0.914  16.346  0.0867 -0.0273  0.2487
26692W        W40106  15.142   6.456   4.653  0.0947  0.0213  0.0387
26693W        W40107   2.103   9.815   4.143 -0.1873  0.2308 -0.0819
26694W        W40108  16.560   5.241   4.323 -0.2804 -0.0035 -0.3061
26695W        W40109  11.615   6.161   1.699 -0.2228  0.2107 -0.3003
26696W        W40110   5.594  10.561  14.846 -0.1164 -0.0446 -0.0269
26697W        W40111  15.172  17.605   3.698  0.2979  0.2885 -0.2369
26698W        W40112   1.276   4.584   5.703 -0.0771  0.1017  0.4699
26699W        W40113   5.590  10.682   5.261 -0.0823 -0.0615 -0.0363
26700W        W40114   0.454   0.257   0.367 -0.0672 -0.2485 -0.2011
26701W        W40115  12.970  11.244  12.879  0.2336 -0.3464  0.0466
26702W        W40116  14.063  15.707  13.165 -0.0946  0.1717 -0.1796
26703W        W40117   5.311  13.996   0.105  0.1304  0.0547  0.2607
26704W        W40118   0.798   8.279   5.938  0.0131  0.1709  0.1386
26705W        W40119  17.743  12.717  14.764 -0.1718 -0.0428 -0.0092
26706W        W40120   7.557   1.909  10.264  0.2827  0.1399 -0.0526
26707W        W40121   3.916  17.371  10.468 -0.0957  0.3776  0.0761
26708W        W40122  14.895  10.041   1.207 -0.1813  0.0964 -0.0153
26709W        W40123   7.967  11.771  16.003 -0.0235  0.1838 -0.0569
26710W        W40124   0.238  15.609  10.626 -0.0077  0.1870 -0.1183
26711W        W40125  17.104   5.737  16.206 -0.2288 -0.2571  0.1780
26712W        W40126   7.246   8.603  15.063  0.0062  0.1537 -0.0803
26713W        W40127   6.079   8.147  14.003 -0.1597  0.2077  0.0031
26714W        W40128   8.341   1.751  13.361  0.0370 -0.0542  0.0484
26715W        W40129   8.113  10.301   0.746  0.0621  0.0277  0.1005
26716W        W40130  12.674   3.277  15.417  0.1042  0.0299 -0.1173
26717W        W40131   2.575  11.280  10.904  0.0469 -0.3844  0.2786
26718W        W40132   2.080   1.634   2.713 -0.1512  0.0361 -0.0509
26719W        W40133  13.629   2.141   0.496  0.0584 -0.3322 -0.0845
26720W        W40134   7.982  14.377   1.062 -0.1177 -0.0313 -0.1096
26721W        W40135  12.549  17.594  11.445  0.0846  0.4446 -0.2930
26722W        W40136   1.571   9.833  14.591  0.0525  0.0110  0.0125
26723W        W40137  10.269   9.003   0.538 -0.1283  0.0056 -0.2108
26724W        W40138   3.327   4.112  14.132 -0.0531  0.0913  0.0033
26725W        W40139   3.351   2.462  12.750 -0.0406  0.0567  0.1257
26726W        W40140  16.817   5.142  11.166 -0.0083  0.1183  0.0675
26727W        W40141  13.047   6.450   6.014 -0.0730  0.0319  0.1100
26728W        W40142  17.457   3.842   1.515 -0.0641 -0.3157 -0.1690
26729W        W40143  17.156   4.179   5.417 -0.1842  0.0733 -0.4538
26730W        W40144   9.012  13.176  14.796  0.1993  0.1399 -0.1756
26731W        W40145   4.404   8.694  14.343 -0.0967 -0.2064 -0.0541
26732W        W40146  13.463   5.203  15.724  0.2092 -0.0035  0.3024
26733W        W40147  12.085   6.393  11.497 -0.0441 -0.0389  0.0166
26734W        W40148  12.123   1.633   1.574 -0.2265  0.1226 -0.3736
26735W        W40149  17.406  17.595  11.299 -0.0510 -0.0996  0.1006
26736W        W40150   3.324  14.333   5.076 -0.0841  0.3584 -0.1382
26737W        W40151  14.103  12.741  12.163 -0.2090 -0.0430 -0.0185
26738W        W40152  10.970   8.884  11.333 -0.0190  0.0631 -0.0452
26739W        W40153  12.189   9.692  13.542 -0.1870  0.1745  0.3005
26740W        W40154   2.389  12.566   0.915  0.2354  0.0278 -0.0971
26741W        W40155   7.008   8.650   2.143  0.1019  0.2813 -0.1005
26742W        W40156   4.999  13.576  13.141 -0.2788 -0.0372  0.3522
26743W        W40157  13.370   0.365  13.561  0.1201  0.1657 -0.2771
26744W        W40158  17.746  15.774   3.472 -0.1377 -0.0913 -0.1310
26745W        W40159   0.813   3.366   4.538 -0.0506 -0.3005 -0.3791
26746W        W40160  16.998   2.444  11.120 -0.0473  0.0212  0.0445
26747W        W40161   1.170  14.238  13.214 -0.0826  0.0248 -0.1011
26748W        W40162  15.633  14.436  12.102  0.1418  0.3718  0.0643
26749W        W40163  12.495   0.774   0.777 -0.2775  0.1153  0.3320
26750W        W40164   3.102   2.778  13.679 -0.1234 -0.1072 -0.0191
26751W        W40165   9.443   5.108  14.761  0.0113  0.1172 -0.1729
26752W        W40166  10.615   0.668   1.333 -0.2926  0.1531 -0.2575
26753W        W40167  11.643  13.904  13.881 -0.2759  0.2019  0.0439
26754W        W40168   7.462  17.164  14.053  0.1376  0.1567 -0.1844
26755W        W40169   9.601   1.825  15.778 -0.3254 -0.0832 -0.0258
26756W        W40170  10.180   0.570  13.591  0.1783 -0.1800 -0.0298
26757W        W40171  14.062   2.875   1.981  0.2331 -0.1995  0.2765
26758W        W40172   9.704  16.790   0.073  0.0450 -0.2739  0.1347
26759W        W40173   6.492   5.591   1.819  0.0374 -0.0570 -0.2006
26760W        W40174  10.916   8.631  12.265  0.2903  0.1403 -0.2662
26761W        W40175  11.288  16.264  13.209  0.3189 -0.2811  0.0231
26762W        W40176  14.489   4.894  11.481  0.1388  0.0340  0.1078
26763W        W40177  16.390   4.031   2.757  0.0684 -0.2575 -0.0815
26764W        W40178  14.558   7.276   4.423 -0.0900 -0.0843 -0.1721
26765W        W40179   4.604   6.235  16.760 -0.0224 -0.1659  0.1631
26766W        W40180  15.830  14.559  15.125 -0.1398  0.0976  0.3150
26767W        W40181   7.004  10.882   1.705  0.0318 -0.1266  0.1114
26768W        W40182  16.872   9.978  16.291  0.2047  0.0509  0.1907
26769W        W40183   4.155   4.467  10.755  0.1673  0.2097  0.1433
26770W        W40184   9.482  11.239   1.867 -0.0471 -0.0368  0.1774
26771W        W40185  17.347  11.132   2.114  0.2923  0.0169 -0.0919
26772W        W40186  10.890  12.963   3.137 -0.0339 -0.1525 -0.2037
26773W        W40187  13.605  15.334  15.143 -0.0594  0.1673 -0.1211
26774W        W40188  11.605  16.857  11.563  0.1502  0.0476 -0.0101
26775W        W40189   5.986  13.326   1.648  0.1564  0.1679 -0.2541
26776W        W40190  13.513   0.589   2.583  0.1022  0.0924 -0.1447
26777W        W40191  11.924   0.357   2.964 -0.3979  0.0895 -0.0236
26778W        W40192   0.101  16.578  11.403 -0.0893  0.2517 -0.0135
26779W        W40193   3.133  15.470   4.366  0.0648  0.2350  0.1782
26780W        W40194   2.695  12.641  14.614 -0.0611 -0.3869 -0.0698
26781W        W40195  14.334  14.735  14.372  0.3013 -0.1377  0.0054
26782W        W40196  14.348  14.526   6.088  0.2040  0.2111  0.0193
26783W        W40197   6.959   6.434   5.224 -0.0596  0.1119  0.1098
26784W        W40198  14.472   0.199  14.461  0.1688 -0.1202 -0.2765
26785W        W40199   5.511  17.147   1.845  0.0793  0.2417 -0.1832
26786W        W40200   4.958  16.685  10.426  0.1245  0.1351  0.0640
26787W        W40201   4.962   1.305   4.219  0.1392  0.0522  0.2828
26788W        W40202  11.160  17.529   1.318  0.1955 -0.0329  0.3775
26789W        W40203   7.282   6.015   5.175  0.2186  0.1395  0.1439
26790W        W40204  10.833   9.121   0.501  0.0236 -0.1239 -0.2714
26791W        W40205   3.704   4.918   3.173 -0.2289 -0.1926  0.2051
26792W        W40206  17.827   0.405   2.925  0.4137 -0.1590 -0.2827
26793W        W40207   4.097   5.524  16.417  0.2749 -0.1821  0.0812
26794W        W40208   0.793  14.031  15.402  0.0177 -0.0521  0.1715
26795W        W40209   2.364   4.881  16.606  0.0153  0.0653  0.1572
26796W        W40210   2.400  13.774  16.116  0.2278 -0.3103 -0.0761
26797W        W40211  14.192  16.996   6.487  0.3646  0.0417 -0.0576
26798W        W40212  16.377  12.177  15.727  0.1091 -0.0390  0.1905
26799W        W40213   2.018   2.854  12.291  0.3191  0.2369  0.0193
26800W        W40214   2.346   7.681   4.002 -0.1843  0.0291 -0.3194
26801W        W40215  14.698   6.233   2.142  0.1737  0.2228 -0.0549
26802W        W40216   9.972   2.821  11.214  0.1569 -0.0354 -0.2507
26803W        W40217  14.511  14.188  14.529  0.0928 -0.1311  0.0016
26804W        W40218   2.773   2.193  16.764 -0.0664  0.0520  0.0084
26805W        W40219  15.612  16.538   3.156 -0.2155 -0.3001 -0.0492
26806W        W40220  15.677   6.145   0.048  0.2747  0.3500 -0.1669
26807W        W40221  13.081   8.815  12.557 -0.0482  0.0445 -0.0890
26808W        W40222   5.686   1.501  14.908 -0.0984  0.3554 -0.3336
26809W        W40223  16.020   3.635   5.199  0.0244  0.1938  0.1768
26810W        W40224  12.994  15.723   0.922 -0.3090  0.3861 -0.0605
26811W        W40225  16.540   5.371  16.533 -0.0843 -0.1985  0.1114
26812W        W40226   9.267   3.392   0.805 -0.1474 -0.1479 -0.0439
26813W        W40227   3.383   9.289   1.220 -0.0275  0.1943  0.0182
26814W        W40228   1.078  10.443   3.020 -0.4470 -0.1915 -0.0235
26815W        W40229  11.081  14.470   6.949 -0.0786 -0.0002 -0.1002
26816W        W40230  12.265   3.337   4.813 -0.0564 -0.3112  0.0168
26817W        W40231   1.327  13.939  13.897  0.3404 -0.0459  0.0631
26818W        W40232  11.365  17.203   1.936 -0.1813  0.1128  0.1307
26819W        W40233  17.280   9.624  15.323  0.1124 -0.0280  0.0865
26820W        W40234   2.396   4.962  12.305  0.2798  0.0316  0.0294
26821W        W40235   3.920  16.184   0.344 -0.0796 -0.1797 -0.0046
26822W        W40236  15.571  16.339  14.487 -0.0947 -0.0145  0.0831
26823W        W40237   6.286   0.836  14.018 -0.0032  0.1755 -0.3426
26824W        W40238   5.022   2.828   3.951  0.1554  0.1711 -0.0044
26825W        W40239  16.197   6.195   0.171  0.0453 -0.0060 -0.0698
26826W        W40240   2.073   1.079   2.710  0.1473  0.3735 -0.1249
26827W        W40241   5.001   3.706   5.119 -0.0421  0.0021  0.0136
26828W        W40242  14.893  12.084  12.547 -0.1735  0.1955 -0.0456
26829W        W40243  13.122   0.859   0.967 -0.1632  0.0478  0.4344
26830W        W40244  11.546  16.167   4.659 -0.3180 -0.1007 -0.2998
26831W        W40245   1.767   3.744   3.933 -0.2481  0.0295 -0.5373
26832W        W40246   3.126   7.464   1.901  0.0530  0.1378 -0.1753
26833W        W40247  13.345  15.440   0.493  0.2046  0.1630  0.0266
26834W        W40248  16.909  11.947   0.807  0.1698  0.3506  0.1628
26835W        W40249   7.886   9.929   2.677 -0.0342  0.2794 -0.0046
26836W        W40250  12.897  12.222   2.504  0.1167 -0.2808 -0.1479
26837W        W40251   6.532  13.983   2.526  0.1643 -0.0173  0.1181
26838W        W40252   2.349   2.527  11.516  0.0550 -0.0588  0.2880
26839W        W40253   4.916   7.425  11.637  0.2163 -0.0732 -0.1626
26840W        W40254  14.397   3.994  10.996  0.0349 -0.2957 -0.1197
26841W        W40255   4.043   8.469  12.131 -0.0201  0.1064  0.0997
26842W        W40256   6.121   0.446  12.574  0.0902 -0.1418 -0.2630
26843W        W40257  15.570   4.314  14.274  0.1317  0.0055  0.1911
26844W        W40258   3.321  16.922   0.562  0.1148 -0.0072 -0.1418
26845W        W40259   6.697  15.638  15.717 -0.0894  0.0508  0.3603
26846W        W40260  10.939   5.436   3.725  0.1687  0.0446 -0.0063
26847W        W40261   8.202   8.627  10.497 -0.0015 -0.0408 -0.3795
26848W        W40262  12.990   2.647  14.888 -0.0117 -0.2049  0.2179
26849W        W40263   6.967  13.940   4.833 -0.1553  0.2501  0.1801
26850W        W40264   1.214   5.390  13.165 -0.1501 -0.1313 -0.3681
26851W        W40265   5.543  11.469  15.091 -0.1486 -0.1185  0.2866
26852W        W40266  15.237   0.002   3.993 -0.4331 -0.2816  0.1039
26853W        W40267   9.078  11.654   5.825 -0.1085  0.1841 -0.0221
26854W        W40268   0.722   6.531   3.863  0.0269  0.1756  0.0383
26855W        W40269  17.149   7.263  13.793 -0.1888 -0.2299  0.0188
26856W        W40270  10.489   9.512   0.590  0.3492  0.0136 -0.0525
26857W        W40271  11.198   8.668   2.183  0.1814  0.0990 -0.0255
26858W        W40272   8.569   1.747  15.631 -0.1965 -0.1292  0.0461
26859W        W40273   6.257  12.460   1.350  0.1985  0.0009 -0.0566
26860W        W40274   0.334   2.775   2.263 -0.0158  0.0209 -0.1199
26861W        W40275  10.807   4.978   0.492 -0.0542 -0.1815 -0.1461
26862W        W40276  17.422  14.812  13.520  0.0314 -0.3271 -0.0771
26863W        W40277  16.952  16.443  10.855 -0.0478  0.2258  0.1666
26864W        W40278   3.617  11.068  14.568  0.1117 -0.2399  0.1663
26865W        W40279   6.009  13.490   3.230  0.0300 -0.1459  0.0197
26866W        W40280   1.847   5.280   2.193 -0.1928 -0.3505  0.1830
26867W        W40281   3.279   8.886  15.440 -0.1318  0.0230  0.2808
26868W        W40282   3.662   5.052  16.593  0.1599  0.0373  0.0657
26869W        W40283  11.332  10.159   4.922 -0.0448  0.0819 -0.0166
26870W        W40284   2.435   2.625   2.633 -0.2206 -0.0823 -0.3200
26871W        W40285   8.359  15.150   5.176  0.0479 -0.1024  0.1754
26872W        W40286   8.111   1.527   3.963  0.3852 -0.1888  0.1437
26873W        W40287   2.506  15.977   3.818  0.2475  0.4155  0.1800
26874W        W40288   4.539  14.699  13.593 -0.0274  0.1217 -0.0244
26875W        W40289  10.555   1.370  14.402  0.0692  0.0771  0.2294
26876W        W40290  13.482  10.320  11.706  0.1333 -0.3490 -0.1318
26877W        W40291  12.277   4.047  12.120 -0.1882 -0.1739  0.0006
26878W        W40292   3.564  12.917  13.166  0.0561 -0.0840  0.1726
26879W        W40293  14.135  12.760   3.517  0.0334 -0.0159 -0.2365
26880W        W40294   8.357   2.336  11.376 -0.1078 -0.2576 -0.1075
26881W        W40295  10.113  13.427  15.993  0.2816  0.1617  0.0403
26882W        W40296  12.999   6.507  11.912  0.0921 -0.1113  0.2891
26883W        W40297  15.275  14.326  12.506 -0.0038  0.0980 -0.0600
26884W        W40298   9.659   4.206   1.260 -0.0303  0.0508 -0.0846
26885W        W40299  17.268  14.222   2.266  0.2506 -0.0692  0.2479
26886W        W40300  15.016   4.909   4.954 -0.1804  0.0657  0.1203
26887W        W40301  12.955   4.548   0.503 -0.3306  0.1034  0.1932
26888W        W40302  15.702  16.215   6.032 -0.0494 -0.1338 -0.1537
26889W        W40303  10.335  10.725   0.807  0.2521  0.0180 -0.0502
26890W        W40304   7.615   7.903  11.049 -0.0666 -0.0369  0.1363
26891W        W40305  17.548  12.324   6.619  0.1360  0.1824 -0.1368
26892W        W40306  15.714   2.638  12.654 -0.1480 -0.0465 -0.2655
26893W        W40307   7.195  13.634  16.288 -0.0631 -0.0321 -0.0986
26894W        W40308  15.290  12.891   4.163 -0.2143 -0.1324 -0.0341
26895W        W40309  10.644  14.313   2.803 -0.1509  0.0173 -0.0107
26896W        W40310  17.036  10.167   4.721 -0.3785  0.1633 -0.1035
26897W        W40311   9.174  16.703   5.575 -0.2484  0.0759  0.2391
26898W        W40312  15.153   5.022   2.518  0.0808  0.1867 -0.2157
26899W        W40313  16.328  11.904  11.053 -0.0458  0.1546 -0.0975
26900W        W40314  15.807   6.278  15.091  0.0281 -0.3519  0.2266
26901W        W40315  10.875  11.356   1.986 -0.0886  0.2466  0.0243
26902W        W40316  14.715   9.339  16.522  0.0940 -0.0321 -0.1472
26903W        W40317   0.641  16.237  11.498  0.1766  0.0050  0.0379
26904W        W40318   1.472   9.375   0.416 -0.0010 -0.0566 -0.2904
26905W        W40319   9.051  11.478   6.855  0.2077  0.0570  0.0786
26906W        W40320   4.870  14.519   0.797 -0.1193 -0.0582 -0.1786
26907W        W40321   5.746   4.627  12.700  0.1172 -0.3722  0.0467
26908W        W40322   1.586   9.927   0.226  0.1772  0.0831  0.1931
26909W        W40323  10.990   1.400  16.139  0.1661  0.2669  0.0185
26910W        W40324  17.328  11.753  14.383  0.0729 -0.0054  0.0636
26911W        W40325   5.689  14.638  13.394 -0.0519 -0.0070  0.1258
26912W        W40326   8.376   0.734  16.522  0.2101 -0.0320 -0.1716
26913W        W40327  13.624  11.624  11.063 -0.2640 -0.1151  0.0617
26914W        W40328  14.321   4.489   1.053  0.0940  0.1316  0.3375
26915W        W40329  13.701  12.019  15.236 -0.3456  0.1471  0.0223
26916W        W40330   6.600  17.763  16.487 -0.1867  0.4547  0.1128
26917W        W40331  10.534   5.135   0.012  0.0135 -0.2003  0.0222
26918W        W40332   6.488  14.024   4.976 -0.0704 -0.0270 -0.1516
26919W        W40333   6.823  17.567  10.680  0.1084 -0.0107 -0.1541
26920W        W40334  17.280  10.510   1.090  0.0458  0.0640 -0.0420
26921W        W40335   4.099   0.351   0.089  0.1636  0.1110  0.0656
26922W        W40336   5.228  17.972   1.634 -0.0561  0.0657 -0.0374
26923W        W40337   8.270   4.126  11.082  0.1264 -0.0496  0.1457
26924W        W40338   5.818   7.367   4.117 -0.0244 -0.1311 -0.0175
26925W        W40339  12.370   3.338  11.684  0.1128  0.0444  0.0504
26926W        W40340   2.112   8.507  16.031 -0.1702 -0.2342  0.1354
26927W        W40341  10.047  16.305  11.219  0.1193 -0.1709  0.1848
26928W        W40342  16.243  15.354  14.934 -0.2726  0.3964 -0.0012
26929W        W40343  16.693   7.285  14.009  0.0273 -0.0517 -0.0106
26930W        W40344  16.900   7.333   6.057 -0.3037 -0.0463  0.0138
26931W        W40345   2.248   7.847  15.106 -0.1648 -0.0968 -0.2624
26932W        W40346  15.652  16.176  14.989  0.0347 -0.0908 -0.1673
26933W        W40347  12.506  10.758   4.831 -0.0364 -0.0307  0.3021
26934W        W40348  12.821  11.113  12.282 -0.1522  0.0836 -0.2592
26935W        W40349   5.777   3.173   2.020 -0.0458 -0.2097  0.1895
26936W        W40350   6.749   0.631  13.216 -0.1122 -0.0593 -0.0868
26937W        W40351   0.775  13.323  11.892 -0.1089  0.0947 -0.1226
26938W        W40352   7.692   7.266  16.742 -0.2307  0.2168 -0.0455
26939W        W40353  13.197  11.162   0.542 -0.0761  0.0928  0.0491
26940W        W40354  11.939  10.909  15.103  0.2340 -0.1106 -0.0722
26941W        W40355  16.907  14.154  14.426 -0.5326  0.0226 -0.0379
26942W        W40356   8.137   2.345   3.581  0.1583 -0.0071 -0.0937
26943W        W40357  12.249   1.805  15.871  0.4114 -0.2798  0.1679
26944W        W40358   6.502   2.353  15.762 -0.0478 -0.0595 -0.0394
26945W        W40359   7.866   9.790   5.080  0.1898 -0.1976  0.0270
26946W        W40360   6.227   2.261  11.517 -0.0247  0.0277 -0.4897
26947W        W40361  12.970  15.291   3.486  0.1216 -0.0391  0.0465
26948W        W40362   1.734   0.755  14.974 -0.0620 -0.0826 -0.0080
26949W        W40363   2.189   0.061   5.040  0.2761 -0.1834  0.2500
26950W        W40364  11.741   9.771   6.179  0.0558  0.0473  0.0070
26951W        W40365   6.935  15.598  13.330 -0.2103 -0.1358  0.0163
26952W        W40366   2.229  16.366   0.242 -0.1730  0.2386  0.0409
26953W        W40367  12.462   2.494   5.161 -0.1585  0.0423  0.0510
26954W        W40368   7.070  16.367   4.719  0.2999 -0.2513 -0.3051
26955W        W40369  11.502   7.596   1.386 -0.1599 -0.1724 -0.0373
26956W        W40370  17.200  16.090  14.505  0.0855 -0.0517  0.0529
26957W        W40371   6.819  11.110  15.519 -0.1793 -0.2319  0.0357
26958W        W40372  16.488  13.427  11.088  0.3110  0.0984 -0.0210
26959W        W40373  12.571  14.846   5.326 -0.1857  0.3104  0.1557
26960W        W40374   0.010  16.403  10.580 -0.0272  0.2261  0.0305
26961W        W40375   5.910  10.651   1.848  0.0811  0.1263  0.0032
26962W        W40376   4.708  14.296   2.635  0.0388 -0.0515 -0.2959
26963W        W40377  12.956   3.634   3.119 -0.2397  0.0453  0.0435
26964W        W40378   1.615  17.078  14.363 -0.1833  0.0359 -0.2040
26965W        W40379  11.033   1.631   1.279  0.0297  0.1239 -0.1718
26966W        W40380   8.689  16.532  14.204 -0.0666 -0.2547 -0.0003
26967W        W40381   8.556   7.104  13.033  0.1269  0.0683  0.0624
26968W        W40382   6.786  11.740   1.362  0.1625 -0.1603  0.2749
26969W        W40383   7.713   2.337   2.920 -0.2429 -0.0993 -0.2371
26970W        W40384  16.409   8.078  12.314 -0.1956  0.1584  0.2517
26971W        W40385   4.572  11.275  14.655  0.1811  0.2230 -0.1663
26972W        W40386   0.649  12.661  10.716 -0.0898 -0.3289 -0.2223
26973W        W40387  11.179   1.501   4.612  0.0325  0.0617 -0.0706
26974W        W40388  11.212  10.019   2.919  0.1340  0.2151  0.0176
26975W        W40389  14.364  14.274   5.341  0.1458  0.0797 -0.0737
26976W        W40390  15.621  15.357  16.197 -0.0180 -0.1179  0.3314
26977W        W40391  17.760   4.692  13.747  0.3689  0.0403 -0.4259
26978W        W40392  15.130   6.292   0.950 -0.1556 -0.1316  0.3790
26979W        W40393   6.830   7.553   4.562 -0.1682  0.1469  0.1191
26980W        W40394  10.632  11.843   1.179  0.2226 -0.2513  0.0151
26981W        W40395   6.779  13.911  14.967 -0.3383  0.0431 -0.0878
26982W        W40396   7.594   1.341  13.047  0.3839 -0.0476 -0.1645
26983W        W40397   3.897   4.579  16.633  0.1997 -0.0979 -0.2149
26984W        W40398   1.723  13.878  10.625  0.1887 -0.0772 -0.0822
26985W        W40399  16.452  16.255   6.086 -0.2631  0.2691 -0.3054
26986W        W40400   8.341   6.729  14.391 -0.0402 -0.0385  0.1756
26987W        W40401  12.161  12.218  15.462  0.0655  0.0950 -0.0287
26988W        W40402  11.242  16.599   2.910 -0.0422  0.0243  0.0050
26989W        W40403   1.792  16.492   5.246  0.2344  0.0671  0.3437
26990W        W40404  13.730   7.389   6.041  0.4302 -0.0873 -0.0960
26991W        W40405   6.461   3.789   2.100 -0.0067 -0.2103 -0.3654
26992W        W40406  12.598   5.869   2.793  0.1664  0.0297  0.0994
26993W        W40407   4.596  17.374   5.074 -0.4144  0.0737 -0.1903
26994W        W40408  10.592   2.406   2.233  0.2255 -0.4316 -0.0019
26995W        W40409   6.250   4.789   5.109 -0.1321 -0.1331 -0.0599
26996W        W40410  10.946   2.106   1.458  0.0543 -0.2133  0.0201
26997W        W40411  15.017  14.158  14.728 -0.0987 -0.0445 -0.2883
26998W        W40412   1.101   8.940   5.276  0.2952  0.0567 -0.2591
26999W        W40413   0.066   3.541   4.700  0.1465  0.0573 -0.0754
27000W        W40414  11.803   6.753  11.059  0.4264  0.3462 -0.2463
27001W        W40415   4.425   9.233   0.312  0.0224  0.1239 -0.1042
27002W        W40416   9.388  15.132   4.102 -0.0766  0.2864 -0.0267
27003W        W40417  10.491  12.013  11.948 -0.3187 -0.0177  0.0746
27004W        W40418   4.776   0.977   4.631  0.3320  0.0758 -0.2171
27005W        W40419  17.663  15.915   4.146 -0.0053  0.1448 -0.0401
27006W        W40420  10.474   5.347  15.941 -0.1555  0.4058  0.2066
27007W        W40421   6.363  17.493  12.185 -0.1212 -0.1127 -0.1993
27008W        W40422   1.352   9.315   4.497 -0.0605 -0.1930 -0.4075
27009W        W40423  13.907   7.958  12.945  0.0457 -0.1618 -0.1311
27010W        W40424   5.571   7.186   0.269  0.0412 -0.0352 -0.0608
27011W        W40425  10.947   0.748  13.251  0.2797 -0.1857  0.2494
27012W        W40426  13.159   4.535   1.868 -0.2991  0.1537  0.0111
27013W        W40427   7.032   9.330  13.815 -0.0631  0.1309  0.0679
27014W        W40428  16.406   2.898  11.369 -0.1533  0.1063  0.0606
27015W        W40429  14.493   8.891   0.380  0.1284  0.1325 -0.1244
27016W        W40430  17.520   9.377  14.182 -0.3059  0.2047 -0.0144
27017W        W40431  13.721  17.200   2.962  0.0799  0.1867  0.1493
27018W        W40432   2.875   9.056  16.670  0.3483 -0.0620  0.3094
27019W        W40433   0.734   9.089   2.065  0.1271  0.0356 -0.0060
27020W        W40434  12.356   1.420   5.283  0.0679 -0.2385  0.1508
27021W        W40435   7.475   9.040  15.160  0.1003  0.1888 -0.0028
27022W        W40436   9.865   0.228   0.883 -0.4051 -0.1929 -0.0652
27023W        W40437   9.717  12.326   3.322  0.1575 -0.3068  0.0801
27024W        W40438  17.783  10.606   6.388  0.0951 -0.1625 -0.2431
27025W        W40439   9.436  16.300  12.043  0.0844  0.0188 -0.0897
27026W        W40440  10.579  15.982   3.912  0.0635 -0.2085 -0.4065
27027W        W40441   8.907  15.787   0.741  0.0893  0.2120  0.0508
27028W        W40442   0.739   2.439   5.830 -0.0685 -0.0756 -0.0859
27029W        W40443   8.208  12.791   3.910  0.1673 -0.1130 -0.2357
27030W        W40444   0.925   4.687   1.729  0.1683 -0.1697 -0.1016
27031W        W40445   9.891  12.959   1.361  0.3560 -0.0246 -0.0352
27032W        W40446  15.502  13.961   1.839 -0.0798  0.2563  0.2606
27033W        W40447   1.924  10.040   2.652 -0.0337 -0.1665  0.0596
27034W        W40448   5.645   3.372   3.334 -0.1034 -0.2053 -0.2292
27035W        W40449  15.754   6.070   1.145 -0.0737  0.1070 -0.0949
27036W        W40450  16.527  12.077  16.231  0.0314  0.2270  0.1564
27037W        W40451  15.344   3.880  12.862 -0.0806 -0.0827  0.0761
27038W        W40452   6.553   1.271  15.480  0.0767  0.1486 -0.0998
27039W        W40453   8.613  10.916  12.308  0.1382 -0.1518 -0.1273
27040W        W40454  17.797   8.186  15.361 -0.1179 -0.0086 -0.1929
27041W        W40455   2.282   5.653   0.112 -0.2113 -0.1111  0.1262
27042W        W40456   6.128   5.666  14.007  0.2337 -0.0550 -0.0953
27043W        W40457   0.849   2.834   4.759 -0.0269 -0.0021  0.0006
27044W        W40458  10.738  14.103  14.350 -0.1516  0.0260  0.3326
27045W        W40459   8.275   6.936  16.266 -0.1648 -0.0772 -0.1951
27046W        W40460   6.203  12.905   5.002  0.0979 -0.0301 -0.0983
27047W        W40461   3.190  17.369   4.581  0.0887 -0.3122 -0.2348
27048W        W40462  12.401  11.476   5.556 -0.0089  0.1311 -0.0036
27049W        W40463   9.908  14.381  13.716 -0.0746  0.0966  0.5687
27050W        W40464   8.825  12.765   1.895 -0.1983 -0.1006 -0.3797
27051W        W40465  13.851   3.656   0.356  0.3601 -0.3672  0.1253
27052W        W40466   4.103   2.347   2.415  0.3161  0.2584 -0.0993
27053W        W40467  14.548   6.923  12.370 -0.1306  0.1369  0.1489
27054W        W40468  12.803   9.171  14.882 -0.3166  0.3741  0.1324
27055W        W40469  15.292  13.937  12.205 -0.0817 -0.1514  0.0333
27056W        W40470   9.175   6.415   3.736 -0.0538 -0.0658 -0.1211
27057W        W40471  15.817   6.896   6.584 -0.3038 -0.0011 -0.0969
27058W        W40472   6.509   3.358  13.415  0.0480 -0.0474 -0.0639
27059W        W40473   1.762  13.991   1.231  0.2899  0.1066  0.0238
27060W        W40474   0.345   6.238  15.470 -0.1169 -0.0121  0.0762
27061W        W40475   2.854  11.074   4.292  0.1491 -0.1975  0.2399
27062W        W40476  17.170   8.602  14.368 -0.4008  0.0208  0.2188
27063W        W40477  14.770  14.568   4.105  0.0325  0.0178 -0.0128
27064W        W40478   7.043  12.652   2.818 -0.0648 -0.0218 -0.1215
27065W        W40479   7.251  16.179  10.791  0.3021  0.0849  0.1680
27066W        W40480   7.622   5.649  15.069 -0.2077 -0.1211 -0.0946
27067W        W40481   6.014   5.703   2.858 -0.2123  0.0907 -0.1085
27068W        W40482   8.332   3.279   5.294 -0.1556 -0.2340 -0.1125
27069W        W40483   3.981   8.524  11.588 -0.1364  0.1407 -0.0933
27070W        W40484  17.470  11.223  11.939  0.1306 -0.1133  0.0268
27071W        W40485   9.965  12.341   1.371  0.1745  0.0324  0.2604
27072W        W40486  11.043   6.203   3.924  0.0018 -0.0632  0.1999
27073W        W40487  11.691   1.179  14.396 -0.0484  0.1302 -0.0601
27074W        W40488   3.277  15.332  16.138 -0.1211 -0.1575  0.2510
27075W        W40489  16.663  10.830   5.949 -0.0744 -0.0354  0.1494
27076W        W40490  16.115   6.022   4.408 -0.1704 -0.1651  0.0081
27077W        W40491   2.437   3.833  16.783 -0.0034 -0.1740  0.0642
27078W        W40492   1.932   2.185  13.560 -0.1281 -0.3128 -0.0652
27079W        W40493   3.077   4.699  14.915 -0.1531 -0.0484  0.1036
27080W        W40494   1.365   9.785  16.059 -0.2364 -0.1505 -0.2139
27081W        W40495   6.359  10.186   4.056 -0.0714  0.0297  0.0075
27082W        W40496  14.340  15.364   3.946 -0.2808  0.2653  0.4191
27083W        W40497   8.253   9.966   4.097 -0.0021  0.1563  0.0042
27084W        W40498  14.836  10.124  12.819  0.1806  0.0542  0.2401
27085W        W40499  14.787  14.186   4.523 -0.2732 -0.1481  0.2763
27086W        W40500   9.411   4.516   0.345  0.0305  0.0958 -0.0990
27087W        W40501   6.649   0.880  16.712  0.0743  0.0158 -0.1226
27088W        W40502  11.592  11.553   0.900  0.3594  0.1740 -0.1928
27089W        W40503  13.171   8.108   5.751 -0.1345  0.2793  0.0966
27090W        W40504   7.254   1.436  16.201 -0.1277 -0.0392 -0.0794
27091W        W40505   3.559  16.397  15.732 -0.1241 -0.0907 -0.3567
27092W        W40506   9.341   6.057   4.052  0.3328 -0.2587 -0.1804
27093W        W40507   0.818  17.618  14.434 -0.2095  0.0545  0.0076
27094W        W40508   8.977  14.522   0.350 -0.2868  0.2471 -0.0191
27095W        W40509   3.052  13.414   2.470 -0.0645 -0.1139 -0.0629
27096W        W40510   4.029   3.498   0.816 -0.2471 -0.1623 -0.0215
27097W        W40511  13.855   5.986   3.213 -0.2077 -0.1218 -0.1825
27098W        W40512  17.294  17.926   0.551 -0.1895  0.1877 -0.2985
27099W        W40513   4.366   1.159   2.675  0.2500 -0.1552 -0.0043
27100W        W40514   1.341   3.568   4.232 -0.1499  0.0180  0.0375
27101W        W40515  17.493  16.393  10.825  0.1515  0.0776  0.0307
27102W        W40516   8.457  15.725  12.570  0.3085  0.1691 -0.1517
27103W        W40517   2.200   4.306  15.824 -0.0910 -0.0856 -0.0576
27104W        W40518   5.435  11.250   2.112 -0.2436  0.1820  0.1825
27105W        W40519  15.348  17.452   4.744  0.0313  0.1730 -0.0656
27106W        W40520   4.260  10.554   2.348  0.0779  0.0646  0.1725
27107W        W40521  16.270   2.431   5.248  0.0611  0.2747  0.0380
27108W        W40522   6.638   4.750   4.190  0.3604 -0.0189 -0.1897
27109W        W40523   4.552   6.142   3.668 -0.1002  0.3099 -0.1637
27110W        W40524  15.925  13.175   4.815  0.0807 -0.1189  0.2682
27111W        W40525  12.679  15.060  15.407  0.3988  0.1180 -0.1072
27112W        W40526   8.405  17.264  13.092  0.0625  0.3095 -0.2307
27113W        W40527  13.277  17.336  10.908 -0.1215 -0.2157  0.0304
27114W        W40528   6.381   4.309  13.751 -0.0610 -0.2970 -0.1278
27115W        W40529   1.968   2.509  16.314 -0.1731  0.0529 -0.2545
27116W        W40530   1.740  11.168  13.116 -0.0609  0.0834  0.0171
27117W        W40531   4.743   0.081  12.272 -0.1516 -0.3042  0.2057
27118W        W40532  10.523  13.772   5.346 -0.1073 -0.3026  0.1581
27119W        W40533   1.732  12.219   3.537  0.0909 -0.0365 -0.1803
27120W        W40534   3.387  13.361  12.273 -0.2252 -0.0497  0.0089
27121W        W40535  10.115   1.956   4.465 -0.0649  0.3638  0.1723
27122W        W40536  12.862  17.645  13.107 -0.0763 -0.0732  0.1517
27123W        W40537  14.901  16.163  12.053 -0.1628 -0.3594  0.2500
27124W        W40538   1.805   3.804  15.117 -0.0062  0.1598  0.0056
27125W        W40539   0.334   5.773  14.671 -0.1608  0.1122  0.0110
27126W        W40540   9.421  13.392  15.097  0.1441 -0.0978  0.1418
27127W        W40541  12.624  14.827  11.932  0.1214 -0.0546  0.1228
27128W        W40542   3.910  12.405   2.431  0.1071  0.1177 -0.0268
27129W        W40543  15.483  15.754  15.900 -0.1349 -0.3320  0.1016
27130W        W40544  13.187   4.345   1.055  0.0289  0.0979 -0.0698
27131W        W40545   4.123   5.751  12.612  0.2226 -0.1103  0.0570
27132W        W40546  13.856  13.045   3.798  0.0858  0.4370  0.0440
27133W        W40547  11.467   0.278  14.777  0.0990  0.0902  0.2132
27134W        W40548  15.534  14.932  11.950  0.1013  0.1428 -0.2060
27135W        W40549   5.682  15.441   2.278 -0.0960 -0.1870 -0.0143
27136W        W40550   4.956  16.464   1.922 -0.1201  0.1643  0.0357
27137W        W40551  10.813   3.761  13.194 -0.3234 -0.2236 -0.1485
27138W        W40552  11.236  16.711  15.122  0.1394 -0.3035 -0.2107
27139W        W40553  11.867   2.354   2.565 -0.0265  0.0970 -0.0290
27140W        W40554   0.106  16.717  12.674  0.2193  0.1026  0.0519
27141W        W40555   5.370   6.019   3.485  0.0394  0.1101 -0.0202
27142W        W40556   3.775   2.912   4.130  0.2630 -0.0632  0.0386
27143W        W40557   9.611  15.594  11.503 -0.3653  0.2890 -0.1894
27144W        W40558   8.401  10.895   5.696 -0.2182  0.1050 -0.0667
27145W        W40559   0.731  16.980   5.264 -0.1951  0.0289 -0.0381
27146W        W40560   6.635  14.817  15.837  0.0690 -0.2741  0.1555
27147W        W40561   7.258  11.520  12.810 -0.3569  0.0562  0.0236
27148W        W40562   6.154  12.002   1.987 -0.1271  0.1431 -0.1629
27149W        W40563   9.616  16.782   0.614  0.1028  0.1421 -0.1005
27150W        W40564   6.851   9.466   1.881  0.0574 -0.1835  0.1663
27151W        W40565   8.584  10.432  12.487 -0.1997 -0.3036  0.0993
27152W        W40566   1.118   6.291   1.038 -0.0446  0.1299 -0.0898
27153W        W40567  17.939   9.593   0.562  0.1382 -0.1064  0.0304
27154W        W40568  14.177   3.374   4.886  0.1451  0.0143  0.3735
27155W        W40569  17.323  10.384  14.504  0.2103 -0.1141 -0.0436
27156W        W40570   7.394   2.489  13.222 -0.0733  0.1217  0.0229
27157W        W40571   8.437  10.307  14.860  0.0564 -0.5526  0.3270
27158W        W40572  15.203  10.615  11.314  0.1099  0.0762  0.1078
27159W        W40573   3.964  12.800   6.164  0.2445 -0.0857  0.0849
27160W        W40574   8.463  16.431   2.236 -0.1663  0.2174  0.1353
27161W        W40575  15.348   7.542   4.052 -0.0276  0.1592  0.0025
27162W        W40576   3.221   6.688   0.314  0.1278 -0.0526  0.3426
27163W        W40577  14.515   8.364  15.346 -0.2604 -0.1326 -0.1531
27164W        W40578   0.455   6.413  14.120 -0.0148 -0.1548 -0.2294
27165W        W40579   3.378   7.281   0.752  0.2326 -0.3064 -0.2217
27166W        W40580  14.935   8.621  12.265 -0.1875  0.2066 -0.2247
27167W        W40581   3.318  17.670   3.412  0.0774  0.0158  0.2139
27168W        W40582   8.763  16.962   2.797  0.0853 -0.0387 -0.1245
27169W        W40583   5.747   5.699   2.051 -0.2265 -0.5166  0.0998
27170W        W40584  16.238   5.060  13.066 -0.1629  0.0555 -0.0218
27171W        W40585   9.964  14.274   1.000 -0.2713  0.0836 -0.0016
27172W        W40586  17.926   5.955   4.008 -0.5677  0.0027  0.0628
27173W        W40587   2.879  17.972   5.126  0.1478  0.1177  0.1556
27174W        W40588   6.984  13.842  11.640 -0.2634 -0.0360  0.1223
27175W        W40589   4.142   1.070   4.341 -0.0123  0.0335 -0.2153
27176W        W40590  11.316   9.789  12.981 -0.2429 -0.1386  0.0796
27177W        W40591   5.341  11.240  15.844 -0.0232  0.0347 -0.3648
27178W        W40592  15.573  17.279   1.123 -0.2184  0.1171  0.0114
27179W        W40593  10.909  14.493  13.439  0.2141  0.0642 -0.0404
27180W        W40594   7.972  14.911   4.988 -0.0251 -0.1054  0.0363
27181W        W40595   5.884  11.025  11.233 -0.0701  0.0010 -0.0121
27182W        W40596  11.382   6.331  11.927  0.2183  0.0915  0.1296
27183W        W40597   1.490   4.583  13.471  0.0996  0.0999 -0.0743
27184W        W40598   1.874  11.727  10.925  0.0660  0.1062  0.3284
27185W        W40599   0.332  15.708   5.304 -0.0489  0.2582 -0.0592
27186W        W40600  16.027  13.033   2.573 -0.2550 -0.4299  0.0400
27187W        W40601  10.105   3.940  13.662  0.2809  0.0335 -0.0563
27188W        W40602   9.698  10.792  16.434  0.2009 -0.2292 -0.0719
27189W        W40603   5.988  13.338  11.339  0.0295 -0.0411  0.0997
27190W        W40604  13.788  11.765  12.429  0.1525 -0.1313 -0.2491
27191W        W40605   2.290  15.700   3.451 -0.1183 -0.2067  0.1557
27192W        W40606  13.716  14.824   3.911 -0.3458 -0.0723 -0.0133
27193W        W40607  11.320   1.280  11.125 -0.1129  0.0433 -0.1047
27194W        W40608  15.394  16.733  11.806 -0.0605  0.1447  0.1327
27195W        W40609  10.491  11.482   6.505 -0.0581  0.2427 -0.0050
27196W        W40610   2.519   1.468  11.150 -0.0084  0.0642  0.0408
27197W        W40611   4.871  17.599  10.543 -0.0406 -0.0217  0.0855
27198W        W40612   4.148   2.020  11.510  0.1444 -0.1139 -0.1397
27199W        W40613   5.449   3.508   2.788  0.0485  0.1287 -0.0136
27200W        W40614  16.147   3.773  13.352 -0.1012 -0.1889  0.1635
27201W        W40615  10.418   7.401  13.134 -0.0524 -0.2924  0.2048
27202W        W40616   0.138  12.017  14.462  0.1142 -0.0841  0.0016
27203W        W40617   0.506   1.816  15.900  0.0323 -0.0131 -0.0349
27204W        W40618   2.289  11.637   1.954 -0.3560 -0.0499 -0.0366
27205W        W40619  14.067  14.596  12.936  0.2383 -0.0681 -0.5401
27206W        W40620  13.608   9.930   5.227  0.0158  0.2574  0.1030
27207W        W40621   5.172  17.496   1.502  0.3463  0.0041  0.1727
27208W        W40622   4.103   9.935   1.408 -0.0272  0.0519  0.2516
27209W        W40623   4.471  15.177  13.777  0.0216 -0.0147 -0.0537
27210W        W40624  15.405  11.009  11.647  0.1081 -0.0913 -0.0341
27211W        W40625  11.632  10.846  13.373  0.0131  0.0968 -0.0083
27212W        W40626  15.174   5.223   3.777  0.2267  0.2133  0.1032
27213W        W40627  10.334   8.270  10.758  0.1458  0.0780 -0.4531
27214W        W40628  16.687   6.336  13.837 -0.1403  0.2759  0.0924
27215W        W40629   7.599  11.668   5.396 -0.2307 -0.0205 -0.2244
27216W        W40630  10.270   2.830   3.069 -0.1681  0.0760 -0.2301
27217W        W40631  14.339  11.861   0.630 -0.0178 -0.2571  0.2844
27218W        W40632   2.103  12.977  12.176 -0.0258  0.2416  0.2628
27219W        W40633  17.451   5.277  14.214 -0.2818  0.0101 -0.0805
27220W        W40634   2.741   1.096  10.600  0.1295  0.2362 -0.1212
27221W        W40635   6.004   5.009  15.810 -0.1734  0.2200 -0.3166
27222W        W40636  11.264  12.699   1.671  0.1038 -0.0213  0.1499
27223W        W40637   7.151   4.097   0.198 -0.1325  0.2271 -0.1883
27224W        W40638   8.023   5.499  13.799  0.0754 -0.0280 -0.1585
27225W        W40639  13.538  11.517   3.512  0.0220 -0.2626 -0.0011
27226W        W40640  10.410   1.272  16.020  0.1538  0.0217  0.0178
27227W        W40641  17.703   4.140   5.365  0.0276  0.0027 -0.2662
27228W        W40642  13.754   1.491  14.048 -0.0321 -0.5405 -0.2851
27229W        W40643   0.051   3.302  15.283  0.1485 -0.0699  0.0725
27230W        W40644   9.249  16.228  11.461  0.0227  0.1184  0.1776
27231W        W40645  12.608   5.478   4.081  0.1239 -0.0309 -0.2209
27232W        W40646   8.712  16.908  12.352  0.0458  0.1656  0.0808
27233W        W40647   4.320   5.208   1.424  0.0037 -0.2095 -0.0483
27234W        W40648   3.106  16.228   4.942 -0.0867 -0.1622 -0.0304
27235W        W40649  12.787   1.093  15.833  0.1242  0.0875  0.0917
27236W        W40650   6.318   6.056   3.085 -0.3653 -0.0334  0.0864
27237W        W40651   2.653  15.405   3.233 -0.2820  0.0691  0.1472
27238W        W40652   1.729  10.522  15.391 -0.0279 -0.1165  0.1482
27239W        W40653  11.397  15.063  12.970  0.1645  0.1722 -0.1211
27240W        W40654   9.145   9.858  15.420  0.0958  0.0822  0.1447
27241W        W40655   4.002   5.350  15.619 -0.1426  0.2772 -0.0259
27242W        W40656  12.941   7.969   0.176  0.0939  0.0614  0.1645
27243W        W40657   6.584   4.867  16.166  0.2274 -0.0508 -0.2271
27244W        W40658   6.644   6.112   4.451 -0.1927  0.0699  0.0096
27245W        W40659   6.162  10.829   3.146  0.0763  0.0638  0.1012
27246W        W40660   7.046  16.459  10.390  0.1356 -0.1715 -0.0297
27247W        W40661   4.806  14.106  12.124 -0.0298 -0.1775 -0.1957
27248W        W40662  14.250  11.739   1.094 -0.1467 -0.0697  0.1940
27249W        W40663  10.892   5.852  10.009 -0.0355 -0.0215 -0.3558
27250W        W40664  11.875   1.036  13.245 -0.1936  0.0596  0.1560
27251W        W40665   0.212  13.945  10.658 -0.1612 -0.2343  0.0872
27252W        W40666   3.190   5.197  16.569  0.0820  0.0094 -0.4744
27253W        W40667   3.818   2.392  13.460 -0.1825 -0.2630 -0.2581
27254W        W40668  14.867  14.824   5.564  0.0488 -0.0812  0.0778
27255W        W40669   2.631  15.512  11.802 -0.0432  0.2317  0.3047
27256W        W40670  16.231   1.287   0.229 -0.1558 -0.0438 -0.1412
27257W        W40671   1.596  17.219  11.119  0.2748 -0.0718 -0.1755
27258W        W40672  12.361   9.030  14.558 -0.0122 -0.1046  0.0353
27259W        W40673   9.226   6.895   1.090 -0.0435  0.0021  0.0237
27260W        W40674  16.413   0.701   5.563  0.0812  0.4976  0.1511
27261W        W40675  14.230  10.806   5.171 -0.0605  0.3089 -0.1191
27262W        W40676   4.328  13.661   0.967  0.1107 -0.0383 -0.2686
27263W        W40677  17.341   0.928  11.192 -0.1038  0.0604  0.2106
27264W        W40678  11.505  12.207   3.084  0.1094 -0.0520 -0.0416
27265W        W40679  12.934   6.494   0.046 -0.2014 -0.1265 -0.2597
27266W        W40680   2.122   1.546  15.222 -0.2109  0.0109  0.0140
27267W        W40681  15.047   6.985  12.036 -0.1258 -0.1510 -0.0217
27268W        W40682  16.206  17.805  16.618 -0.3053 -0.2642 -0.3618
27269W        W40683   6.294   2.706  12.942 -0.0483  0.0845 -0.1176
27270W        W40684   8.937  14.146   1.024 -0.0064  0.1878  0.1248
27271W        W40685   9.524   0.202  12.026 -0.1202 -0.0586  0.1381
27272W        W40686   0.521  12.912   1.857  0.1379 -0.0136 -0.1136
27273W        W40687  16.946   5.580   5.997  0.1120 -0.1172 -0.3711
27274W        W40688  11.205   7.408  12.250 -0.1235 -0.0790  0.3795
27275W        W40689   4.919   9.604  15.443 -0.0616 -0.1230 -0.1414
27276W        W40690   5.362  10.445   4.208  0.0681  0.1177 -0.1699
27277W        W40691   4.710   7.608  13.161 -0.0461  0.1446 -0.2528
27278W        W40692   0.573   4.918  12.646 -0.2742  0.0339  0.3813
27279W        W40693   9.400  17.216  14.828 -0.0907  0.2066  0.2007
27280W        W40694   8.791   7.430   5.094  0.1436  0.1356  0.2332
27281W        W40695   3.168   7.860  15.101  0.3090  0.1842  0.3244
27282W        W40696  11.951   8.131   2.284 -0.2535 -0.0482 -0.1684
27283W        W40697   1.919   6.314  14.411  0.0066 -0.1543 -0.0359
27284W        W40698  10.064  15.435   1.918  0.2358 -0.1096 -0.0609
27285W        W40699  12.661  13.082   5.934  0.1798  0.1497 -0.2755
27286W        W40700   8.106  11.561   3.522  0.2085  0.1745 -0.1288
27287W        W40701  14.489   0.007   3.308 -0.0200  0.0749 -0.1967
27288W        W40702   7.901   5.722   1.508  0.2031 -0.2733  0.1331
27289W        W40703   4.991  12.772   3.184  0.0425 -0.3106 -0.0706
27290W        W40704  15.822  15.097  15.161  0.0652 -0.1078 -0.0235
27291W        W40705  16.349   1.386  15.044 -0.1389  0.0390 -0.0171
27292W        W40706  17.975  10.678   2.706  0.0140 -0.1556 -0.1016
27293W        W40707   3.096   4.419  11.511 -0.0997  0.1051  0.0827
27294W        W40708  16.702   4.250   3.153 -0.2684  0.1355 -0.1224
27295W        W40709  16.185  17.208  15.352 -0.0214  0.4162 -0.1167
27296W        W40710  10.658   8.464  11.815  0.1253 -0.0465 -0.0292
27297W        W40711   3.042  16.106  12.940 -0.3035  0.2515 -0.0417
27298W        W40712  15.178  11.421  14.028  0.0603 -0.0007  0.1481
27299W        W40713   8.047   3.538  14.776  0.1046 -0.2254 -0.0307
27300W        W40714  12.482   2.878   0.456 -0.2606  0.1825  0.1073
27301W        W40715  10.391  10.055  10.652  0.3074  0.2429  0.1452
27302W        W40716  13.651  12.457   3.504 -0.1322  0.4114 -0.0858
27303W        W40717  12.078   9.761   1.065 -0.0568 -0.0407 -0.0491
27304W        W40718   4.217  13.732   5.202  0.2032  0.2160 -0.1743
27305W        W40719  16.100  13.693  14.804  0.0394  0.2657  0.1410
27306W        W40720   7.498  10.794  14.969  0.0184  0.0600 -0.0033
27307W        W40721   5.498   9.716   6.228 -0.3689  0.0627 -0.0813
27308W        W40722  16.710  15.054   1.645  0.2077  0.0227  0.0697
27309W        W40723   9.899   6.054  13.921  0.1701 -0.1688 -0.0536
27310W        W40724   0.622   6.689   1.688 -0.0242 -0.0298 -0.2609
27311W        W40725  16.800  12.832  14.519  0.0195 -0.1369  0.0517
27312W        W40726   4.090   7.829   2.261  0.3182 -0.2035  0.0151
27313W        W40727  15.557   3.130   3.297  0.2065  0.1652  0.4809
27314W        W40728  11.679   1.832  12.561  0.0772 -0.0951 -0.2533
27315W        W40729  14.350  14.342   2.322 -0.2112  0.1395  0.0445
27316W        W40730   9.245   0.151   2.351 -0.0102  0.2695 -0.0250
27317W        W40731  12.761   7.278   3.974 -0.0071 -0.2732 -0.2750
27318W        W40732  13.777  11.934   1.008  0.2504 -0.0255  0.2261
27319W        W40733   5.751   8.529   0.329 -0.0921 -0.1388  0.1561
27320W        W40734   4.599   2.287   9.866 -0.1115 -0.2187 -0.3959
27321W        W40735  14.942  14.094  15.517  0.1239 -0.0380  0.2410
27322W        W40736   1.198   2.776  11.098 -0.0406 -0.2077  0.1332
27323W        W40737   7.474  14.206   2.047 -0.0127  0.2922  0.0888
27324W        W40738  17.613   8.181   1.362 -0.3089 -0.1022 -0.0320
27325W        W40739  14.044  16.082  15.485  0.1779 -0.0945 -0.1950
27326W        W40740   7.526  14.273  12.222  0.0988  0.0021 -0.3568
27327W        W40741  13.833   7.713   2.116  0.0708  0.3975 -0.0466
27328W        W40742  13.099   9.505   1.251  0.0011 -0.1248  0.1868
27329W        W40743  16.728   8.996  15.716  0.1951  0.0356 -0.2636
27330W        W40744  16.313   4.195   4.138 -0.1197 -0.1657 -0.0862
27331W        W40745   6.441   8.623  11.219 -0.0228  0.0215 -0.0081
27332W        W40746   3.670   0.629  16.553 -0.0622  0.1527 -0.0118
27333W        W40747   9.633   7.953   0.295  0.2763  0.1888  0.0267
27334W        W40748   2.085  16.776  14.375 -0.1682 -0.0879 -0.1347
27335W        W40749   0.719  16.304  15.392  0.0352 -0.1550  0.3513
27336W        W40750  11.439  15.974   1.295 -0.0406  0.2039  0.1323
27337W        W40751  15.456   9.392  13.191  0.1783 -0.0857 -0.1944
27338W        W40752   2.544   3.989   3.534 -0.0572  0.0575 -0.0510
27339W        W40753  14.654   6.603  15.605 -0.0427 -0.0798 -0.3286
27340W        W40754  14.642   1.680  15.679  0.0927  0.0628 -0.1198
27341W        W40755   2.826   3.193   1.499  0.1766 -0.0607 -0.2249
27342W        W40756  15.768  12.504  12.856  0.0481 -0.0578  0.0342
27343W        W40757   2.256  14.658   3.164 -0.0740 -0.2265 -0.0558
27344W        W40758  11.065   7.010   4.670  0.0893 -0.0691 -0.1100
27345W        W40759   4.959   0.151  15.797  0.1158 -0.1764 -0.1715
27346W        W40760   7.327   6.150  13.104  0.0243  0.1660 -0.1307
27347W        W40761  15.387  12.819  12.795  0.0812  0.0112  0.1109
27348W        W40762   4.569  13.375  13.942  0.1124 -0.1396 -0.1332
27349W        W40763   3.703  15.323  12.937  0.0029 -0.3771  0.1556
27350W        W40764   9.225  13.747   2.840  0.2092 -0.0542  0.2035
27351W        W40765   9.982   9.974   4.234  0.1397  0.1215  0.0564
27352W        W40766   9.882   8.482   0.550 -0.1954 -0.1118 -0.0881
27353W        W40767   7.211   7.033  14.279  0.1864 -0.1042  0.0974
27354W        W40768  12.377   2.931  14.146 -0.1271  0.0955 -0.0053
27355W        W40769   4.068  11.471   1.011 -0.0566  0.0130 -0.1987
27356W        W40770   5.767   2.257  16.009 -0.2281 -0.1210  0.1557
27357W        W40771  14.621  11.435  16.782 -0.2118 -0.0571 -0.0705
27358W        W40772  10.359  16.273   2.604  0.0094  0.0126 -0.1912
27359W        W40773  12.997  17.834   1.487 -0.0375  0.1218  0.2307
27360W        W40774   1.555  13.640   9.661 -0.0153 -0.0551 -0.0184
27361W        W40775   2.352  10.619   3.025  0.1074  0.0426  0.0025
27362W        W40776   7.924   3.536   0.636 -0.0633 -0.1695 -0.0086
27363W        W40777   0.492  15.640  12.149  0.3110 -0.1232  0.0269
27364W        W40778   1.694  14.920  15.276 -0.1332  0.0170  0.1046
27365W        W40779   7.990   2.849   1.288 -0.1949 -0.0267  0.0855
27366W        W40780  15.690   7.584  12.004  0.0741 -0.0060 -0.0603
27367W        W40781  14.207  11.771   0.134 -0.2885 -0.0773 -0.0048
27368W        W40782  15.687  11.579  10.524  0.0978  0.1189  0.1229
27369W        W40783  17.894  11.041  16.401  0.0120  0.0373  0.0693
27370W        W40784  10.869  12.315   2.468 -0.0462  0.1954  0.1189
27371W        W40785   1.364  15.648   3.422 -0.3214  0.1027  0.0210
27372W        W40786  16.667   0.365  15.091 -0.0181  0.3075 -0.1950
27373W        W40787  16.160   2.021   4.673 -0.0492 -0.3886 -0.0125
27374W        W40788  17.364  16.276   3.201 -0.3876  0.0274 -0.0808
27375W        W40789  12.090  13.740  11.365 -0.2692 -0.2570  0.0692
27376W        W40790   2.244  13.520  15.256 -0.0089 -0.0722 -0.1645
27377W        W40791   9.769   0.744  12.721  0.0004 -0.0044 -0.2150
27378W        W40792  16.894  13.488  12.608  0.0933  0.1853  0.0066
27379W        W40793   1.427  10.493   2.453 -0.2146  0.0788  0.1136
27380W        W40794   7.501   7.012   1.771  0.0460 -0.0198  0.1972
27381W        W40795  16.542  10.263   0.501  0.2061 -0.3717  0.0073
27382W        W40796   7.737   9.363  12.944  0.1977  0.0425 -0.1005
27383W        W40797  12.687   1.060  13.968  0.1921 -0.1134  0.3169
27384W        W40798   5.254  12.366  16.572 -0.0392  0.0330  0.1610
27385W        W40799   1.361  13.522  11.452  0.1576 -0.3000 -0.0127
27386W        W40800   4.871  16.920   2.376  0.0446 -0.1897  0.1245
27387W        W40801   7.637   7.483  16.200  0.0848 -0.1124 -0.1222
27388W        W40802   5.583   7.808   3.947  0.5884  0.0561 -0.0416
27389W        W40803   1.258   5.724  13.978 -0.0294 -0.2139 -0.1409
27390W        W40804   6.014   0.704  13.077 -0.1014  0.0722 -0.0719
27391W        W40805  11.174   1.814  14.697 -0.1675  0.0944 -0.0725
27392W        W40806   1.123  15.231  10.292  0.2248 -0.2980  0.2987
27393W        W40807   9.971   5.811  15.141  0.0577 -0.0910 -0.0610
27394W        W40808   6.778  13.605   3.625 -0.1535 -0.1197  0.0736
27395W        W40809   2.075  14.494   4.423 -0.0124 -0.1333 -0.1543
27396W        W40810   9.151  13.918  13.396  0.0823  0.0355  0.0475
27397W        W40811  17.777  16.619  14.613  0.1919  0.0562  0.0984
27398W        W40812   7.351  16.325  13.696  0.2433  0.0234 -0.2604
27399W        W40813  12.616   4.421   5.084 -0.0696 -0.3171 -0.1336
27400W        W40814   9.494   4.938  10.497  0.4019  0.3112 -0.1692
27401W        W40815   6.937   8.450   2.568  0.1157 -0.1807  0.0745
27402W        W40816  16.088  17.483   4.690  0.2398 -0.1316 -0.1986
27403W        W40817   3.371   5.506  13.066  0.0678  0.1646  0.1489
27404W        W40818   9.959   7.033  11.174 -0.1026 -0.1751 -0.2615
27405W        W40819   3.189   7.055  14.444  0.1483  0.2549  0.1291
27406W        W40820  10.208  14.818  14.660  0.0161  0.2683  0.1205
27407W        W40821   5.974   8.815   5.446  0.0593 -0.4261  0.0987
27408W        W40822  16.547   9.046  12.384  0.1807  0.0886  0.1232
27409W        W40823  15.569  10.095  16.227  0.0209 -0.0602  0.3350
27410W        W40824   6.496  17.275  12.740  0.1022  0.0555  0.1582
27411W        W40825   1.980   1.045   0.200  0.0809 -0.1626  0.1186
27412W        W40826   8.565  16.105  12.216 -0.4221 -0.3064  0.3265
27413W        W40827   8.800   9.948   1.792 -0.1759 -0.0368 -0.0580
27414W        W40828  17.703   4.929   1.274  0.1113 -0.0548  0.0456
27415W        W40829  13.016   3.967  11.743 -0.0964 -0.0250  0.0597
27416W        W40830   1.836   1.152   4.196 -0.0865 -0.1297  0.4545
27417W        W40831  14.181  12.714  12.634 -0.1385  0.2071 -0.1980
27418W        W40832   3.577  14.649   2.632 -0.0762  0.2542 -0.0546
27419W        W40833   5.181   1.662   1.261 -0.1501 -0.1154 -0.0132
27420W        W40834  13.762  13.652  14.637 -0.2493 -0.1133 -0.1843
27421W        W40835   8.592   7.939   5.109  0.4764  0.1867  0.1165
27422W        W40836  13.465  16.457   6.134 -0.0414  0.0599  0.0600
27423W        W40837  15.251  16.279  15.718  0.2280  0.1815  0.1586
27424W        W40838  11.814   8.026  12.305  0.0273 -0.0569  0.0858
27425W        W40839  14.106   4.130  13.117  0.0924 -0.0483 -0.1252
27426W        W40840   5.914   3.970   0.762  0.1048  0.0545  0.0324
27427W        W40841   0.807  15.878   2.179 -0.0294 -0.0935  0.0876
27428W        W40842   4.462  12.273  15.340  0.1854 -0.1587 -0.3349
27429W        W40843   8.661  12.046   4.207  0.1591 -0.1400 -0.0008
27430W        W40844  16.129  12.714   1.999 -0.0989 -0.0835 -0.0117
27431W        W40845  11.824  12.459  16.587 -0.0905  0.2448  0.2496
27432W        W40846   5.344  15.679  11.738 -0.1325  0.0267  0.0742
27433W        W40847   9.063  16.670  13.805 -0.0973  0.0604 -0.0912
27434W        W40848   9.171   3.616  11.027  0.1587  0.0196 -0.0460
27435W        W40849  14.869   7.513  15.539 -0.1456 -0.1163  0.1203
27436W        W40850  11.326  10.711  15.299  0.1246  0.1348  0.0005
27437W        W40851   1.205  11.026   2.479 -0.0242  0.1992 -0.2129
27438W        W40852   5.787   4.742   5.371 -0.0091  0.0900 -0.0502
27439W        W40853  12.702  10.600  12.357 -0.0705 -0.6652  0.0591
27440W        W40854   7.608   5.665   0.022  0.0480  0.0532  0.0059
27441W        W40855  14.374  17.153   5.113 -0.2819  0.4144  0.0304
27442W        W40856   3.864  13.222  14.409 -0.1311  0.1553  0.3096
27443W        W40857  13.344   7.263   3.207 -0.1150 -0.4334  0.0333
27444W        W40858  10.142  15.668   3.426 -0.2787 -0.0612  0.3674
27445W        W40859  12.365  10.197  14.614 -0.2032 -0.1001 -0.3744
27446W        W40860   3.434   0.893  13.361 -0.3068  0.0641  0.1527
27447W        W40861   6.024  13.325   2.681 -0.0851  0.5892  0.0234
27448W        W40862   4.408   9.388  11.869 -0.0618 -0.2274  0.0581
27449W        W40863  13.833   6.960   0.648 -0.1933  0.2750  0.2770
27450W        W40864  15.174  11.692   6.234 -0.0600  0.0433  0.1891
27451W        W40865  17.720  17.848   2.596  0.0101  0.3621 -0.0401
27452W        W40866  13.103  11.887  11.836 -0.3606  0.1936 -0.2612
27453W        W40867   9.050   9.556   6.710 -0.2933 -0.1564 -0.0320
27454W        W40868  12.920   3.524   5.326  0.2501  0.0264  0.0753
27455W        W40869  17.331   3.979  10.395 -0.2833  0.1034 -0.3250
27456W        W40870  11.009   8.775   3.735 -0.0116  0.1902 -0.2244
27457W        W40871   1.846   8.989   2.159  0.0775 -0.0432  0.2113
27458W        W40872   4.221   2.561  15.000 -0.1219 -0.0907 -0.1808
27459W        W40873   3.519   7.418  14.348 -0.2533 -0.0847 -0.0947
27460W        W40874  13.586  13.692   5.678  0.2784  0.0872  0.1927
27461W        W40875   0.318  16.737   1.908 -0.0965 -0.1135  0.3120
27462W        W40876  12.375   6.831  15.645  0.1189 -0.0253  0.1621
27463W        W40877  14.546  17.383   2.525 -0.1511 -0.0569  0.2320
27464W        W40878   5.295  10.578  11.799 -0.1243  0.0217  0.3727
27465W        W40879  17.588  17.131   2.055  0.0751  0.1594  0.0752
27466W        W40880   7.993   1.897  11.277 -0.5401 -0.1943  0.0215
27467W        W40881   5.466   0.196   5.000 -0.2251 -0.1220  0.0464
27468W        W40882   6.132   5.367   0.130  0.1362 -0.3162  0.0663
27469W        W40883  16.455   1.550  15.495 -0.3511  0.2962  0.0544
27470W        W40884   0.365   2.928  11.087 -0.1608 -0.3063  0.2508
27471W        W40885  14.836  17.531  15.695 -0.0988  0.0034  0.2184
27472W        W40886   1.282   4.867  10.710  0.3977  0.0503 -0.1806
27473W        W40887  12.671  14.460   6.274 -0.3010  0.1248 -0.3246
27474W        W40888  15.183   0.347   1.082 -0.2157  0.2773 -0.0433
27475W        W40889   1.443   4.295  15.186 -0.2699  0.0421 -0.0482
27476W        W40890  11.518  13.936   1.889 -0.2043  0.0071 -0.1015
27477W        W40891   8.570  12.408  13.733  0.0715 -0.3229  0.1617
27478W        W40892   4.251   8.453  13.870 -0.0202  0.0364  0.0470
27479W        W40893  11.708   5.453   5.371 -0.2773 -0.0360 -0.3062
27480W        W40894   2.770   1.528   3.330 -0.1690  0.1246  0.2441
27481W        W40895   2.074   0.891  13.128  0.2091  0.0365 -0.0044
27482W        W40896  14.073   2.883   3.084 -0.0366 -0.2510 -0.0176
27483W        W40897  17.669  15.017  13.058 -0.3123 -0.2137  0.1334
27484W        W40898  10.123   9.112  12.555 -0.2209  0.0620  0.0141
27485W        W40899   9.330   7.311   1.658  0.0638 -0.0076 -0.0833
27486W        W40900   0.067   5.000  12.692 -0.2113  0.1695 -0.0285
27487W        W40901  11.131   0.621   1.530 -0.2837 -0.1436 -0.0023
27488W        W40902  13.652   7.400   0.715 -0.0093 -0.1717 -0.2306
27489W        W40903   2.566   1.798  15.395 -0.0086 -0.3074  0.1676
27490W        W40904   4.504  16.828  11.825  0.1654  0.0530 -0.0113
27491W        W40905  15.333   6.118   5.619 -0.0435 -0.0386 -0.1509
27492W        W40906  18.008   2.281  16.025  0.3111  0.2328 -0.0475
27493W        W40907   9.573  17.378   4.565 -0.1696  0.1689 -0.0929
27494W        W40908  15.801  16.956   4.027 -0.4194  0.0411 -0.0505
27495W        W40909   2.860   1.974   1.939  0.1116  0.0202  0.1297
27496W        W40910  16.898   3.760   6.387  0.3544 -0.0492 -0.0867
27497W        W40911   0.576  13.560   4.534 -0.2002  0.0950 -0.3144
27498W        W40912  13.158   6.614   2.492  0.3059 -0.0303  0.1869
27499W        W40913   4.429  12.930  11.565 -0.1284  0.1427 -0.1881
27500W        W40914   8.359  12.201  11.672  0.1328  0.1057 -0.0939
27501W        W40915  16.806  12.425  15.717  0.2998  0.2069  0.0899
27502W        W40916  10.729  11.679  14.298 -0.1723  0.1791  0.0209
27503W        W40917  12.119   7.386   2.018 -0.1878  0.0740 -0.0892
27504W        W40918   6.874   3.201  16.099  0.2175 -0.4758 -0.0802
27505W        W40919   3.849   3.691   0.389  0.0430 -0.0860  0.0514
27506W        W40920   4.876   6.843   1.507 -0.1746 -0.1683 -0.0682
27507W        W40921  15.875  10.483   4.117 -0.2311  0.2553 -0.0514
27508W        W40922   1.014  10.540  12.997 -0.2136  0.2583  0.2709
27509W        W40923   4.296  12.844  15.476 -0.1015 -0.2621 -0.2323
27510W        W40924   1.604  13.921  11.863  0.1811  0.0754  0.0561
27511W        W40925  13.965   8.429  14.334 -0.1095 -0.0210 -0.1984
27512W        W40926  11.088  14.870   4.529 -0.2410  0.0971 -0.1649
27513W        W40927  12.659  12.574   0.463  0.2683 -0.2713 -0.5534
27514W        W40928   1.459   2.687  16.383 -0.1075  0.1368 -0.1635
27515W        W40929   4.363  12.396  16.559  0.0641  0.2354 -0.1095
27516W        W40930  15.396   3.563  15.121  0.3826 -0.3318 -0.0575
27517W        W40931  17.925   1.914  15.627 -0.0193 -0.5025  0.0441
27518W        W40932   0.495  17.747  11.696  0.0065 -0.0850 -0.1951
27519W        W40933   6.574  12.491   1.698 -0.0148  0.1359  0.0620
27520W        W40934   0.988  16.315   4.007 -0.2616 -0.0831  0.1044
27521W        W40935  13.597   5.713  12.448  0.1382 -0.0081 -0.0229
27522W        W40936  17.853   7.720  15.543  0.0311 -0.3051 -0.0113
27523W        W40937   6.587   5.029  14.401  0.1234  0.1884 -0.2336
27524W        W40938   3.015  13.759   0.593  0.0857 -0.1347  0.2364
27525W        W40939  16.359  17.270   0.694  0.0469 -0.1226  0.1169
27526W        W40940  16.721   0.239   1.074 -0.0647 -0.0016 -0.2092
27527W        W40941  11.210   7.734  15.437  0.1309 -0.2072  0.3002
27528W        W40942   1.311  11.165   5.056 -0.0294  0.0335  0.0142
27529W        W40943   2.922   1.552   4.229  0.3634 -0.2509 -0.2306
27530W        W40944   9.494   5.246  16.293 -0.3362  0.1317 -0.2543
27531W        W40945   8.369   3.935  11.650 -0.3156 -0.0112  0.1031
27532W        W40946   7.356   7.405  15.772  0.1206  0.5603 -0.1046
27533W        W40947  10.547   5.876  10.804 -0.3388 -0.0005 -0.2294
27534W        W40948  12.701  10.116   6.431 -0.0029  0.0635 -0.1279
27535W        W40949   6.546   4.533   0.895  0.1992 -0.3400  0.3944
27536W        W40950  14.452  13.564   1.084 -0.0308 -0.1382  0.2386
27537W        W40951  17.249   8.469  15.878 -0.3254  0.0167  0.1218
27538W        W40952  10.398  16.494  15.633 -0.2434  0.0486 -0.2210
27539W        W40953   4.954  14.046  15.911 -0.2072  0.1755 -0.2750
27540W        W40954  16.713  12.881   5.429  0.1537  0.4330 -0.0840
27541W        W40955   3.925   0.254  15.181  0.0483 -0.2025 -0.1677
27542W        W40956  16.658   8.433  10.155 -0.1383  0.0102 -0.1914
27543W        W40957   6.060   4.336   5.357  0.0121  0.2035 -0.2609
27544W        W40958   9.232  16.273   3.987 -0.0708  0.0939 -0.1804
27545W        W40959   5.189   4.023  12.276 -0.0320  0.0517  0.2272
27546W        W40960   4.915   2.260   1.945  0.0599 -0.1845 -0.1676
27547W        W40961  13.699  14.540   6.669 -0.1438 -0.1749 -0.3438
27548W        W40962  17.946  17.048  14.759  0.1791 -0.0656 -0.0754
27549W        W40963   5.680  13.970  16.410  0.1620  0.0044 -0.0762
27550W        W40964   8.458  14.380   5.762 -0.2489 -0.2025  0.2330
27551W        W40965   9.903  12.203  16.394  0.0581 -0.0447  0.2906
27552W        W40966   2.070   0.957  15.288  0.0050 -0.0867  0.2439
27553W        W40967  14.705   8.203   2.701 -0.3573  0.0513  0.0857
27554W        W40968  12.339   5.275   1.105  0.3867  0.0614 -0.1307
27555W        W40969   9.431   3.342   1.598 -0.0113 -0.0946  0.0958
27556W        W40970   8.682  15.634   4.521 -0.0533 -0.0329  0.1389
27557W        W40971  14.509  14.910   4.490  0.2408  0.0462 -0.0645
27558W        W40972   1.543  10.987  13.686 -0.2283  0.2033  0.0260
27559W        W40973   7.945   4.986  13.026 -0.0081 -0.0764 -0.1305
27560W        W40974   2.011  10.050  14.363 -0.2325 -0.0414  0.1452
27561W        W40975  13.250  15.065   0.192 -0.0485  0.2882  0.0412
27562W        W40976  13.430  17.216  12.696 -0.0405  0.2466 -0.0304
27563W        W40977   7.834  12.376   6.120  0.3705  0.0621 -0.3217
27564W        W40978   8.259   7.898  14.015 -0.1545  0.4338 -0.0394
27565W        W40979  17.980   0.656  13.033 -0.0285  0.1396  0.4307
27566W        W40980  15.939  10.855   5.567  0.3049 -0.0304 -0.0734
27567W        W40981   7.881  17.187   4.961 -0.0016 -0.3132 -0.1184
27568W        W40982  10.753   0.045   5.145  0.1014  0.0250  0.0292
27569W        W40983   2.940  11.961   0.440 -0.2565 -0.0496  0.2865
27570W        W40984   5.215  12.696   6.349  0.0265  0.2432  0.1022
27571W        W40985  16.605  14.159   5.603  0.2222 -0.2099  0.0782
27572W        W40986   4.794  14.250  13.562 -0.4079 -0.1661 -0.1493
27573W        W40987   8.248  16.916  11.661 -0.1028  0.0498  0.0748
27574W        W40988  17.992   8.448   1.237  0.1028 -0.1112  0.0598
27575W        W40989  17.912   3.028   2.306 -0.1908  0.2944 -0.3949
27576W        W40990  14.135  16.679  15.060 -0.0887  0.0370  0.0449
27577W        W40991  12.292   8.631  15.003  0.0595  0.0935  0.0953
27578W        W40992  17.477   4.545  12.206  0.3016 -0.2231 -0.1212
27579W        W40993   0.123   8.050   4.071  0.1762  0.1461  0.0166
27580W        W40994   4.037   3.864   1.317  0.5245 -0.1053  0.1212
27581W        W40995   3.099  16.629  16.006 -0.1777  0.2113  0.0979
27582W        W40996  12.596  17.783   5.183  0.0534  0.1847 -0.1359
27583W        W40997  11.448   4.171  14.946  0.2215  0.0520  0.0235
27584W        W40998   4.375  12.310   2.226  0.2169 -0.1987 -0.1654
27585W        W40999  14.434  14.080   0.500  0.0856 -0.1292 -0.0060
27586W        W41000   5.236   7.507  12.117 -0.2681 -0.0168 -0.2540
27587W        W41001   6.557   8.858   4.182 -0.4798  0.2971 -0.1812
27588W        W41002  17.743   9.406   3.862 -0.0075 -0.0404 -0.0346
27589W        W41003  17.350   4.588   6.353  0.3513  0.2986 -0.1985
27590W        W41004  16.091   5.446  11.864 -0.0497  0.0235 -0.0107
27591W        W41005   0.606  17.801   0.242 -0.1149 -0.4098  0.0182
27592W        W41006  10.345   8.915  16.605  0.0073  0.1680  0.3651
27593W        W41007  16.577   0.198  13.017 -0.0408  0.0189  0.0149
27594W        W41008  14.408   5.739   4.954 -0.1220 -0.1082 -0.2327
27595W        W41009   5.717  16.439  15.705  0.1258 -0.0890 -0.0674
27596W        W41010  16.066  11.123  15.788  0.2283 -0.5356  0.0816
27597W        W41011  14.344   0.549   5.236 -0.0306  0.1763  0.1528
27598W        W41012   1.732   9.565   2.234 -0.0727 -0.2593  0.4262
27599W        W41013  15.319  13.679  14.315 -0.0661 -0.1774  0.1252
27600W        W41014   3.815   5.155   1.585 -0.0529 -0.1909 -0.1342
27601W        W41015  13.190  16.698   4.039  0.1250  0.1411 -0.0329
27602W        W41016   8.046   6.680  12.685  0.1034  0.0810 -0.0026
27603W        W41017   6.709   4.648  12.498  0.0309 -0.2540 -0.0782
27604W        W41018  10.118   3.048   3.654  0.1520 -0.0387 -0.2111
27605W        W41019  11.639  17.850   1.301 -0.0574 -0.0561 -0.0888
27606W        W41020   3.589   9.294  14.090 -0.3133 -0.3500  0.1468
27607W        W41021   0.348   0.549   5.849 -0.0512  0.1145  0.2066
27608W        W41022  17.668   5.638   3.156  0.0802 -0.2123 -0.1930
27609W        W41023  17.036  10.143   3.169 -0.0761 -0.1387  0.1278
27610W        W41024  10.498  17.959   4.322 -0.4027 -0.1089  0.0987
27611W        W41025   9.933   3.102  14.479  0.2053  0.0449  0.4319
27612W        W41026   3.245  11.720   4.264 -0.1488 -0.2702  0.0719
27613W        W41027  16.547  16.531   4.648  0.0416 -0.3506 -0.1872
27614W        W41028   6.231   8.924  15.517  0.4328  0.0237 -0.1408
27615W        W41029   8.603   1.032  13.631 -0.2346  0.2227  0.0919
27616W        W41030  15.967   3.339  15.191 -0.4195  0.0584  0.2074
27617W        W41031   5.589  11.033  15.407 -0.1730 -0.1050 -0.2666
27618W        W41032   0.411   8.074  11.208 -0.0118  0.2279 -0.1262
27619W        W41033  10.325   2.055   3.203 -0.0655  0.0477  0.0171
27620W        W41034  10.715   1.231   4.478  0.0923 -0.1116  0.1839
27621W        W41035   6.385  12.334   2.740  0.0456  0.0518 -0.0469
27622W        W41036  16.465   8.472   0.763  0.1505 -0.0292 -0.1503
27623W        W41037   5.923  16.732  16.123 -0.2789 -0.0828  0.2088
27624W        W41038   9.351  13.504   2.429  0.3959  0.4243 -0.2826
27625W        W41039   0.448  17.929  16.155  0.2386 -0.0686  0.2635
27626W        W41040  15.333  13.028  15.262 -0.0474  0.0170  0.0194
27627W        W41041   6.380  17.725  15.426 -0.2327  0.1639 -0.1029
27628W        W41042   2.842   8.717  15.252 -0.0442 -0.0029 -0.1367
27629W        W41043   7.803  16.953  10.625 -0.1077 -0.3147  0.2400
27630W        W41044  16.929  10.597  16.272 -0.2348  0.0364 -0.0855
27631W        W41045  16.593   7.186  15.064  0.1656  0.1306 -0.2437
27632W        W41046  15.263   4.767  11.561  0.0618 -0.1460 -0.3212
27633W        W41047  14.972   8.597  15.084  0.1189 -0.0398 -0.1441
27634W        W41048   5.146  10.075  12.010 -0.1397  0.3473  0.0254
27635W        W41049  12.760  17.387  11.869 -0.1237  0.0180  0.2376
27636W        W41050   8.764   6.623   5.865  0.0091  0.2348  0.2787
27637W        W41051  17.848   0.373  14.952  0.1042 -0.1085 -0.1116
27638W        W41052   5.032   5.042   3.468 -0.1990 -0.0253  0.0085
27639W        W41053   7.714   9.294  11.856  0.0020  0.0518  0.4502
27640W        W41054   2.644  14.663  13.649  0.0889  0.0745  0.0040
27641W        W41055  13.714   4.537  12.863  0.0247 -0.1320  0.1339
27642W        W41056  11.698   5.039   4.975  0.1480 -0.0804  0.2061
27643W        W41057   9.354  12.051  15.655  0.1687  0.1097 -0.1771
27644W        W41058   3.274   9.439   3.169  0.1126 -0.0489  0.1088
27645W        W41059   7.112   0.177   3.719 -0.0196  0.0817 -0.0658
27646W        W41060   0.118  10.315  11.056 -0.0515  0.3030 -0.0508
27647W        W41061   6.075   4.820   6.167 -0.1242 -0.0512  0.0693
27648W        W41062  15.813   5.482  14.791  0.0147  0.2406 -0.1780
27649W        W41063   9.241   3.479   2.016  0.1097 -0.0733 -0.4208
27650W        W41064   0.459  15.612  14.272 -0.2375  0.0628 -0.2363
27651W        W41065  11.442   9.654   1.235  0.0938  0.0813 -0.0985
27652W        W41066  14.933   9.553   1.850  0.0952  0.1562  0.0942
27653W        W41067   4.418   4.194  13.137 -0.1070 -0.3278 -0.2001
27654W        W41068  14.092  16.535  15.609 -0.0005  0.0064 -0.0790
27655W        W41069  15.021  12.509   6.510  0.0044  0.2008  0.1841
27656W        W41070  11.597   4.275  14.156 -0.1718  0.4354  0.1533
27657W        W41071   8.810  16.901   4.351 -0.0534 -0.2071 -0.0890
27658W        W41072  15.203   0.129  13.504 -0.0280 -0.1946  0.0431
27659W        W41073   0.381   5.466   1.181  0.0546 -0.0120 -0.1033
27660W        W41074   3.129  10.735  11.414 -0.0419 -0.2251  0.1733
27661W        W41075  15.637  13.484  12.072  0.1843  0.0419  0.2307
27662W        W41076  15.258  16.236  11.670  0.0560  0.0946  0.1107
27663W        W41077   0.891  11.049   2.876 -0.0437  0.1968 -0.0611
27664W        W41078  10.178  14.868  13.657 -0.1381 -0.1261 -0.0927
27665W        W41079   1.660   1.115  11.363 -0.1556 -0.1028 -0.2945
27666W        W41080  11.596  13.532  12.932 -0.1579 -0.0587  0.3524
27667W        W41081   3.940   0.848   2.887  0.0135  0.0971 -0.0905
27668W        W41082   2.514   4.956  12.872 -0.0524 -0.1224  0.0682
27669W        W41083   8.475   4.851  13.727 -0.0605 -0.3075 -0.0100
27670W        W41084  17.632   9.106  16.621  0.0766  0.0259  0.1659
27671W        W41085   4.914  10.295  10.529 -0.1727  0.0504  0.0605
27672W        W41086   1.736  16.682  12.027 -0.0141  0.1274  0.1035
27673W        W41087   9.743   0.256  16.783 -0.2731  0.0595 -0.2227
27674W        W41088   8.839  12.371  15.003  0.1099 -0.0348 -0.2404
27675W        W41089   4.797  17.931  14.889 -0.0402 -0.0314  0.1407
27676W        W41090  11.878   2.146   4.555  0.3495 -0.1748  0.4448
27677W        W41091   6.549   7.946  10.421 -0.2937  0.2365  0.2030
27678W        W41092  14.210  11.147  16.540 -0.0555 -0.1220 -0.0505
27679W        W41093   1.964  10.735   1.736 -0.3106 -0.0802 -0.0272
27680W        W41094   4.501   7.328  16.197  0.3730  0.0737  0.0632
27681W        W41095   5.662  13.065  12.688 -0.0080  0.3248  0.2698
27682W        W41096   9.082  13.560   0.390  0.1624  0.0111 -0.0009
27683W        W41097  10.244  16.036  13.075 -0.1157  0.2251 -0.4287
27684W        W41098   9.745   0.684   1.019  0.0408  0.2597  0.6245
27685W        W41099  12.870   7.890   1.194 -0.1749  0.0920 -0.1178
27686W        W41100   5.008  10.059  15.221  0.1811 -0.0428 -0.0450
27687W        W41101  10.639   6.924   3.567 -0.2878  0.0512 -0.0504
27688W        W41102   1.090  11.142  14.761  0.1690 -0.0955 -0.1259
27689W        W41103  16.110  10.904   0.972  0.1925 -0.0620 -0.2089
27690W        W41104   1.962   8.271  10.974 -0.1508  0.1719  0.2315
27691W        W41105   9.560   2.472  12.676 -0.1522 -0.1648 -0.3818
27692W        W41106   3.537  10.277  13.033  0.2443  0.0053 -0.2118
27693W        W41107   4.346  17.505  15.438 -0.2870  0.1220  0.1735
27694W        W41108  13.210   4.434  13.072 -0.0881  0.1475  0.1337
27695W        W41109  13.314   9.176  16.354  0.0409  0.3698 -0.0904
27696W        W41110   3.596  12.832  11.434  0.0640 -0.2094  0.2022
27697W        W41111   5.887   0.116   5.331  0.1300  0.1735 -0.5419
27698W        W41112   6.241   8.269   2.314  0.0445  0.5641  0.0910
27699W        W41113   3.024   4.533  15.910 -0.2534 -0.0236  0.1249
27700W        W41114  10.707  10.941  15.872  0.3166 -0.2477 -0.1538
27701W        W41115   2.351   7.481   6.653 -0.2816 -0.1803 -0.0237
27702W        W41116   3.131  15.288  13.025 -0.0815  0.1778 -0.1688
27703W        W41117   8.244   5.152   0.736 -0.0214 -0.2842 -0.1842
27704W        W41118  16.697   7.831   6.160 -0.1895  0.2356 -0.1337
27705W        W41119   6.459   3.990   4.687  0.0382 -0.1717 -0.1696
27706W        W41120   1.977  15.619   2.442 -0.1155  0.0402  0.0132
27707W        W41121  13.362   7.272  12.437  0.1085  0.3274  0.0983
27708W        W41122   1.316  12.913  12.599  0.1583  0.0534  0.0448
27709W        W41123   5.720   3.833  12.170  0.3792 -0.1547 -0.2085
27710W        W41124   1.065   8.345   5.309 -0.0738 -0.1087  0.2460
27711W        W41125   0.395   4.974   4.245  0.1031  0.0696  0.0497
27712W        W41126   0.147  11.514  16.429 -0.1627  0.1803 -0.2496
27713W        W41127  10.422  17.781  15.613  0.1289  0.1828 -0.0745
27714W        W41128   5.243   4.729   4.885 -0.1407  0.1495 -0.5067
27715W        W41129  13.691  14.816   1.226  0.0234  0.1334 -0.0215
27716W        W41130   9.622   5.325   4.811 -0.0229 -0.0458 -0.2053
27717W        W41131   8.139  16.646  10.809 -0.1861 -0.0587 -0.2221
27718W        W41132   5.169  10.560  15.113 -0.2154  0.0707 -0.2742
27719W        W41133   6.823  12.862  13.409 -0.1712 -0.0228  0.1283
27720W        W41134   5.304  11.217  13.122  0.0676 -0.1444  0.2491
27721W        W41135  16.296   6.200  13.592  0.0351 -0.0169  0.0338
27722W        W41136   7.825  11.101  13.299  0.1656  0.1625  0.2037
27723W        W41137  16.376  11.352  12.907  0.2875 -0.6196  0.2310
27724W        W41138  14.284   6.060  16.667  0.0119  0.1940 -0.1714
27725W        W41139  16.033   4.809   3.347  0.2256  0.1702  0.0526
27726W        W41140   1.654   3.867   4.480 -0.2313  0.1387 -0.1176
27727W        W41141   0.372  14.724   5.458  0.2131 -0.0845  0.0681
27728W        W41142  16.179   0.518   3.224  0.0457  0.0877 -0.0375
27729W        W41143  12.650   6.309   3.757 -0.1892 -0.0230  0.0386
27730W        W41144   3.395  16.913  13.364 -0.0957  0.0365  0.1177
27731W        W41145   0.498   8.309   3.870 -0.0066 -0.0177 -0.2270
27732W        W41146  10.994   5.232  14.754  0.2893 -0.0936 -0.0724
27733W        W41147   6.303   9.888   0.713  0.2646 -0.2368  0.4690
27734W        W41148  17.490   9.525   4.434  0.0500  0.1455  0.1567
27735W        W41149   1.672  15.713   3.880 -0.1153  0.0908 -0.1212
27736W        W41150  17.474   0.853  15.839  0.0044  0.1094  0.1571
27737W        W41151   3.694   0.936   3.925  0.2325  0.1687  0.0028
27738W        W41152   0.489  17.595  12.463 -0.0503 -0.1063 -0.0274
27739W        W41153  17.533   7.449   4.788  0.1817 -0.1742 -0.2067
27740W        W41154  14.148   2.254   4.831 -0.1311 -0.0066  0.0762
27741W        W41155  15.012  17.561   0.332  0.0808  0.0017  0.0616
27742W        W41156   6.847   3.173  14.325  0.0114  0.2593 -0.1599
27743W        W41157   5.582   1.371   1.351  0.1494 -0.2996 -0.0116
27744W        W41158  12.835  10.393  13.746 -0.0679 -0.0921  0.0906
27745W        W41159  13.480   4.132  11.245 -0.0160  0.0093 -0.1075
27746W        W41160  17.805   9.533  16.342  0.1767  0.1758  0.0766
27747W        W41161  16.125   9.756   5.638 -0.0095  0.2683  0.3161
27748W        W41162  10.433  12.225   0.940  0.1994 -0.2954  0.0554
27749W        W41163  10.829   4.942   2.295 -0.3806 -0.1593 -0.0988
27750W        W41164   1.755  14.882  10.791 -0.2244 -0.1508 -0.0158
27751W        W41165   1.001  12.005   4.533 -0.0332 -0.1005  0.0494
27752W        W41166   0.723  10.809   2.186  0.2339  0.3512  0.0360
27753W        W41167   6.239   7.763  15.277  0.2697  0.3066 -0.1640
27754W        W41168   2.182   5.341  14.642  0.1230 -0.3345 -0.1993
27755W        W41169   9.766   1.786  11.295 -0.0042 -0.1571  0.1210
27756W        W41170   8.857  17.125  12.794 -0.0813 -0.3309 -0.2410
27757W        W41171  12.917   9.752   4.914  0.0274 -0.0116 -0.1790
27758W        W41172  11.572  14.431   6.020 -0.1276  0.1598 -0.3094
27759W        W41173   1.898  10.486  14.578  0.3766  0.1406  0.0513
27760W        W41174   0.456  13.093   5.291  0.1049  0.0755 -0.0252
27761W        W41175   6.352  12.281   3.338 -0.0206  0.3123 -0.3354
27762W        W41176   2.007  15.185   5.091 -0.0833 -0.3944 -0.1344
27763W        W41177  17.051  13.201  12.968  0.0080 -0.0439  0.1527
27764W        W41178  17.706   0.223   5.255 -0.1847 -0.0406 -0.0481
27765W        W41179   6.486   8.212  11.805  0.2077 -0.2961  0.0124
27766W        W41180  13.363  17.253  13.632  0.2634  0.2862 -0.2294
27767W        W41181  11.802  10.462  12.621 -0.2636  0.2292 -0.0815
27768W        W41182   3.390  16.846  12.177 -0.0611 -0.1022 -0.1113
27769W        W41183   3.149  12.607  11.290  0.0955  0.0319 -0.3132
27770W        W41184   0.054   6.950   5.359  0.2034 -0.3091  0.1006
27771W        W41185  11.113  15.928  14.611 -0.0917  0.0014  0.1559
27772W        W41186   7.685  14.237   6.005  0.1651  0.0757 -0.0090
27773W        W41187  15.970   0.845   5.680  0.2113  0.2350 -0.0860
27774W        W41188  16.943   7.229  12.738  0.3237 -0.1119 -0.1089
27775W        W41189   6.998   0.928  15.836  0.2437 -0.0201  0.0377
27776W        W41190  15.598  10.994   3.795  0.0535 -0.0528 -0.2079
27777W        W41191   7.021   9.868   2.878 -0.2233  0.1047  0.0842
27778W        W41192   7.544   5.977  14.673 -0.0513  0.1137 -0.1896
27779W        W41193  16.089   9.438   2.461 -0.0468  0.0879 -0.1543
27780W        W41194   7.179   3.054  12.187  0.0445 -0.2692  0.2740
27781W        W41195   9.737  17.775   4.932  0.2609  0.0871  0.2063
27782W        W41196  13.461  12.617  14.099 -0.0700  0.0723  0.0748
27783W        W41197   9.457   1.640   1.846 -0.0586  0.1691  0.1554
27784W        W41198  17.372   3.783   4.430  0.2439  0.5678  0.1171
27785W        W41199  17.416  16.922   3.671  0.0760 -0.0123  0.2453
27786W        W41200  17.629  17.629  12.139 -0.0702 -0.1759  0.1898
27787W        W41201   0.558  12.335   0.338 -0.2498  0.1685  0.0595
27788W        W41202  14.826  15.905  14.028  0.0585 -0.0643  0.0728
27789W        W41203   2.405   0.175  13.965 -0.0592  0.2317 -0.0203
27790W        W41204   5.728   4.923   0.805 -0.0882 -0.0710  0.0830
27791W        W41205   0.713  12.388  14.666 -0.1714  0.0398 -0.0851
27792W        W41206  17.959  14.972  13.500 -0.0802 -0.1188  0.0317
27793W        W41207  13.808  16.963  12.937  0.1224 -0.2600 -0.0578
27794W        W41208   6.266  15.896  15.025 -0.1609 -0.0708 -0.1560
27795W        W41209   7.709   8.141  15.264  0.2342  0.1353 -0.2353
27796W        W41210  14.492   6.477  16.297  0.1683  0.0918 -0.1689
27797W        W41211  13.257   6.740  11.534  0.1711  0.0501  0.2378
27798W        W41212  10.602   4.994  13.390 -0.1574 -0.0750 -0.0142
27799W        W41213   8.334   1.113  14.926  0.0360 -0.0197  0.1810
27800W        W41214   6.280   3.060  12.191  0.0964  0.1624  0.1348
27801W        W41215  10.262   3.810  16.548 -0.0308  0.3090 -0.2435
27802W        W41216  14.932   5.749  15.418 -0.0264  0.0185  0.0227
27803W        W41217   5.255   1.888  13.710  0.0229  0.0727 -0.0405
27804W        W41218  15.912   1.457  16.703 -0.0216  0.0055  0.3333
27805W        W41219   2.246   5.055  15.060  0.1750  0.1645  0.1006
27806W        W41220  14.144  12.511  11.238  0.0471  0.1371  0.3952
27807W        W41221  15.228  13.643   0.500  0.2327 -0.0933 -0.2593
27808W        W41222   8.786  15.827  13.414  0.0381  0.3470 -0.1936
27809W        W41223   0.267  12.388   3.822  0.0588 -0.1008 -0.0551
27810W        W41224   9.139   4.523   1.425  0.1761  0.1206  0.2170
27811W        W41225   5.963   3.452   5.197  0.0759  0.0987  0.0705
27812W        W41226   3.905   3.002  13.068 -0.0806  0.2252  0.3919
27813W        W41227   8.288   2.503  10.516 -0.0104  0.1043  0.3611
27814W        W41228  15.696  12.287  12.025 -0.1208 -0.0022  0.4552
27815W        W41229  10.206  14.928  12.769 -0.0241  0.3858  0.0886
27816W        W41230  16.987  14.362  16.453  0.0136  0.1244 -0.0568
27817W        W41231  15.598   2.806  15.688  0.0321  0.0092 -0.2272
27818W        W41232  11.578   5.967  16.140  0.1615  0.2762  0.1859
27819W        W41233  17.995   9.627  14.463  0.0457  0.0583  0.0735
27820W        W41234   0.657  14.958  13.153 -0.1140  0.0432 -0.2391
27821W        W41235  17.317   4.954   2.690 -0.0249  0.2253 -0.3035
27822W        W41236  11.401  14.901  12.038 -0.0354 -0.0272 -0.2292
27823W        W41237  10.252  11.783   5.489 -0.0143  0.1025  0.2574
27824W        W41238   9.950   2.300   3.907  0.0751 -0.0962  0.0369
27825W        W41239   2.391   6.140   2.157 -0.0945  0.0670  0.1267
27826W        W41240  11.425   7.894  11.580 -0.2445 -0.1124  0.1048
27827W        W41241  12.627  13.564   2.459 -0.2539  0.0826  0.2658
27828W        W41242   5.480   4.496  13.674 -0.1129  0.0509  0.1209
27829W        W41243   4.241   9.752   2.644 -0.0061 -0.1751  0.0752
27830W        W41244   6.533  12.052   4.191 -0.0325 -0.1600 -0.1464
27831W        W41245   0.011  11.064   1.406  0.1437  0.2069  0.0102
27832W        W41246   1.739   6.807  14.596 -0.0071  0.3055 -0.0374
27833W        W41247  11.434   5.787  11.635  0.2390 -0.4323 -0.3691
27834W        W41248  13.967  13.344   5.577  0.0851 -0.0975 -0.2010
27835W        W41249   3.927   2.955   3.363  0.2695 -0.0212 -0.1623
27836W        W41250   1.100   4.032  16.579  0.1097 -0.2556 -0.0662
27837W        W41251   3.782  16.182   1.764  0.0627  0.0775 -0.0331
27838W        W41252   9.658  13.874   3.748 -0.3056  0.2499  0.1323
27839W        W41253   2.177  16.503  16.350  0.0057  0.1102 -0.0234
27840W        W41254  12.155   5.977  14.255 -0.2728 -0.0716  0.1901
27841W        W41255  11.229  12.158   4.154  0.3708 -0.1966 -0.0275
27842W        W41256  12.535   9.029   2.403  0.1659  0.1680 -0.1061
27843W        W41257   1.131   1.224  12.523 -0.0469  0.1835 -0.2664
27844W        W41258  15.628  17.171   5.019 -0.1830 -0.0163  0.2953
27845W        W41259  14.326  12.545  11.721 -0.2480 -0.1129  0.0284
27846W        W41260   0.207   6.731   3.885  0.1404 -0.1071 -0.0824
27847W        W41261  12.784  14.570  14.229 -0.3080  0.2424  0.3367
27848W        W41262  13.131   1.307   0.191 -0.1005 -0.3982 -0.0843
27849W        W41263   5.475  12.656   3.220  0.2988  0.2511 -0.1649
27850W        W41264   3.600  10.519   2.598 -0.0288 -0.0699 -0.2141
27851W        W41265   5.746  13.096  11.866  0.0083  0.1279 -0.1516
27852W        W41266   8.878   4.416  12.036  0.0225  0.0139 -0.1280
27853W        W41267   5.211   8.780   5.744  0.1262 -0.0628 -0.2609
27854W        W41268   3.998   8.300   2.580  0.0754 -0.1393  0.0881
27855W        W41269  14.150   5.162   0.560 -0.1318 -0.2791  0.2562
27856W        W41270   4.523   8.817  11.822  0.1998 -0.1931 -0.0619
27857W        W41271  13.494  13.393   6.308  0.0332 -0.1566 -0.2831
27858W        W41272  11.124   7.263  15.318 -0.1346 -0.0262  0.0249
27859W        W41273   9.370   5.896   1.300 -0.0914  0.1475 -0.0570
27860W        W41274  10.052   9.348  15.076 -0.1248  0.1331 -0.0014
27861W        W41275  14.233  14.619  10.675  0.1415  0.1004 -0.2151
27862W        W41276  12.176  11.604   2.736  0.1230 -0.1318  0.0279
27863W        W41277   4.544   2.150  13.934 -0.0781 -0.0160 -0.1391
27864W        W41278  14.053   4.119   1.159 -0.0758 -0.0781  0.0581
27865W        W41279  15.378  11.904  11.885  0.1242  0.0154  0.0434
27866W        W41280   0.099  15.716   3.135 -0.1227 -0.2231  0.0982
27867W        W41281   9.795  14.429   4.089 -0.1949  0.2671 -0.2228
27868W        W41282   4.035   5.268  12.830 -0.1640  0.2367 -0.3585
27869W        W41283   6.259   7.548   0.542  0.2079 -0.1159  0.0596
27870W        W41284   2.109   0.820  13.625  0.1224 -0.0656 -0.2046
27871W        W41285  17.694   6.849  15.103  0.1814 -0.2381  0.1767
27872W        W41286  11.731  11.488  11.647 -0.1403 -0.2190  0.2168
27873W        W41287   8.464  17.879   2.492  0.2637 -0.0914 -0.2035
27874W        W41288  10.465   7.163  16.723 -0.0997 -0.0720  0.0549
27875W        W41289   1.090   5.251  16.196 -0.1443  0.0908  0.3562
27876W        W41290   7.355  15.917  16.465 -0.2446 -0.1666 -0.1459
27877W        W41291   0.665  11.341  16.777  0.1272  0.3825  0.0680
27878W        W41292  17.910  12.031  10.630 -0.1613  0.1192  0.3258
27879W        W41293   0.563   7.431  14.694 -0.0711  0.0784 -0.1525
27880W        W41294   8.066  10.652   0.177 -0.2030  0.0710 -0.3675
27881W        W41295   3.986   4.138   0.250  0.0328 -0.2063 -0.0863
27882W        W41296  15.526  14.878  14.830  0.2799 -0.2225  0.3312
27883W        W41297   6.112   8.486   2.870  0.0390 -0.1317 -0.1890
27884W        W41298   7.702  10.371   5.980 -0.2365  0.1700  0.0827
27885W        W41299   9.811  11.540  16.766  0.1248  0.0543  0.1075
27886W        W41300   3.960   3.686   2.705  0.0178 -0.1368  0.1298
27887W        W41301  17.794   1.664  14.235  0.1763 -0.3490  0.0506
27888W        W41302  10.989  15.471   0.938  0.1518 -0.2774  0.3108
27889W        W41303  11.069  12.444  11.299  0.1995  0.3075 -0.1265
27890W        W41304  15.738  16.508   5.592  0.1344 -0.2087  0.2807
27891W        W41305   6.977   5.370   5.330 -0.0038  0.1427  0.2713
27892W        W41306   3.971  15.742  10.298  0.1466  0.0684 -0.0089
27893W        W41307   7.155   3.151   2.621  0.2966 -0.0345 -0.1430
27894W        W41308  14.523   5.294  16.652  0.2271  0.0304 -0.0301
27895W        W41309   5.179  14.056   3.367  0.1558  0.2906 -0.0740
27896W        W41310  10.764   9.421   5.796  0.1603  0.0063 -0.0987
27897W        W41311  13.246   6.805   2.957 -0.0952 -0.3149 -0.1038
27898W        W41312  16.781   4.664  13.875  0.2685  0.0135 -0.4433
27899W        W41313   1.892  17.891   0.642 -0.1277  0.1593  0.2891
27900W        W41314   0.194  12.087   2.860  0.1011  0.3246 -0.1120
27901W        W41315  14.857   4.425   0.181  0.1217 -0.0388  0.1647
27902W        W41316  13.614   0.669   0.132  0.1257  0.3283  0.1883
27903W        W41317   6.486   5.696   2.720  0.0208  0.1249 -0.2644
27904W        W41318   0.126   9.154   0.692  0.1402 -0.2044  0.1320
27905W        W41319   2.740  10.782  12.330  0.1913  0.1626 -0.0802
27906W        W41320  12.885  17.040   2.728 -0.1662 -0.0349 -0.0630
27907W        W41321  17.707   7.765  14.534  0.1314 -0.1389 -0.0416
27908W        W41322  10.490   8.823  11.450  0.1127 -0.4173 -0.3435
27909W        W41323  10.384  17.710   2.948 -0.0744 -0.1138 -0.0585
27910W        W41324  17.383   4.962  11.971  0.1224 -0.0723  0.1591
27911W        W41325   5.319   4.967   5.390  0.0711 -0.1510 -0.2058
27912W        W41326   8.636  17.634  14.960 -0.1800 -0.2109 -0.0921
27913W        W41327  15.928   8.987  11.670  0.0528  0.0377  0.0220
27914W        W41328   5.408   0.095  14.130  0.0603  0.4765 -0.2403
27915W        W41329  13.102  14.955  14.126  0.0490 -0.0030  0.0084
27916W        W41330  14.841   3.100  13.231 -0.1346 -0.2434 -0.3412
27917W        W41331  13.062  15.925  12.205  0.0716  0.1471 -0.0305
27918W        W41332  13.691   4.463   1.015 -0.2140  0.2855  0.0771
27919W        W41333   8.183  17.618  12.427  0.2480 -0.2318 -0.4141
27920W        W41334  13.344   5.429   0.720  0.0834  0.0276  0.0186
27921W        W41335  11.274  14.958  15.337  0.0773 -0.2702 -0.1015
27922W        W41336   6.884   3.668  12.623 -0.2006  0.1353  0.0454
27923W        W41337   3.101   4.263   0.082 -0.1701  0.0025  0.3186
27924W        W41338   2.943   0.383   0.107  0.1793 -0.2998  0.2860
27925W        W41339   5.733  12.315  14.150  0.2294  0.1691 -0.0451
27926W        W41340   4.416   2.171   0.800 -0.1367  0.0350 -0.2764
27927W        W41341  13.368   6.717   0.713 -0.0605 -0.1718 -0.2969
27928W        W41342   2.869  11.109  16.084  0.0914  0.0003 -0.1617
27929W        W41343   9.246  14.513  15.100  0.3092  0.1758 -0.0936
27930W        W41344   9.972  13.536   5.124  0.2267  0.0621 -0.1011
27931W        W41345   1.241   6.120  13.650  0.0248 -0.1270 -0.1040
27932W        W41346  14.879   5.247  12.422 -0.0115 -0.0983 -0.1525
27933W        W41347   5.570   2.627  10.117  0.1121 -0.3360 -0.1166
27934W        W41348  11.770   9.984  12.928  0.1450  0.1115  0.2339
27935W        W41349   9.774  16.329   0.804 -0.0370  0.2988  0.3203
27936W        W41350   1.810   1.495   5.519 -0.0240  0.0145 -0.1264
27937W        W41351   3.694   1.883   1.641  0.0643  0.1358  0.1303
27938W        W41352   1.956  12.230   4.464  0.1565 -0.1343  0.1760
27939W        W41353   8.195   4.937   1.200 -0.2333  0.0531  0.0578
27940W        W41354   4.212  13.808   6.154  0.0001  0.0358 -0.0150
27941W        W41355   2.525   6.380   5.271  0.1658 -0.0457  0.0054
27942W        W41356  13.473  12.235  15.746 -0.1392  0.1460  0.0343
27943W        W41357  12.045   5.818  16.174 -0.0444  0.0205  0.2642
27944W        W41358  12.932   7.800   0.746  0.1362  0.0178 -0.0008
27945W        W41359  11.902  17.163   0.787 -0.0014 -0.1197 -0.3430
27946W        W41360  12.753  14.246   4.678  0.0122 -0.1821 -0.2485
27947W        W41361   8.612  10.345   4.822  0.4430 -0.0477 -0.0967
27948W        W41362  12.878   7.731  14.887 -0.1303 -0.1077 -0.2679
27949W        W41363   1.050   3.992  12.940  0.1781 -0.1150 -0.2852
27950W        W41364  12.204   1.503   3.978 -0.0714  0.1607  0.0584
27951W        W41365   3.706   9.591   2.907 -0.1858  0.2634  0.3861
27952W        W41366  16.914  12.782   4.110  0.3255 -0.0049 -0.0725
27953W        W41367   5.071   1.930  11.415 -0.2719 -0.1983 -0.2752
27954W        W41368  17.083   5.881  10.256 -0.1806 -0.1351  0.0804
27955W        W41369   6.626   3.921  13.006  0.1345  0.0450  0.1529
27956W        W41370  13.853  14.722   1.741 -0.1558  0.1199  0.3138
27957W        W41371   3.900  17.951  13.461 -0.1196  0.2260 -0.2184
27958W        W41372   7.858   2.556   1.665  0.0473  0.0844  0.0740
27959W        W41373   8.486  12.961  16.142  0.0931 -0.0439 -0.0068
27960W        W41374   0.132   0.152  14.053 -0.1416 -0.0315  0.1450
27961W        W41375   5.685   3.042   5.117  0.1084  0.0202 -0.0809
27962W        W41376  13.099   2.965   5.333 -0.0798  0.0471  0.0639
27963W        W41377   7.637  17.279   5.560 -0.2165 -0.1613  0.0340
27964W        W41378   8.689   1.843   1.166 -0.0343 -0.1418  0.0842
27965W        W41379  17.857  17.216  11.996  0.1992  0.2805  0.2184
27966W        W41380   3.444  11.580   4.952 -0.0772 -0.0844  0.1639
27967W        W41381   7.176   4.598  15.525  0.2987  0.2245 -0.1903
27968W        W41382  12.075  13.718   0.138  0.0297  0.1690  0.0180
27969W        W41383   3.728   1.429   5.187  0.0213  0.1551  0.2439
27970W        W41384   2.172  11.081   3.740 -0.1269  0.2203  0.1014
27971W        W41385  13.841  13.519   3.681 -0.0865  0.0482  0.0476
27972W        W41386   8.855   7.445   1.580  0.0387 -0.1446 -0.1386
27973W        W41387  16.629  10.068   2.855  0.1162  0.3694  0.0538
27974W        W41388  12.421   4.560  15.655 -0.2707 -0.0409 -0.3178
27975W        W41389   9.049   2.971  10.372  0.2137  0.1041 -0.0774
27976W        W41390   2.162   9.357   1.454 -0.2846  0.1215 -0.2447
27977W        W41391  12.742   6.228   4.696 -0.1639 -0.2415  0.2463
27978W        W41392   7.474   8.556   4.534  0.0210  0.3059  0.0594
27979W        W41393  14.511  13.748   6.837 -0.1192 -0.1297  0.0905
27980W        W41394  17.300   9.242  15.605 -0.1364  0.4017  0.0669
27981W        W41395   0.030   6.064  12.500 -0.0155  0.3235 -0.1189
27982W        W41396   8.363  13.003  16.659  0.1212  0.2064  0.0425
27983W        W41397   7.976   1.638  16.704  0.0406 -0.2102  0.0407
27984W        W41398   2.048  14.384  12.058 -0.4462 -0.0703 -0.4633
27985W        W41399  12.226  15.239  12.687 -0.0029 -0.1372  0.0815
27986W        W41400  13.645  15.913   2.962 -0.0261 -0.2614 -0.0422
27987W        W41401   5.159   9.760   0.832  0.3218  0.0770  0.2109
27988W        W41402   4.398   4.826  12.393  0.0806 -0.1329  0.4887
27989W        W41403  15.209  17.786  11.227  0.2583 -0.1389  0.0605
27990W        W41404   9.658  13.919   2.481  0.0269  0.0707 -0.0268
27991W        W41405   0.930  13.582   2.169  0.0384  0.1179 -0.1332
27992W        W41406  11.958  16.324   6.625  0.2413  0.0212  0.1375
27993W        W41407   5.179  14.464  13.347  0.0257  0.0902  0.0665
27994W        W41408  11.487   9.105   3.832  0.2185  0.2313  0.0440
27995W        W41409   1.362  10.722  13.308 -0.1235 -0.0126  0.2472
27996W        W41410  16.976  17.068  14.781 -0.1807 -0.1488 -0.2014
27997W        W41411   5.851  17.788   4.249  0.1529  0.0065  0.1262
27998W        W41412  12.532   8.682   5.774  0.2006 -0.2101 -0.0506
27999W        W41413   3.566   8.544  11.243 -0.0891 -0.1297 -0.0879
28000W        W41414   6.160  13.416  11.806  0.1280  0.1184 -0.0520
28001W        W41415   4.748  12.136  14.878 -0.4451  0.0390 -0.2792
28002W        W41416  17.536   8.063   2.971 -0.3388  0.1179 -0.1724
28003W        W41417  12.185   3.451   5.822 -0.0091  0.0891  0.0260
28004W        W41418   7.580  12.834  15.145  0.0173 -0.1842 -0.1049
28005W        W41419   0.628   3.883   3.642 -0.1517  0.2051 -0.1146
28006W        W41420  13.980   3.932   4.125  0.1831  0.0261  0.0949
28007W        W41421   2.581   2.000   5.628  0.0251 -0.0967 -0.2182
28008W        W41422  13.500  14.683  12.223 -0.2297 -0.2518 -0.2134
28009W        W41423  15.008   1.507  10.276  0.2339 -0.0231 -0.0552
28010W        W41424   9.717   2.011  16.763  0.3279  0.0923  0.0606
28011W        W41425   0.145   9.115   4.739 -0.2420 -0.2954  0.1215
28012W        W41426  10.463  15.215  15.009 -0.2758 -0.4329  0.2421
28013W        W41427   6.511  10.812   1.387  0.0253  0.5312  0.3584
28014W        W41428   9.089   6.150  12.423  0.1125  0.2307 -0.1641
28015W        W41429  15.403   3.711   1.051  0.1040  0.1591 -0.3152
28016W        W41430  11.184   6.060  13.930  0.0542  0.0933 -0.1683
28017W        W41431   3.826   5.418  15.125  0.0186 -0.3853  0.0743
28018W        W41432  15.678   3.146   0.987 -0.2563  0.0420 -0.3126
28019W        W41433  11.854  17.326   2.107 -0.0228  0.3116 -0.0943
28020W        W41434   9.204  14.022   0.574 -0.2472  0.0140  0.1007
28021W        W41435   1.744  11.605  16.114 -0.0823 -0.2422 -0.0067
28022W        W41436   1.586   7.329  16.109  0.0215 -0.2398 -0.0401
28023W        W41437   3.433  14.640  14.391 -0.1288 -0.0534  0.0066
28024W        W41438   7.157   8.820  12.449  0.0836 -0.1988  0.1716
28025W        W41439   1.881  12.617  10.607 -0.2490  0.1082 -0.0791
28026W        W41440   0.757   9.935   1.709  0.0715  0.0139 -0.1420
28027W        W41441   6.515   5.803   3.575 -0.0010  0.0612  0.1408
28028W        W41442  14.683  17.054  13.950  0.4857  0.2325 -0.0699
28029W        W41443  16.744  10.202   5.267 -0.3201 -0.2141  0.2172
28030W        W41444   3.550   3.006  16.054 -0.1226 -0.1170 -0.0231
28031W        W41445   5.896   2.048   9.347 -0.0997 -0.0329 -0.0843
28032W        W41446   0.687  13.526   5.533 -0.0075 -0.0607  0.4678
28033W        W41447  16.709  12.708   0.249 -0.0240  0.3448  0.1220
28034W        W41448  10.457   5.818   2.723 -0.2881  0.3186 -0.1087
28035W        W41449  15.336   1.791  10.515 -0.0169 -0.2222 -0.0909
28036W        W41450   2.282   4.831   2.354  0.0303 -0.1989  0.3012
28037W        W41451  10.593   0.306  13.306  0.1940 -0.0866 -0.1842
28038W        W41452   3.603   6.239   6.208 -0.0145 -0.3358  0.0591
28039W        W41453   4.112   0.659  15.400  0.1352  0.1313  0.0604
28040W        W41454   5.431   7.044  13.440 -0.0405 -0.0843 -0.0640
28041W        W41455   9.910   5.765   4.741 -0.3897 -0.0976 -0.0308
28042W        W41456  11.444  12.815  15.660 -0.1439  0.1278 -0.1510
28043W        W41457  15.524   5.184  12.258  0.1078 -0.3868 -0.3136
28044W        W41458   3.184   9.206  12.671  0.0812  0.1219 -0.3007
28045W        W41459   4.799   7.424   2.750  0.4064  0.0660 -0.2037
28046W        W41460   7.527  13.383  15.986  0.1633 -0.0349 -0.1953
28047W        W41461   9.450   0.083  15.879 -0.2493 -0.0196  0.0602
28048W        W41462   4.498  11.770   5.002  0.1016 -0.3810 -0.1989
28049W        W41463  12.450   5.341   3.579 -0.2826  0.3419  0.0642
28050W        W41464   6.911   5.662  11.794 -0.1262 -0.3836 -0.0598
28051W        W41465   2.464  14.368  10.889 -0.0678 -0.1382 -0.2254
28052W        W41466   8.025  13.263   4.014 -0.0975 -0.2573  0.1346
28053W        W41467   7.968  16.656   4.988  0.0612 -0.2020  0.1316
28054W        W41468   1.072   6.492  12.957  0.1528 -0.1028 -0.3599
28055W        W41469   7.059   1.113  15.389 -0.2513 -0.0237  0.2058
28056W        W41470  15.456  15.009   3.460  0.1388  0.0203 -0.3085
28057W        W41471   3.232   5.526   3.339 -0.1132  0.1267  0.1096
28058W        W41472   6.624  16.435   3.437  0.0843 -0.0654 -0.1479
28059W        W41473   5.694   2.402  10.584  0.0244 -0.0551 -0.1628
28060W        W41474   8.705   2.165   0.044 -0.0419 -0.3551  0.1213
28061W        W41475   4.155   3.420   1.449  0.0629 -0.1330  0.3508
28062W        W41476  10.974  17.154   5.746  0.1840 -0.0936  0.1248
28063W        W41477   9.028  16.370  15.502 -0.3718 -0.1585 -0.0475
28064W        W41478  11.758  14.983   1.253 -0.2188  0.3630 -0.1172
28065W        W41479   0.904   9.725   0.752 -0.2182  0.5413 -0.0370
28066W        W41480  13.252   9.999  15.742 -0.0284  0.0738  0.0284
28067W        W41481   6.121   8.016   3.040 -0.1116 -0.0557 -0.2031
28068W        W41482   2.681  16.075  13.285 -0.1270  0.2745 -0.4997
28069W        W41483   4.920  10.545   0.347  0.1689  0.3494  0.0593
28070W        W41484  15.425  17.235  14.646 -0.1521 -0.1137 -0.1104
28071W        W41485   0.276   6.949  12.914  0.3239 -0.2514 -0.1607
28072W        W41486  14.553  14.736   3.663  0.2192 -0.1743  0.0407
28073W        W41487  14.480   7.232   6.922  0.2259 -0.2192 -0.0145
28074W        W41488  15.716  15.058   5.530  0.0012  0.0516 -0.1328
28075W        W41489   0.105  12.671   0.065 -0.2860  0.0482  0.0065
28076W        W41490  15.216  16.245   1.761 -0.2463  0.0053  0.0627
28077W        W41491  15.235   1.388  13.300 -0.1889  0.4140  0.2894
28078W        W41492   5.745  11.755   2.827 -0.0510 -0.0662  0.0970
28079W        W41493   7.292  11.541   4.527 -0.0930 -0.0427  0.0236
28080W        W41494  11.465   0.131   2.184  0.2809  0.2661  0.3861
28081W        W41495   2.039   2.764  14.592 -0.3126  0.0172  0.0283
28082W        W41496   5.277   4.033   2.829 -0.0311  0.0722 -0.0195
28083W        W41497   5.795  16.947   0.571 -0.1317 -0.0569 -0.0633
28084W        W41498   1.896  16.802  15.605  0.1753  0.3469 -0.1746
28085W        W41499  12.501  12.787   4.532  0.1253  0.0384 -0.1195
28086W        W41500   3.136   8.971   4.951  0.0243 -0.1374 -0.0455
28087W        W41501   9.402  13.920  14.362 -0.1943 -0.1875 -0.0102
28088W        W41502  14.307   0.775  13.852 -0.2093  0.0674 -0.1644
28089W        W41503   2.487   1.586   0.802 -0.0571 -0.0400 -0.1640
28090W        W41504   7.536   7.810   2.112  0.0999  0.0061  0.0243
28091W        W41505  10.577  13.685   2.414 -0.4218  0.5113  0.0524
28092W        W41506   2.357  14.774  13.301  0.2367  0.1428 -0.1708
28093W        W41507   8.062  16.329   3.675 -0.0575  0.0258 -0.1901
28094W        W41508  11.251  13.210   1.931 -0.0444 -0.1012 -0.3187
28095W        W41509  15.735  15.983  10.826  0.1098 -0.0708  0.1364
28096W        W41510  10.931  16.757  15.592  0.0071 -0.0329  0.1644
28097W        W41511   8.085  15.483  12.375  0.1961  0.0080 -0.1594
28098W        W41512   0.088  16.786  12.200 -0.2810  0.0181 -0.2192
28099W        W41513  12.392   6.223   1.021  0.2233 -0.3773 -0.1664
28100W        W41514   4.121   7.302   0.362 -0.3317 -0.2224 -0.2043
28101W        W41515   9.753   5.306   0.403 -0.1129 -0.2715  0.0891
28102W        W41516   0.328  15.891   1.721  0.3151  0.0905  0.0377
28103W        W41517   0.346  16.749  14.731 -0.0642  0.0316 -0.1118
28104W        W41518  11.894   4.624   4.201 -0.0543 -0.1292  0.2508
28105W        W41519  10.338  10.994  15.231 -0.0998 -0.1746  0.2234
28106W        W41520   8.461   8.901   5.071 -0.2507  0.0095 -0.0604
28107W        W41521   1.742  13.278   1.862  0.1716 -0.3734 -0.0282
28108W        W41522  14.567   1.764  11.026 -0.2485 -0.1313 -0.0417
28109W        W41523  12.594   4.288   0.854 -0.1222 -0.1673 -0.0301
28110W        W41524  13.528  16.195   1.555 -0.3291  0.2500 -0.2262
28111W        W41525  10.948   9.884   3.532  0.0427  0.2658 -0.2136
28112W        W41526   9.030   1.905   0.776  0.1882 -0.1101 -0.2045
28113W        W41527   3.397  13.792   4.413 -0.0514 -0.1346 -0.0753
28114W        W41528   6.420   8.290   1.314 -0.4935  0.2523  0.2374
28115W        W41529   1.822   3.097  11.468  0.0099  0.1059  0.0274
28116W        W41530  13.301  11.259   5.025 -0.0982  0.0979 -0.0174
28117W        W41531  16.728   4.431  14.711  0.1408  0.1394 -0.2276
28118W        W41532   3.213   2.884   4.232 -0.0444  0.0092  0.0892
28119W        W41533   1.583  15.851   2.596 -0.2106  0.0100 -0.1173
28120W        W41534   9.238  10.597  13.347  0.2054  0.0987  0.1222
28121W        W41535  11.428   0.575  15.651  0.0650 -0.0745  0.0092
28122W        W41536  15.745  16.550   0.906  0.2897  0.0195 -0.1151
28123W        W41537  12.875  13.948  12.938 -0.0924  0.2555  0.1410
28124W        W41538   0.386  15.560  14.831 -0.3799  0.1441 -0.0855
28125W        W41539  10.057  13.992  13.396  0.3077  0.0056  0.2917
28126W        W41540   6.789   2.265  16.246  0.1453 -0.1072  0.0312
28127W        W41541  12.534   9.648  13.872 -0.5166  0.0351 -0.0885
28128W        W41542  15.340   4.794  16.415  0.1313  0.0649 -0.0680
28129W        W41543   1.908   4.694   3.386 -0.1881  0.1226 -0.0029
28130W        W41544   2.743  17.360   2.904 -0.1881  0.0549  0.0549
28131W        W41545   4.250  10.067   2.257  0.3267  0.1546  0.1007
28132W        W41546   0.360   9.073  16.104  0.0595 -0.1552 -0.0006
28133W        W41547   3.448   6.584  14.494 -0.0333  0.1661  0.4048
28134W        W41548  17.481   8.666  16.406  0.1081 -0.0401 -0.3306
28135W        W41549   9.042  14.428   5.598  0.2033 -0.2690 -0.0113
28136W        W41550  14.097   4.680  15.994  0.0746  0.3431  0.2048
28137W        W41551   9.865  13.081   0.894 -0.1602 -0.1350 -0.3547
28138W        W41552   4.417  14.341   1.081 -0.0760 -0.0763  0.0735
28139W        W41553   7.159  17.557  15.751 -0.0519  0.3233 -0.1722
28140W        W41554   8.862  11.900   4.707 -0.2038  0.1593 -0.0153
28141W        W41555  17.187   7.285   4.482  0.1555  0.0730 -0.0324
28142W        W41556   9.177   2.825  10.829  0.1058 -0.0311 -0.0461
28143W        W41557  16.621   4.563   4.038 -0.4289 -0.1306 -0.1252
28144W        W41558  13.935   4.705   0.651  0.1649  0.0544  0.0656
28145W        W41559  17.976   9.844  10.958 -0.0769 -0.2648  0.1339
28146W        W41560   6.021   5.174  10.510 -0.2656 -0.0221  0.1143
28147W        W41561   2.854  13.600  14.775 -0.0155  0.1381 -0.0585
28148W        W41562  10.182  13.465  13.374  0.1276  0.2182  0.0351
28149W        W41563  14.408   2.133  12.034 -0.0409 -0.0839  0.2495
28150W        W41564   9.467  17.128   3.739  0.3234 -0.0178  0.1733
28151W        W41565   1.621   4.434   3.749 -0.1269 -0.0894 -0.0456
28152W        W41566  17.350   5.472  12.540 -0.1189 -0.3021  0.2209
28153W        W41567   9.151  12.158  14.661  0.1873  0.0398  0.2227
28154W        W41568   4.323   6.164   5.563 -0.3069 -0.0721 -0.0123
28155W        W41569   7.421   1.355  14.702 -0.2298 -0.2474  0.0368
28156W        W41570   1.597  11.885  14.627 -0.0150 -0.0265  0.0807
28157W        W41571  10.791  17.204   0.297  0.1072  0.0592 -0.2024
28158W        W41572   5.449   8.939   3.887 -0.0453 -0.1583  0.0419
28159W        W41573  11.160  13.993   2.885  0.0122  0.0138  0.0912
28160W        W41574  16.783  16.041  11.097  0.5242 -0.0821  0.3556
28161W        W41575   6.861  17.306  12.045 -0.1542  0.1347  0.4976
28162W        W41576  10.612   5.448  13.819  0.1398 -0.2167 -0.0120
28163W        W41577   1.127  13.816  14.401 -0.0228 -0.0641  0.2917
28164W        W41578  17.529  14.724  14.473  0.3152 -0.0453 -0.2975
28165W        W41579   3.379   1.029   4.988 -0.0332  0.2500  0.0387
28166W        W41580  13.306  13.985   5.332 -0.3922 -0.0171 -0.0448
28167W        W41581  17.641   0.109   0.135 -0.0186 -0.0465  0.5800
28168W        W41582   5.601   5.863   4.489 -0.0817  0.0248  0.2202
28169W        W41583  17.327   6.970   5.487 -0.2494 -0.2220 -0.1795
28170W        W41584   5.929  10.418   3.223  0.3232 -0.3231  0.1002
28171W        W41585   4.116  12.260   4.833 -0.1964  0.0303  0.0010
28172W        W41586   1.826   7.369  16.741 -0.1441  0.2055 -0.0344
28173W        W41587   8.600  14.698  13.599  0.1383  0.2917  0.0011
28174W        W41588   6.090  14.137  13.959  0.0912  0.3834 -0.1426
28175W        W41589  11.865   7.180  10.589  0.1929  0.1649 -0.1094
28176W        W41590   0.709   9.967  11.793 -0.1223 -0.0881  0.2288
28177W        W41591   7.235  10.597  12.836  0.2605 -0.0903  0.0526
28178W        W41592   0.485  13.744  12.085 -0.1354 -0.0692  0.0628
28179W        W41593  16.376  11.493   4.949  0.3163 -0.0669  0.1750
28180W        W41594  11.980  13.659   1.967  0.2722 -0.1055  0.2325
28181W        W41595   1.519   9.988   6.207 -0.1841  0.0797  0.0598
28182W        W41596   3.971   9.602   0.608  0.0633  0.0488  0.1736
28183W        W41597  10.565   9.836  12.338 -0.2518 -0.0581  0.0701
28184W        W41598   2.861   6.955   2.322 -0.1584  0.0967 -0.2265
28185W        W41599   7.157   3.454  16.436  0.0335  0.0320 -0.2337
28186W        W41600   9.551   7.925   3.399  0.0397  0.1606  0.1112
28187W        W41601   0.199  17.492   3.130 -0.1008  0.1577  0.0488
28188W        W41602   8.451   9.070   5.557  0.3054 -0.0490 -0.0070
28189W        W41603   6.380   8.128  13.499  0.3055 -0.3704  0.1864
28190W        W41604   3.456   1.647  11.024  0.1260  0.1228  0.0505
28191W        W41605  10.213   1.401   4.459 -0.3069  0.2200 -0.1676
28192W        W41606  15.529  16.259   2.774 -0.2063  0.1750  0.1635
28193W        W41607  14.925   9.731  15.465 -0.1701  0.1040 -0.1299
28194W        W41608   9.951   1.616   3.124  0.1488 -0.1041 -0.0198
28195W        W41609   1.401  10.737   0.549  0.2476 -0.0066 -0.0823
28196W        W41610  14.239  15.730   4.708  0.0398 -0.1950  0.0860
28197W        W41611  12.564   4.874   3.694 -0.0806 -0.1151  0.0345
28198W        W41612  10.884   5.006   4.092  0.0651  0.1159  0.1146
28199W        W41613   6.471   7.063  15.609  0.3411 -0.1217  0.0205
28200W        W41614  14.137   6.459  14.491 -0.3240 -0.1367  0.2844
28201W        W41615   9.620   2.485   4.400 -0.0226 -0.0454  0.0634
28202W        W41616  15.348   1.489   4.835 -0.3319  0.2098 -0.1776
28203W        W41617  11.658   6.600   1.378  0.1804  0.1858 -0.1058
28204W        W41618   2.360  17.913  14.955 -0.0221 -0.0388  0.0648
28205W        W41619  13.454  12.121  16.652  0.1738  0.1505  0.0904
28206W        W41620   7.745  16.032   0.265 -0.2397 -0.0696  0.2127
28207W        W41621  17.216   4.076   4.840  0.0883 -0.4005  0.3004
28208W        W41622  11.728   4.070  12.054  0.0361  0.1004  0.0004
28209W        W41623  16.455   7.640  16.717 -0.1098 -0.0188 -0.2803
28210W        W41624  12.880  13.130   3.476  0.3769  0.1305  0.1301
28211W        W41625  17.502   2.628  16.737  0.3465  0.0063  0.0071
28212W        W41626  15.598   8.348   3.824 -0.0452  0.0414 -0.0782
28213W        W41627   3.684   2.186  12.520  0.5557 -0.0443 -0.2364
28214W        W41628  10.607  11.109  11.467 -0.0487 -0.1172 -0.2184
28215W        W41629   7.880   1.688  13.234  0.0292 -0.0864  0.1501
28216W        W41630  14.211   1.225  14.137 -0.4206  0.0278  0.2171
28217W        W41631  10.932   4.198   3.503  0.0204 -0.0359 -0.0090
28218W        W41632   6.507   5.436  12.617  0.1958  0.2949  0.0051
28219W        W41633  17.577  13.187  11.491  0.2087 -0.3009 -0.0521
28220W        W41634   5.982  11.569   2.434  0.0968  0.2296 -0.0866
28221W        W41635  14.339  13.190  15.273  0.0107 -0.0414  0.2383
28222W        W41636   0.877  12.807   5.560  0.2353  0.3542  0.1430
28223W        W41637   2.166   0.278   9.759 -0.0190 -0.0303  0.0078
28224W        W41638   0.893   0.099  14.628 -0.0776  0.0561  0.0658
28225W        W41639   4.563   7.916  15.049  0.1151  0.3593  0.2597
28226W        W41640  10.099   9.413   4.141 -0.1141 -0.0762  0.0716
28227W        W41641   2.410   5.216   0.306 -0.1932 -0.0645 -0.1946
28228W        W41642  15.421  13.273   1.286  0.4839  0.0388  0.0243
28229W        W41643   7.619  14.463  11.286  0.3603 -0.3711 -0.4003
28230W        W41644   4.814   3.634  12.517 -0.2560  0.1200 -0.4493
28231W        W41645   7.313   5.743  16.338  0.0975 -0.0167  0.0978
28232W        W41646   1.964   6.329   4.392  0.0440  0.0223 -0.0756
28233W        W41647  16.758   5.615  14.230  0.0574 -0.0252  0.0291
28234W        W41648  10.104   6.080  15.525  0.0235 -0.4838  0.1583
28235W        W41649   1.236  14.365  16.301  0.0066 -0.5528  0.0745
28236W        W41650  14.894   4.690  11.072 -0.0499 -0.1872 -0.0317
28237W        W41651  10.605  15.732  14.172 -0.0132  0.0639 -0.0223
28238W        W41652   1.240   1.965   3.760  0.0524 -0.0656  0.3181
28239W        W41653   2.168   7.750  12.940 -0.0325 -0.0365  0.0728
28240W        W41654  16.892   2.088  10.392  0.0062 -0.0754  0.2922
28241W        W41655   1.314  17.575   5.594  0.1196  0.0855  0.0932
28242W        W41656  14.386  15.238   4.884  0.3519  0.1761 -0.0785
28243W        W41657   6.190  14.069   3.098  0.1438  0.1210  0.0279
28244W        W41658   8.844  10.067  14.635  0.0873 -0.3853  0.1821
28245W        W41659  13.005   1.120   4.225 -0.1906  0.1171  0.0687
28246W        W41660   8.610   0.395   6.562 -0.0473  0.0505  0.3341
28247W        W41661  10.790  12.134  16.544  0.2200 -0.2009  0.2157
28248W        W41662  12.725   6.774  14.573 -0.2625  0.0511 -0.0976
28249W        W41663  12.578  13.533   3.871 -0.0139 -0.3850  0.1822
28250W        W41664   4.985   0.437  14.811  0.2717  0.0607 -0.0654
28251W        W41665   5.863   3.343  16.105  0.2221  0.2483 -0.0391
28252W        W41666   5.592   8.730  12.930 -0.0466 -0.4029  0.2640
28253W        W41667  11.979   7.024  13.340  0.0190  0.1881 -0.0164
28254W        W41668  17.572  10.543  15.547 -0.0669 -0.0084  0.0840
28255W        W41669   5.043   0.779  11.107 -0.1399 -0.0705 -0.0084
28256W        W41670   9.335   9.400   4.425  0.0425  0.3413 -0.2819
28257W        W41671  13.678  10.637  16.533  0.0086  0.2761 -0.0365
28258W        W41672  10.365   7.150  16.224  0.0221 -0.0282 -0.1589
28259W        W41673  13.325   8.992  15.570  0.0900  0.3852 -0.0765
28260W        W41674   8.828   4.766   3.025  0.1368 -0.0741  0.1378
28261W        W41675  17.236   0.739   3.995  0.0330  0.0135 -0.0702
28262W        W41676  16.219  11.890  11.988 -0.1260  0.1697 -0.1991
28263W        W41677  15.080   4.796   0.426 -0.0343 -0.1114  0.0800
28264W        W41678  13.674   8.662  14.747  0.1488 -0.3372  0.2466
28265W        W41679   1.844  15.328   0.928 -0.3660 -0.1051  0.4966
28266W        W41680   5.260  14.935  12.149 -0.1386  0.3657 -0.5102
28267W        W41681   5.947   0.478   5.640 -0.2951 -0.0028  0.0422
28268W        W41682  10.155   5.708  13.290 -0.1877  0.3843 -0.0158
28269W        W41683   1.350   0.893  16.268  0.0614 -0.1765 -0.0321
28270W        W41684   0.905   4.990   4.357  0.0740  0.0136  0.0389
28271W        W41685  11.434  15.688   5.557  0.0119  0.0388 -0.0855
28272W        W41686   6.980   5.513   2.650 -0.2833  0.1768 -0.2167
28273W        W41687   7.609   7.441  14.141  0.0867  0.0389  0.0723
28274W        W41688   1.669   6.420   3.544  0.0337  0.2457  0.3055
28275W        W41689   4.173   8.010   4.653  0.2611  0.4152 -0.0105
28276W        W41690   2.017   6.725  13.067 -0.1111 -0.1739  0.0168
28277W        W41691   9.287   8.636  15.241  0.0532  0.1278  0.0247
28278W        W41692  14.150   8.816   5.626  0.0683 -0.1212  0.0335
28279W        W41693  17.788  12.770   2.573  0.0290 -0.0041  0.0235
28280W        W41694  10.564   9.816  15.658  0.0934 -0.2721 -0.0146
28281W        W41695   0.906  11.231  15.682 -0.0885  0.0997  0.0022
28282W        W41696   9.078   4.429  16.782 -0.0815 -0.4033 -0.0238
28283W        W41697  12.423   9.619  13.123  0.3649 -0.2073 -0.0478
28284W        W41698   7.896  17.899   4.897  0.0378  0.2980 -0.0082
28285W        W41699   1.862  10.460   4.824 -0.0980  0.1003 -0.0603
28286W        W41700   6.780  13.429   0.958  0.1223  0.0198 -0.1825
28287W        W41701   9.986  16.005   5.291 -0.0224  0.1000  0.1288
28288W        W41702  11.189   9.868   5.956  0.2212  0.2246  0.1338
28289W        W41703   0.319   2.272  15.666  0.1621 -0.1688  0.0932
28290W        W41704  15.536  16.934  13.748  0.3096 -0.0474 -0.0884
28291W        W41705   4.967  17.860  10.049  0.2768 -0.0267  0.1626
28292W        W41706   7.158   6.668   0.099 -0.4934  0.0268  0.0817
28293W        W41707  11.239   9.657   1.767  0.0881 -0.1338  0.1298
28294W        W41708   9.960  10.218   1.549  0.1167 -0.0334  0.0464
28295W        W41709  13.171  13.517  15.282  0.3076 -0.0542  0.0950
28296W        W41710  10.635  17.649  11.113 -0.3068  0.1149 -0.0007
28297W        W41711  14.145  11.441  13.873  0.2981  0.1232  0.1194
28298W        W41712  13.722  17.853  12.412 -0.1759 -0.0132 -0.2273
28299W        W41713  16.324   6.658   0.186 -0.0973 -0.0382  0.1753
28300W        W41714   7.625   3.452  14.477 -0.2685 -0.0073  0.3080
28301W        W41715  15.790  14.610   5.742 -0.1241 -0.1320 -0.1079
28302W        W41716  13.853  17.664   3.237  0.1223 -0.4920  0.2970
28303W        W41717  13.988   6.513   4.082  0.2277  0.2575 -0.2737
28304W        W41718   5.361  15.965  14.418 -0.0974  0.0255 -0.1354
28305W        W41719  11.524   6.838  11.906  0.1909 -0.0774 -0.0744
28306W        W41720  15.507   5.732   0.253 -0.4286  0.3081  0.0795
28307W        W41721   2.356  13.001  14.384  0.4075  0.2587 -0.2494
28308W        W41722   7.558  16.645  14.171 -0.2728  0.1733 -0.0128
28309W        W41723   9.572   6.081   3.069  0.1034 -0.0412 -0.1568
28310W        W41724  13.939  10.263   2.148 -0.2374 -0.0673  0.2160
28311W        W41725   6.977   6.072   3.439  0.0071  0.3824 -0.0479
28312W        W41726   6.317  16.152   0.764  0.0118 -0.1741  0.0818
28313W        W41727   7.269   6.343   3.880 -0.1507 -0.2077  0.0731
28314W        W41728   6.767  10.284   5.854  0.0531 -0.0380 -0.1064
28315W        W41729  12.918   5.610  16.175 -0.1321 -0.0067  0.0951
28316W        W41730   6.568  15.188  12.851 -0.1863 -0.2266 -0.1431
28317W        W41731   6.509  14.890   2.305  0.1329  0.0041  0.0835
28318W        W41732   4.839   9.593   4.548  0.0135  0.1921  0.0799
28319W        W41733  13.275  10.310   5.845  0.1234 -0.0832 -0.0225
28320W        W41734  10.289   6.514  13.958  0.2060 -0.1518  0.1917
28321W        W41735   7.758  11.333  12.753 -0.1131  0.1112 -0.0647
28322W        W41736  17.019  10.242  12.675 -0.0248 -0.0587 -0.0319
28323W        W41737  12.253   3.841   0.188  0.0392  0.2012 -0.0830
28324W        W41738   5.326  15.073  15.695  0.2778 -0.1879 -0.0204
28325W        W41739   3.116  16.584  14.389  0.3603 -0.0009  0.0255
28326W        W41740   5.214   5.594  14.257 -0.1945 -0.1441  0.0523
28327W        W41741   4.447   5.527  15.374  0.1742 -0.1079  0.0838
28328W        W41742   1.400  16.611  14.945  0.3978  0.1128  0.3242
28329W        W41743   4.714   4.286   0.108  0.2662  0.2408 -0.1408
28330W        W41744  10.537   7.628  14.117 -0.0629 -0.1272 -0.0523
28331W        W41745  16.789   1.915  13.972 -0.0946 -0.1917 -0.0510
28332W        W41746   1.358   1.788  14.972  0.1103 -0.2741 -0.0112
28333W        W41747   8.057   5.582   2.481  0.2738  0.1598 -0.3276
28334W        W41748   4.493   0.322  16.010  0.0350  0.0440 -0.1898
28335W        W41749   9.700  15.508   4.101  0.1178 -0.3048  0.3534
28336W        W41750  11.637  13.028   0.571 -0.3941 -0.0444 -0.0373
28337W        W41751  13.032  17.085   2.070  0.0666  0.2650  0.0888
28338W        W41752   8.302   0.922   4.106  0.0814  0.2096 -0.1450
28339W        W41753   6.569  14.877   4.352  0.3080  0.0453 -0.2008
28340W        W41754  15.652  14.459   2.676 -0.1856 -0.3294 -0.0897
28341W        W41755   9.855  11.266   2.201  0.0308 -0.0125  0.3579
28342W        W41756   7.806   2.537  16.425  0.1687  0.0806 -0.5083
28343W        W41757   0.390  12.543  13.535  0.1598 -0.1707  0.0233
28344W        W41758   5.520   3.455  11.215  0.2029  0.0826 -0.0686
28345W        W41759   7.533   5.656  13.654 -0.1185 -0.1218  0.2331
28346W        W41760  11.140  17.520  11.232  0.0512  0.0827 -0.3104
28347W        W41761   6.548  14.350   1.094 -0.2099  0.0123  0.2057
28348W        W41762  16.712  16.627  14.950 -0.1517 -0.0372 -0.2687
28349W        W41763   5.810  13.846  15.535 -0.1965  0.0862  0.1592
28350W        W41764   7.570  12.562  11.445  0.0828 -0.3249 -0.1158
28351W        W41765   7.809   4.149   1.325 -0.1212 -0.5086  0.3044
28352W        W41766   4.217  10.597   1.431 -0.1763 -0.3654 -0.0737
28353W        W41767  14.867   5.678  11.152  0.0498 -0.1475 -0.3074
28354W        W41768  16.983   1.832   1.420  0.1290 -0.0657 -0.0298
28355W        W41769   4.204   0.720  11.349 -0.1773 -0.0823  0.0064
28356W        W41770  12.593  12.562   3.999  0.1684  0.1603  0.1091
28357W        W41771   4.169  15.686   4.266 -0.0731 -0.1263  0.2223
28358W        W41772  14.292   0.669   6.535 -0.3514  0.1699 -0.1692
28359W        W41773  13.706  14.939   2.584  0.1830  0.0319 -0.1715
28360W        W41774  17.857  14.149   2.570  0.3108 -0.0346  0.3042
28361W        W41775  12.010  12.511  11.467 -0.1505 -0.0003  0.0752
28362W        W41776  12.304  17.154  11.895  0.0840  0.0399  0.1657
28363W        W41777   6.359  11.747  14.577 -0.0185 -0.2203  0.1399
28364W        W41778   1.075  14.751  13.372  0.1874  0.1027 -0.1990
28365W        W41779   8.822  12.792   4.834 -0.1283  0.0778  0.0645
28366W        W41780   4.017   6.567  16.029  0.0758  0.2420 -0.0280
28367W        W41781   0.734   1.384  12.789  0.1455  0.0052  0.5043
28368W        W41782   1.735   9.486  16.239 -0.1027  0.2557 -0.0070
28369W        W41783  17.539   3.732   5.594  0.3398  0.0442  0.0712
28370W        W41784   2.936   7.887  12.235  0.3059  0.1953  0.0634
28371W        W41785   3.671   8.648   6.043 -0.1862 -0.0325 -0.0361
28372W        W41786  12.613   4.727   1.920 -0.0082  0.1158  0.2856
28373W        W41787   5.911   1.155  13.771  0.0912 -0.1183 -0.2977
28374W        W41788   0.287  16.326  13.059 -0.2597  0.1573 -0.1268
28375W        W41789   2.858  10.221  11.379 -0.0469  0.3594  0.0623
28376W        W41790   7.685  13.747  10.841  0.0328  0.1874  0.4119
28377W        W41791  14.555   1.563  13.910  0.0303  0.1161  0.1713
28378W        W41792   0.886   1.825  15.591  0.2030  0.1600 -0.1213
28379W        W41793  12.049   5.931  15.283 -0.2219 -0.1889 -0.2415
28380W        W41794   1.817   5.726   3.559 -0.3055  0.0963 -0.1760
28381W        W41795  17.043   4.677  12.898 -0.1832 -0.0166 -0.3940
28382W        W41796   1.122   2.521   2.705 -0.0604 -0.0455  0.3605
28383W        W41797  12.034   9.840   5.477 -0.1505 -0.2387  0.0380
28384W        W41798   2.148   8.626  14.783 -0.1901 -0.0652  0.2975
28385W        W41799  16.930   8.362  13.463  0.0626  0.0332 -0.1273
28386W        W41800   9.798   6.049  14.689  0.0687 -0.1395  0.0148
28387W        W41801  12.665  15.975  15.501  0.0851 -0.1751 -0.0309
28388W        W41802  16.685   2.808  13.015 -0.1689  0.2170 -0.3456
28389W        W41803  12.073  11.378   6.525 -0.0675 -0.0320  0.1986
28390W        W41804   9.961  14.219  12.980 -0.0844 -0.3278 -0.2668
28391W        W41805  10.148  17.098   4.442  0.2237 -0.2046 -0.3699
28392W        W41806  14.846  17.445  11.055 -0.1335  0.0569 -0.2684
28393W        W41807   9.197   3.766   4.554  0.1337 -0.2385 -0.0573
28394W        W41808  17.152  15.989   1.155 -0.1951  0.3368  0.3832
28395W        W41809   1.042  17.752   1.066 -0.2791  0.1009  0.0268
28396W        W41810   2.427   2.966   0.138 -0.1246  0.3251 -0.1202
28397W        W41811  11.262  12.645   3.275  0.1349  0.0016 -0.2120
28398W        W41812   3.714  12.482   0.470 -0.0894 -0.2869  0.1466
28399W        W41813  11.475  10.428   0.072 -0.1817  0.1345  0.0111
28400W        W41814   6.367   8.727   2.475 -0.3537  0.3021  0.2269
28401W        W41815  12.743  15.681  13.605 -0.0689 -0.0307 -0.0284
28402W        W41816  13.607  12.384   3.000 -0.0776 -0.0495  0.2368
28403W        W41817  10.079   1.029  15.195  0.4100 -0.1574 -0.0105
28404W        W41818   0.115  16.560   0.555  0.0189  0.0101 -0.3196
28405W        W41819   7.402  11.906  11.540  0.1280 -0.0015  0.3205
28406W        W41820  12.530   0.570  14.127 -0.3405 -0.2040 -0.1375
28407W        W41821   7.099  15.796  12.436  0.1200  0.0131 -0.2082
28408W        W41822   3.493  14.131   1.186 -0.3889  0.1458  0.1691
28409W        W41823   7.858   8.386   1.814  0.0553 -0.1528 -0.1259
28410W        W41824   7.837   7.670   5.592 -0.0977  0.0491  0.1649
28411W        W41825  14.023  12.428  13.564 -0.2526 -0.0208 -0.0910
28412W        W41826  16.536   2.476  13.806  0.0366 -0.0671 -0.0017
28413W        W41827   9.547   5.702   4.416  0.3500  0.2526  0.0889
28414W        W41828   3.662  10.781   1.560  0.0085 -0.2038  0.0419
28415W        W41829  16.877  10.565   2.731 -0.1761 -0.2423  0.3180
28416W        W41830   9.849  17.268   4.948 -0.1110  0.1228 -0.2302
28417W        W41831   5.341   4.890  13.989 -0.0005 -0.1074  0.2415
28418W        W41832  13.557  16.445   3.099  0.2416 -0.0028  0.0468
28419W        W41833  10.748   0.239  11.798  0.0707  0.2211  0.0565
28420W        W41834  13.481   8.743  16.044 -0.0023 -0.0359 -0.1592
28421W        W41835   5.659  13.616   2.840 -0.0437 -0.3082  0.1294
28422W        W41836  11.185  12.544  14.412  0.0183  0.0283 -0.0865
28423W        W41837  13.220   1.496   6.438  0.2815 -0.1663 -0.2457
28424W        W41838   8.935   3.893   2.416 -0.1591 -0.0645 -0.0878
28425W        W41839   1.611   6.111   3.934  0.0382  0.0384 -0.1247
28426W        W41840   2.494   8.863   3.094  0.2305 -0.1380 -0.1036
28427W        W41841   1.936   2.074   1.833  0.1738 -0.0839 -0.0824
28428W        W41842  12.832  12.661  16.151 -0.0840  0.0057 -0.5404
28429W        W41843   7.866  15.842  13.322  0.0508  0.2823  0.0348
28430W        W41844   3.553   1.854   3.516 -0.3559  0.0139  0.1094
28431W        W41845  10.826   9.414  15.354 -0.0204 -0.3026 -0.0543
28432W        W41846   0.768   9.820  13.818 -0.3717 -0.0178  0.2443
28433W        W41847   7.712  17.554  14.293  0.3289 -0.0622 -0.0357
28434W        W41848  17.010  11.950   3.610 -0.1706  0.1286 -0.2967
28435W        W41849  15.759  14.481  14.381  0.0354 -0.0146 -0.3066
28436W        W41850   3.335  15.731   3.934  0.0834 -0.1907 -0.2566
28437W        W41851   5.963   6.724   1.594 -0.0539  0.2823 -0.1945
28438W        W41852   5.077  16.726  14.018 -0.2844  0.0256 -0.1038
28439W        W41853   4.018   5.761  14.790  0.0066  0.1350  0.0989
28440W        W41854   9.474  15.844  11.980  0.0490  0.3142  0.0870
28441W        W41855  11.971   5.263   5.796  0.3875  0.1517 -0.2646
28442W        W41856  13.325   6.342   1.626  0.2239  0.1339 -0.0651
28443W        W41857   5.229   0.943   4.391 -0.2082 -0.0292 -0.4390
28444W        W41858  13.735   8.304   3.914  0.0894 -0.0236 -0.1228
28445W        W41859  10.985  16.918   0.757  0.0192 -0.0320 -0.0306
28446W        W41860  16.324  12.867   0.604 -0.0180  0.0301 -0.2402
28447W        W41861   5.552   4.364  12.246  0.0230 -0.1493  0.0698
28448W        W41862   8.157  10.833  12.036  0.2453 -0.1038  0.0309
28449W        W41863  10.132  14.347  11.447  0.0733  0.0948 -0.0420
28450W        W41864   1.692  16.061  14.506 -0.0077  0.1351 -0.1758
28451W        W41865   6.835   7.284  13.618  0.0475 -0.2951 -0.0654
28452W        W41866   3.344   4.116   3.379  0.2252 -0.1208  0.4215
28453W        W41867   7.113   9.395  15.336 -0.0639 -0.4635  0.1416
28454W        W41868   0.310   1.063  15.211 -0.0763 -0.3074  0.2040
28455W        W41869  10.201   7.653  12.342  0.2324 -0.1023 -0.1780
28456W        W41870   0.717   6.142  11.952  0.0798 -0.0385 -0.3693
28457W        W41871  16.719   0.610   5.108 -0.0778  0.1737  0.0981
28458W        W41872   3.574  10.098  16.006  0.1524  0.3399  0.0615
28459W        W41873   1.358   7.704  13.505  0.1092  0.0888  0.2566
28460W        W41874  10.405   7.751  11.334 -0.1917 -0.1935  0.0852
28461W        W41875   7.109   5.963   4.214 -0.1554  0.0338 -0.1451
28462W        W41876  12.924   2.527   0.225  0.2420 -0.0550  0.0494
28463W        W41877  15.664  14.052   0.086 -0.2930 -0.0097 -0.1200
28464W        W41878  16.509   7.960  13.236  0.0763 -0.0087  0.0406
28465W        W41879   1.322   0.951  10.541  0.0983 -0.0042  0.0079
28466W        W41880   5.245   5.151  14.496 -0.1287 -0.0116 -0.2476
28467W        W41881   4.065   1.579   4.491 -0.0814 -0.0381 -0.1271
28468W        W41882  13.894  17.395   1.818  0.1730  0.0855 -0.3269
28469W        W41883   6.304  15.672   1.141  0.1400 -0.0072 -0.0507
28470W        W41884   8.434   3.328   9.564 -0.0397 -0.0199 -0.3143
28471W        W41885   3.333  13.484  16.354  0.0897  0.1265 -0.1319
28472W        W41886   6.673   9.569   0.893  0.0400 -0.0726 -0.1316
28473W        W41887   3.963   6.576   3.118 -0.0774 -0.1138  0.1664
28474W        W41888  15.468  15.800   5.197  0.0675 -0.2327  0.0762
28475W        W41889  12.321   5.011   6.190 -0.3106 -0.1025  0.0042
28476W        W41890  14.848  12.459   5.759  0.0984 -0.1056 -0.1645
28477W        W41891  12.096   7.752   2.780  0.0344 -0.1533 -0.2197
28478W        W41892  14.478   1.814   0.234 -0.0218  0.0438  0.2596
28479W        W41893   1.118   8.662   2.068 -0.2067 -0.0043  0.0463
28480W        W41894   8.842   3.869   0.456  0.0976  0.2876  0.3596
28481W        W41895   0.893   9.836  12.269 -0.0759  0.0857  0.0680
28482W        W41896   7.213   8.478  16.449  0.2050 -0.2758  0.0241
28483W        W41897   2.178   3.628   4.238  0.1954 -0.2886  0.1593
28484W        W41898  11.920   9.803  16.492  0.0236  0.0861  0.0332
28485W        W41899   2.489  10.904  14.195 -0.1358  0.1062  0.0323
28486W        W41900  10.042  12.657   3.120  0.2730 -0.0712  0.3094
28487W        W41901   5.693   8.311   1.602 -0.1642 -0.1030 -0.1499
28488W        W41902   1.514  15.225   4.835 -0.0722 -0.0686 -0.3210
28489W        W41903  10.493   2.391  15.605 -0.1770  0.0251  0.1083
28490W        W41904   5.315   3.694  14.186  0.2871  0.1413  0.0569
28491W        W41905   3.677   4.029  12.256 -0.2769  0.0664  0.1512
28492W        W41906  12.132   1.762  11.130  0.2273  0.0744 -0.1929
28493W        W41907  13.797   1.965  14.468 -0.1180 -0.0059  0.1416
28494W        W41908  13.744  17.381   0.283 -0.1312  0.2127  0.0788
28495W        W41909   7.821  11.409  13.810  0.5168 -0.0108 -0.1317
28496W        W41910  15.394  14.561   5.305  0.0056  0.1508 -0.2485
28497W        W41911   2.396   4.225   4.828  0.1202  0.5073  0.1330
28498W        W41912  17.215   5.477   2.841 -0.4362  0.0146  0.0363
28499W        W41913   6.805   5.803  10.077 -0.1279  0.3191  0.0377
28500W        W41914   7.139   7.749  10.851 -0.1460  0.0204 -0.1518
28501W        W41915   7.485   5.475  11.906  0.2671 -0.0484  0.0091
28502W        W41916  14.463   1.521   0.654 -0.2608  0.3020  0.2727
28503W        W41917  14.581   9.049  15.063  0.2226  0.1355  0.0920
28504W        W41918  13.172   4.699  12.097  0.0884  0.0932  0.1532
28505W        W41919   0.228   4.281   5.302 -0.1325 -0.1103  0.0480
28506W        W41920  11.916  16.665   5.537  0.2230  0.1586  0.2265
28507W        W41921  12.512  15.232  12.231  0.0734  0.0605 -0.1663
28508W        W41922  12.587  12.631   2.134  0.0247  0.2693  0.0374
28509W        W41923  16.860   1.722  16.670 -0.0181 -0.0256 -0.1655
28510W        W41924  17.833  14.665  10.609  0.2456 -0.0646 -0.2327
28511W        W41925   6.154  14.227  12.085 -0.1318  0.0599  0.0868
28512W        W41926   2.711   9.536  12.721 -0.3116  0.1060 -0.0535
28513W        W41927   3.703   1.772   3.023  0.2324  0.2192  0.3502
28514W        W41928  13.671  14.503  12.676 -0.0858  0.2370 -0.1158
28515W        W41929   0.561   2.773   3.875 -0.0668 -0.0156  0.1948
28516W        W41930  12.833   7.198   4.567  0.2272 -0.0524  0.1003
28517W        W41931  12.936   2.257  11.112  0.0586  0.0318 -0.1034
28518W        W41932  16.746   8.251  11.942 -0.2194 -0.0121  0.4199
28519W        W41933   6.150   4.702  11.597  0.3567 -0.0639 -0.0267
28520W        W41934   1.416  16.574  10.317 -0.2416 -0.0702 -0.1730
28521W        W41935   0.190   1.814   2.809  0.3621  0.1724 -0.1743
28522W        W41936  14.992   0.423  15.408 -0.0569 -0.0148  0.0255
28523W        W41937  17.743   6.735   4.080 -0.1096  0.0193  0.1668
28524W        W41938  15.763  17.076  11.521 -0.0548  0.2693 -0.0978
28525W        W41939  14.008   4.620   4.568  0.1809  0.1024  0.2320
28526W        W41940   2.821   1.253   3.810  0.0413  0.2344 -0.0516
28527W        W41941   9.678  12.788   2.372  0.0841 -0.0348 -0.0989
28528W        W41942  12.685  10.485   2.128  0.3067  0.0883 -0.0653
28529W        W41943   4.551   0.162   4.452  0.0596  0.1050  0.1413
28530W        W41944   2.135   9.353   0.514  0.0926 -0.1454 -0.0857
28531W        W41945  12.870   0.536  16.746  0.0118  0.0991  0.3167
28532W        W41946  10.113   7.099   4.340 -0.0819  0.0288  0.0144
28533W        W41947  11.702  14.909   3.879  0.0463 -0.2239 -0.2794
28534W        W41948   5.421  14.449  16.675  0.0829  0.0299  0.0259
28535W        W41949  13.439  17.469   6.074 -0.2316 -0.1674  0.0392
28536W        W41950   5.461  10.621  13.152  0.3461 -0.1212 -0.0197
28537W        W41951   6.811  10.069  11.555 -0.2398  0.0673  0.0733
28538W        W41952  11.901   8.972  14.903  0.1076 -0.1071 -0.0364
28539W        W41953   8.627  13.583   3.638  0.1472  0.0436 -0.1794
28540W        W41954   0.113   5.933   1.270 -0.2431 -0.2464  0.1291
28541W        W41955   1.718  10.815  10.868 -0.2568  0.1809 -0.0454
28542W        W41956   9.015  15.347  15.107 -0.0853  0.2362 -0.1446
28543W        W41957   5.850   1.110   3.728 -0.1805  0.1766 -0.1357
28544W        W41958   4.487   1.647  11.497  0.2352 -0.0914  0.0251
28545W        W41959   6.044   1.031  11.715  0.1429 -0.0609 -0.0775
28546W        W41960  15.957   8.523   0.849 -0.3466 -0.3017 -0.1196
28547W        W41961   9.984  12.628   3.650 -0.2485 -0.4936  0.2904
28548W        W41962   2.865  14.375   5.571 -0.0685  0.2699 -0.0865
28549W        W41963   9.079   0.537  14.255 -0.1470 -0.0725  0.1523
28550W        W41964   9.696  15.784  13.874  0.3168  0.0505  0.3155
28551W        W41965  14.628   5.997   0.272  0.2444 -0.0285 -0.2521
28552W        W41966   7.891  17.704   1.783 -0.0174 -0.2031  0.1893
28553W        W41967   4.863  15.883  12.083 -0.3376  0.0462  0.0097
28554W        W41968   5.612   1.678   4.968  0.1138 -0.2982  0.2061
28555W        W41969   5.818   9.824   3.013  0.1971  0.1007 -0.1893
28556W        W41970   8.384   8.359   0.452  0.0828 -0.0023 -0.1438
28557W        W41971  13.702   3.130   5.813  0.1796 -0.0086  0.2130
28558W        W41972   8.019   7.758  10.680 -0.0730  0.3290 -0.0744
28559W        W41973  15.925  15.738  15.236 -0.3634 -0.0479  0.1300
28560W        W41974   9.309  14.088  12.307 -0.1578  0.0204 -0.3998
28561W        W41975  12.973   6.025  14.243  0.1503 -0.1333 -0.2906
28562W        W41976   7.915  17.451  13.758  0.0284 -0.0512  0.1776
28563W        W41977  11.080   6.748  14.621 -0.1668 -0.0785  0.2217
28564W        W41978  12.271   6.033   4.761  0.0113  0.0440  0.2480
28565W        W41979   7.423   0.875  14.558 -0.2229  0.1810 -0.1467
28566W        W41980   3.918   3.537  12.073  0.1402 -0.2334 -0.0066
28567W        W41981  15.168  10.631  11.993  0.2031 -0.0299  0.3161
28568W        W41982   0.050   9.178   3.502  0.1686  0.1823 -0.0392
28569W        W41983   9.708  15.078   1.828  0.0247 -0.2169  0.1590
28570W        W41984  10.510  12.429   2.836  0.1731 -0.3393 -0.1016
28571W        W41985   4.877   6.115   2.555  0.1241  0.1677 -0.1819
28572W        W41986   8.846   8.073   0.665 -0.2650 -0.3990 -0.3086
28573W        W41987  13.908   6.653   5.407 -0.2352  0.1568  0.0247
28574W        W41988   9.394   6.128  13.718  0.1292  0.0535  0.2365
28575W        W41989   6.449  15.330   3.405 -0.0502  0.0317 -0.0636
28576W        W41990  14.648  13.413  12.224  0.0689 -0.0048 -0.0651
28577W        W41991   6.075   2.194  12.291 -0.2696  0.0801 -0.0608
28578W        W41992   8.618   2.179   2.058  0.0068 -0.1524  0.1721
28579W        W41993  15.381  11.547  12.586 -0.2696 -0.0657  0.0591
28580W        W41994   7.880  13.012  16.689  0.0744 -0.1123 -0.1392
28581W        W41995  17.019  12.370   1.047 -0.1048 -0.2951  0.2136
28582W        W41996   1.195  12.780  12.095 -0.1007  0.1553 -0.0323
28583W        W41997  11.198   2.919   1.225 -0.2277 -0.1116 -0.0352
28584W        W41998   3.084  16.899  11.247  0.2062 -0.2455 -0.1728
28585W        W41999   5.419  14.667  12.524  0.2205  0.0740 -0.0919
28586W        W42000  10.188  16.952  12.602 -0.0499  0.1840 -0.0513
28587W        W42001   3.220  13.790   4.974 -0.0382  0.1362 -0.0757
28588W        W42002  13.808   7.621   5.241 -0.1947  0.1710  0.0489
28589W        W42003   8.286   9.907   3.146  0.0396 -0.1239  0.1885
28590W        W42004   3.702  17.750   4.565 -0.4650 -0.3002 -0.0710
28591W        W42005  17.002  15.115  15.168  0.0186 -0.4178  0.0167
28592W        W42006  11.037  17.263   3.408  0.0534  0.0038  0.1317
28593W        W42007   2.200   1.575  12.834 -0.2486 -0.0333  0.0865
28594W        W42008   3.849   8.860   2.831 -0.0401  0.0965  0.1670
28595W        W42009   7.332   7.540  12.499  0.3469 -0.0151  0.2169
28596W        W42010  16.750  14.301   2.128 -0.0623 -0.1173  0.0122
28597W        W42011   0.035   4.253  11.985  0.1927  0.2225  0.0267
28598W        W42012   0.189  11.317  11.581  0.1413 -0.3545  0.1301
28599W        W42013  13.380   5.341   1.323  0.1132  0.0512  0.1176
28600W        W42014   3.571   3.306   0.598  0.1769 -0.2254  0.0766
28601W        W42015   8.161   5.648  12.405 -0.2015 -0.1422 -0.2289
28602W        W42016   4.595   2.539   3.924  0.0471 -0.3092  0.0950
28603W        W42017  17.740  17.880  13.862  0.1709 -0.1715  0.0474
28604W        W42018  12.623   9.657   1.094  0.0960 -0.0612 -0.1382
28605W        W42019  14.565   6.062  13.548 -0.1750  0.1563 -0.1643
28606W        W42020   0.283  15.283  13.416 -0.3176  0.0015 -0.2625
28607W        W42021   3.570  15.579   5.446  0.5673 -0.1436 -0.1669
28608W        W42022   6.173  17.235  11.273 -0.0915 -0.2832  0.0848
28609W        W42023  11.278   4.822  10.810 -0.2155 -0.0817 -0.0758
28610W        W42024   6.806  10.306   2.869  0.1966 -0.0862 -0.0195
28611W        W42025   4.212   7.204   5.704  0.2313 -0.1322  0.1456
28612W        W42026  13.428   9.529  12.951  0.0411 -0.1148 -0.1084
28613W        W42027   4.490   0.794  14.665  0.0771  0.0955 -0.2906
28614W        W42028   6.395   3.579   0.269  0.1871 -0.0867  0.1098
28615W        W42029   6.213  15.801  15.869  0.0710 -0.2121  0.1843
28616W        W42030   7.741   9.940   0.817  0.3404  0.1895 -0.1655
28617W        W42031  17.577  12.237  13.586 -0.2131 -0.1668  0.2507
28618W        W42032   3.527   0.340   3.228  0.0202 -0.0447 -0.0311
28619W        W42033   2.859  14.836  15.430  0.1011  0.2276  0.0357
28620W        W42034   0.245   4.928  11.402  0.1049 -0.2623 -0.3128
28621W        W42035   4.753  11.727  12.360 -0.0275 -0.3174  0.2977
28622W        W42036   5.006   6.337   3.657  0.1383 -0.0872 -0.0698
28623W        W42037  13.267  16.124  13.220 -0.1125  0.0687 -0.0743
28624W        W42038   4.024  12.064  12.867  0.0615  0.1731  0.2539
28625W        W42039   5.691  15.749   1.475 -0.0102  0.0462 -0.1069
28626W        W42040  13.650  15.817  15.575 -0.0588  0.2501  0.0145
28627W        W42041  16.251   5.306   3.507 -0.1994  0.1297  0.1269
28628W        W42042  12.329   1.857   3.034  0.1155 -0.1616 -0.2270
28629W        W42043   8.902  14.634  14.648  0.0069  0.0194 -0.0316
28630W        W42044  10.030  13.797   6.945 -0.3103 -0.0783  0.0320
28631W        W42045   8.193  16.989  16.435 -0.0964  0.0681  0.2100
28632W        W42046   0.485  14.462  14.001 -0.0023 -0.1697 -0.0412
28633W        W42047  16.221   2.191  16.069  0.4553  0.1198  0.0926
28634W        W42048  12.395  17.634   2.606 -0.1100  0.1552 -0.0328
28635W        W42049   8.012   4.711  10.231 -0.0903  0.1639  0.2544
28636W        W42050   0.461   7.095  16.530 -0.0289 -0.0409  0.3432
28637W        W42051   3.527   4.345  11.881 -0.2034  0.1817  0.0232
28638W        W42052  16.209   7.604  14.710  0.1079  0.0185  0.1432
28639W        W42053  11.674   0.736   5.637 -0.1238 -0.3761  0.2133
28640W        W42054   3.906  14.277   2.123  0.1070 -0.1683 -0.0105
28641W        W42055   6.395  12.869  10.974  0.2291  0.0992 -0.1330
28642W        W42056   8.558   2.258  13.575 -0.1468 -0.1026  0.1130
28643W        W42057  11.576   6.877   5.034  0.0575  0.1194  0.3794
28644W        W42058   3.435   3.347  12.090  0.1154 -0.2442 -0.0499
28645W        W42059  16.545   0.858   3.232 -0.1756  0.2524  0.1486
28646W        W42060   7.696  11.348  12.271 -0.0218  0.0813  0.0645
28647W        W42061   2.386  17.231   3.293  0.0080 -0.1925 -0.1553
28648W        W42062   9.516  17.674   1.729 -0.0876 -0.1497  0.0775
28649W        W42063   4.582  14.145  16.212  0.2624  0.1949  0.1654
28650W        W42064   7.368  10.418  15.799 -0.1096  0.0514  0.2538
28651W        W42065   8.851  12.805  13.359  0.2886  0.2593  0.2318
28652W        W42066   1.644   2.565  15.896 -0.0187  0.2306 -0.1171
28653W        W42067   5.781   7.609   0.493  0.0214  0.0404 -0.1141
28654W        W42068  10.545   5.603  16.397 -0.5548 -0.1583  0.2227
28655W        W42069   1.269   6.537   3.790  0.1013 -0.0929  0.0173
28656W        W42070   5.630   1.718   1.810 -0.2307  0.0495  0.1632
28657W        W42071   1.180  14.479   2.355  0.2836 -0.3274  0.0687
28658W        W42072  13.771   9.502   3.472 -0.0478  0.0195 -0.0668
28659W        W42073   8.183  15.995   2.537 -0.0143  0.2539 -0.2258
28660W        W42074   8.622   1.352   3.294  0.1093 -0.3520  0.2062
28661W        W42075   4.381  16.152  15.644  0.0926  0.1924  0.1737
28662W        W42076   5.839  14.629   2.787 -0.2006 -0.0570 -0.2637
28663W        W42077   4.919   7.036  11.958 -0.1499 -0.0818  0.0932
28664W        W42078  17.547   7.082  13.269 -0.1066 -0.3184 -0.1985
28665W        W42079  16.644   2.496  16.766 -0.1220 -0.0276  0.0728
28666W        W42080   6.392   2.084   2.286 -0.0868 -0.0411  0.3308
28667W        W42081   5.950   9.686   2.101  0.0017 -0.3600  0.2090
28668W        W42082   2.619  14.660  14.999 -0.3777 -0.1864 -0.2002
28669W        W42083  16.458  12.971   1.707  0.3076 -0.2929 -0.1332
28670W        W42084   6.462   9.399   2.622 -0.0316 -0.0225 -0.2661
28671W        W42085  15.147   7.481  14.129  0.0785 -0.2960 -0.0095
28672W        W42086   3.196  14.679   1.027  0.1015 -0.3110  0.0754
28673W        W42087  11.979   2.600  15.523 -0.0048 -0.0368 -0.3793
28674W        W42088  14.361   6.668   5.192  0.2322  0.2593  0.0675
28675W        W42089  11.269  11.631  14.232  0.2831 -0.1728  0.0619
28676W        W42090   7.957  17.581   1.282 -0.0505  0.2343  0.0035
28677W        W42091  16.320   5.658   2.384  0.3755 -0.0125 -0.0859
28678W        W42092  12.199  13.002  11.763 -0.1365  0.0443 -0.2666
28679W        W42093  14.555  15.386  12.196  0.0817 -0.1538  0.1760
28680W        W42094  12.580   0.125  13.005  0.1579  0.0180 -0.2388
28681W        W42095  16.479   6.036   5.608 -0.0679  0.4444 -0.3273
28682W        W42096  14.582   6.699  14.559  0.4403  0.2380 -0.4444
28683W        W42097  16.807   0.949  14.204 -0.0181 -0.0137  0.2605
28684W        W42098  16.099   1.717   3.080 -0.1085 -0.1175 -0.0552
28685W        W42099  15.541   0.181   0.067 -0.0623  0.2267 -0.1454
28686W        W42100  11.793   3.240   4.760  0.0968 -0.0909 -0.1977
28687W        W42101  17.550   0.418  12.842 -0.2486 -0.2354 -0.1360
28688W        W42102  10.890   1.200   4.939 -0.0577  0.2289  0.0267
28689W        W42103  11.595   7.359   0.794  0.0860 -0.2583 -0.3715
28690W        W42104   1.100  15.866   4.277  0.0113  0.1401  0.1636
28691W        W42105  14.284  17.255  16.225 -0.4408 -0.0376 -0.0883
28692W        W42106  13.327   5.601  16.492 -0.1781 -0.0098 -0.1404
28693W        W42107  17.740  10.155  16.637  0.1941  0.0523  0.1816
28694W        W42108   1.505  11.448   1.716 -0.0432  0.0493 -0.1627
28695W        W42109   9.774   3.693   0.330  0.2584  0.0890 -0.0794
28696W        W42110   6.597   4.529   5.468  0.0619 -0.0641 -0.1449
28697W        W42111   9.362   3.296   4.764 -0.1164  0.2115 -0.1715
28698W        W42112   6.109   7.750   4.836  0.1577  0.1121  0.1568
28699W        W42113  17.431   7.588  15.820 -0.2181  0.1752  0.3314
28700W        W42114  13.997   9.763   1.868 -0.0476  0.3474 -0.1934
28701W        W42115  10.249   8.336   4.208  0.0548 -0.0423  0.2647
28702W        W42116   9.591  10.469   5.802 -0.1245 -0.0969 -0.3320
28703W        W42117   3.491   0.378  16.026 -0.1384 -0.1340  0.0160
28704W        W42118   7.646  16.259  11.723 -0.0991  0.2163  0.3343
28705W        W42119   5.559   1.615  12.305 -0.1341 -0.2345 -0.1536
28706W        W42120  10.010  11.246   0.809  0.0809 -0.0935  0.0678
28707W        W42121   0.300  13.960   2.245  0.0025  0.0927 -0.0399
28708W        W42122   5.894  11.893   5.952 -0.1278  0.1236  0.0426
28709W        W42123   2.421   7.500  15.740  0.1739  0.2335 -0.2844
28710W        W42124  17.468   6.148   3.233 -0.1124 -0.1515  0.2382
28711W        W42125   6.712  15.989  14.776  0.1918 -0.0464  0.1748
28712W        W42126   9.246   9.878   6.340 -0.0858 -0.0481 -0.2983
28713W        W42127  12.363   6.968   3.099  0.1064  0.3560  0.0064
28714W        W42128   4.222   5.132  16.147  0.0921  0.0318 -0.3895
28715W        W42129  16.895  15.505  11.955  0.2232  0.2008  0.0840
28716W        W42130   5.227  10.941  12.703 -0.0759 -0.2113  0.0157
28717W        W42131  16.496  14.000  14.651  0.0351 -0.0636 -0.1383
28718W        W42132  14.860  15.561  14.416 -0.0404  0.1041  0.0262
28719W        W42133   0.340  17.463  10.813  0.0793  0.1529 -0.0795
28720W        W42134   6.339   7.954   3.546 -0.2850 -0.0740 -0.1190
28721W        W42135   9.340   6.299   1.677  0.0921  0.1011 -0.0574
28722W        W42136   4.084  15.903  11.130  0.1105 -0.2035  0.1413
28723W        W42137   2.087   4.618   5.022  0.0012  0.2725 -0.1455
28724W        W42138  10.063   1.788   3.987 -0.0091 -0.1931  0.1229
28725W        W42139  11.144  15.506  13.005 -0.0417  0.1441 -0.1759
28726W        W42140   0.695   9.379  12.353 -0.4903  0.1374  0.1431
28727W        W42141  15.868   0.896  12.011  0.0728  0.0205 -0.2171
28728W        W42142   1.720   6.341  13.345  0.0083 -0.0997 -0.1482
28729W        W42143   8.729  14.275   1.986 -0.1207  0.0584 -0.3572
28730W        W42144  14.605   4.059   1.033  0.0105  0.0040 -0.3037
28731W        W42145  17.968   6.514   1.111  0.3482 -0.0559 -0.0834
28732W        W42146  14.897   5.964   2.565  0.3488  0.1066  0.1084
28733W        W42147   5.055  14.542  11.007 -0.4354  0.0257 -0.3755
28734W        W42148  10.012  10.364   1.057  0.3365 -0.1218  0.1278
28735W        W42149  10.838   8.444   5.076 -0.0259 -0.1340  0.0784
28736W        W42150   2.008  10.133   2.188  0.1095  0.0847  0.0220
28737W        W42151  12.410   5.123  14.718  0.0408 -0.0107  0.3469
28738W        W42152   2.055   1.402  14.352  0.1019  0.1253  0.1733
28739W        W42153  16.624  13.409   3.810  0.0363 -0.3227  0.2138
28740W        W42154   4.388  11.787   4.491  0.2536 -0.0384 -0.1560
28741W        W42155  16.401   8.139  11.151  0.0264  0.0285 -0.0099
28742W        W42156   9.222  17.874  11.699  0.0770 -0.2285 -0.2821
28743W        W42157  10.452   9.646   2.655 -0.0000 -0.1453 -0.1151
28744W        W42158   1.824   4.277   1.745  0.0392 -0.1312  0.1683
28745W        W42159  10.345  14.142   2.442  0.4382  0.1869  0.0211
28746W        W42160   3.392   8.803   2.186 -0.0446 -0.3273 -0.0449
28747W        W42161   8.878  12.377  14.140 -0.4426  0.0794 -0.1086
28748W        W42162  11.107   9.075   4.121  0.0427 -0.1971  0.4927
28749W        W42163   4.958  15.870   0.769 -0.0852  0.1855 -0.1856
28750W        W42164  12.616   9.027   0.228  0.4551 -0.1325  0.2762
28751W        W42165  11.564  17.803  16.363 -0.0639  0.5517 -0.1137
28752W        W42166   5.041  13.927   4.462 -0.0586  0.2119 -0.1996
28753W        W42167  16.035   9.540  11.551  0.2098  0.1299 -0.1091
28754W        W42168   8.215   5.310   3.411  0.1818  0.1001 -0.1020
28755W        W42169   6.353  12.973   1.665 -0.0025 -0.3520  0.2523
28756W        W42170  11.939   6.078  12.467  0.0131  0.2113  0.0569
28757W        W42171   1.531   0.841   0.354 -0.0410  0.0018  0.2721
28758W        W42172  13.397   7.508  15.678 -0.0775  0.0392 -0.3787
28759W        W42173   0.478   7.169   5.157 -0.0559 -0.1367 -0.4000
28760W        W42174   3.251  14.634  10.768  0.1137  0.0384 -0.1426
28761W        W42175   4.255  14.247  15.793 -0.0327  0.0286 -0.1995
28762W        W42176  15.519   1.357  14.974 -0.5440  0.1245  0.1619
28763W        W42177  10.592  10.368   6.614 -0.0874  0.0738  0.0604
28764W        W42178   3.112  16.686   3.499  0.0388 -0.0100 -0.0263
28765W        W42179   7.209  12.688  15.425 -0.0111  0.2646  0.0241
28766W        W42180  15.640   0.892   3.041  0.2605  0.0050 -0.4884
28767W        W42181   4.395  13.850   4.296  0.1421  0.1145 -0.0093
28768W        W42182  13.521  10.132  15.020  0.2544 -0.2523  0.0884
28769W        W42183  16.497   3.071   1.629 -0.1150 -0.2495  0.1485
28770W        W42184  13.119   6.523   4.561  0.1427  0.0945 -0.2997
28771W        W42185  14.956   7.521  12.830 -0.0586 -0.1038 -0.1389
28772W        W42186   8.046   3.018   0.028  0.2187 -0.0078  0.2858
28773W        W42187   9.582  15.990   4.184 -0.0105 -0.1166  0.2801
28774W        W42188  10.311  15.496  12.873 -0.1730  0.2165 -0.0637
28775W        W42189  13.448  12.677   5.639  0.0838  0.2698 -0.0886
28776W        W42190  16.545   1.941   2.378  0.0195 -0.1380 -0.0704
28777W        W42191   5.005   4.078  14.310  0.2108  0.1557 -0.0356
28778W        W42192   9.963  14.373   2.682  0.3426 -0.0464  0.1223
28779W        W42193   2.663   2.383  14.925  0.1130 -0.2925  0.0307
28780W        W42194  12.778  10.385   4.985  0.2642  0.1951 -0.1235
28781W        W42195  12.574   5.828  15.140 -0.1016  0.4984 -0.3943
28782W        W42196  13.595   4.793   1.837  0.1160 -0.1438  0.1517
28783W        W42197  15.074  10.774   4.456 -0.1741 -0.1086  0.2639
28784W        W42198   6.530   7.345  12.961 -0.0715  0.0580  0.0760
28785W        W42199   4.068  14.043  16.214  0.1680 -0.2824 -0.2470
28786W        W42200   9.653   4.729   3.549  0.1438 -0.0794 -0.0966
28787W        W42201  16.540   9.354  12.755  0.1982  0.1638 -0.3141
28788W        W42202   0.192   1.447  15.620 -0.1129 -0.0060 -0.2516
28789W        W42203   5.081   7.169  16.121  0.1179  0.2208 -0.0717
28790W        W42204  11.136   0.867   5.460  0.0420  0.1234 -0.0984
28791W        W42205   3.814   2.125  16.093  0.0841  0.0274 -0.0072
28792W        W42206   0.392   8.032  12.919  0.1777  0.1089  0.0458
28793W        W42207  12.905  16.577   4.859  0.2424  0.0464  0.0800
28794W        W42208  15.596   8.030  15.165  0.0013 -0.0385  0.0659
28795W        W42209   7.999   6.505  16.500  0.0306  0.3382 -0.0039
28796W        W42210  10.656  13.687  14.029  0.0659 -0.2916  0.0328
28797W        W42211   6.529   2.747   4.713 -0.2108 -0.0564  0.0446
28798W        W42212  10.072   8.809   4.412 -0.2482  0.0231 -0.0500
28799W        W42213   5.596   6.082   0.352 -0.1601  0.0008 -0.1302
28800W        W42214   1.148   8.230   3.143  0.0461 -0.0423  0.2480
28801W        W42215  12.029  14.234   0.717  0.1661  0.1196  0.0347
28802W        W42216  11.595   4.991  10.411 -0.0030 -0.1012  0.2373
28803W        W42217  15.024   1.782  14.293  0.1688 -0.1645 -0.2826
28804W        W42218   4.852   3.051  11.917 -0.1346  0.0164  0.1053
28805W        W42219  12.833  17.956  14.777  0.2133  0.1446 -0.0103
28806W        W42220   4.167   2.567   4.692  0.2385 -0.1824 -0.0052
28807W        W42221   7.410   9.687   2.631 -0.1157 -0.0529  0.0326
28808W        W42222   4.125  16.706  16.274  0.2617  0.1299  0.2209
28809W        W42223   9.468   7.090   6.418  0.0048 -0.1866  0.1248
28810W        W42224   7.624  13.592   4.159  0.1284  0.0679  0.0112
28811W        W42225   0.923  10.208   3.445 -0.0932 -0.0985 -0.1122
28812W        W42226  17.914   2.525   0.442 -0.0557 -0.1097 -0.0081
28813W        W42227   1.690   7.339  11.252  0.2378 -0.3723 -0.3787
28814W        W42228  13.961  15.082   3.043 -0.0800 -0.0725 -0.1059
28815W        W42229   5.507   2.041   6.207  0.1135 -0.1322  0.3246
28816W        W42230   6.636   0.365  16.628  0.0383  0.0490  0.1922
28817W        W42231  11.220   7.248  13.569 -0.0929 -0.2817  0.2204
28818W        W42232  16.590   9.297   3.119 -0.1454 -0.0599  0.2109
28819W        W42233   9.113  16.737  14.757 -0.3128 -0.0605 -0.0810
28820W        W42234   3.824   6.808  11.091  0.0322  0.1979 -0.2102
28821W        W42235   5.273   6.045   2.195 -0.3263  0.1084 -0.0625
28822W        W42236  16.138  14.573   2.900 -0.2311  0.2505 -0.2915
28823W        W42237   0.251   3.254  15.902 -0.1040 -0.2564 -0.1671
28824W        W42238  11.604  17.650  10.752  0.1043  0.0187  0.1555
28825W        W42239  10.449   2.520  13.798 -0.0384  0.1076  0.0830
28826W        W42240   5.900   8.013  12.619  0.2587 -0.1685  0.0219
28827W        W42241  15.389  12.768  11.955 -0.1020 -0.0701  0.0101
28828W        W42242   8.155  14.085  14.735  0.1277  0.1050  0.2713
28829W        W42243  15.964  10.118   3.767 -0.0288  0.1844  0.1328
28830W        W42244  12.529   1.639   4.899 -0.0800  0.1524  0.1510
28831W        W42245  13.737   8.637  15.595 -0.0916  0.0955 -0.2392
28832W        W42246  15.191   3.486   0.531 -0.1408 -0.2905  0.1667
28833W        W42247   8.253  14.103  15.504  0.0420 -0.2451  0.1072
28834W        W42248  17.637   5.263  13.713 -0.0679  0.0025  0.0144
28835W        W42249   8.314   0.544  12.296 -0.4616 -0.4862  0.0823
28836W        W42250  17.500   2.463  11.981 -0.1541 -0.0874 -0.0976
28837W        W42251  14.405  17.049  16.687  0.2254 -0.0581  0.1078
28838W        W42252  17.495  13.325   2.238 -0.2361 -0.0176 -0.2224
28839W        W42253  10.158   9.492  16.574  0.2213  0.1634 -0.0338
28840W        W42254  17.954  13.117  14.972 -0.0339 -0.0411  0.0175
28841W        W42255  10.298  16.130  11.681  0.1755  0.2546  0.0087
28842W        W42256  17.586  15.619   1.305 -0.1164  0.0952 -0.0256
28843W        W42257  17.092   3.224   1.115  0.0776  0.2619  0.0894
28844W        W42258   2.678  10.058   0.287 -0.0655  0.0690 -0.0677
28845W        W42259   5.130  15.447  16.695 -0.2365  0.3072  0.1967
28846W        W42260   2.528  12.327   4.523  0.0860 -0.0303  0.1334
28847W        W42261  17.687   9.846  14.026 -0.1450  0.1741 -0.0340
28848W        W42262  13.303   9.624   3.562  0.0411 -0.1148 -0.1332
28849W        W42263  12.416  14.230  14.339 -0.1593 -0.5432 -0.0775
28850W        W42264   2.304   1.032  11.622 -0.0600 -0.1428  0.1540
28851W        W42265   7.290   6.210   1.556  0.0063 -0.1729  0.0532
28852W        W42266   1.709  17.293  12.720  0.0254 -0.0428  0.3811
28853W        W42267  10.279   7.752  16.009 -0.1908 -0.4127 -0.0097
28854W        W42268   5.963   2.894   9.861 -0.1618  0.0161 -0.1157
28855W        W42269  14.441  14.900  12.393  0.3063 -0.1501  0.1932
28856W        W42270   9.055  10.524   5.098 -0.5636 -0.0706  0.0937
28857W        W42271  15.402   5.498   2.374  0.1276 -0.1402  0.1400
28858W        W42272   2.638  15.237  14.109 -0.0385  0.1361 -0.0420
28859W        W42273   7.799  12.232  12.170  0.4159  0.2164  0.0487
28860W        W42274   4.545  11.644   1.027  0.1542  0.1026 -0.2843
28861W        W42275   9.484   7.066   0.058 -0.1165 -0.1411 -0.0811
28862W        W42276   7.183  11.969   2.821  0.3031 -0.0177 -0.0279
28863W        W42277   2.866  11.952  10.868 -0.1810 -0.0031  0.2275
28864W        W42278   0.360   7.403  10.529 -0.2398 -0.2765 -0.0136
28865W        W42279   7.129   4.589  10.564  0.0105  0.1618 -0.0784
28866W        W42280  15.421  16.352   0.519  0.0972 -0.0639  0.1026
28867W        W42281   9.045   4.149  11.179  0.2570  0.1907 -0.2336
28868W        W42282   1.312  15.382  12.671  0.1756 -0.1670  0.0446
28869W        W42283  11.487  13.440  13.996  0.1013  0.0478 -0.1593
28870W        W42284   7.872   1.272   0.772  0.0115 -0.0846  0.0193
28871W        W42285  11.406   3.841  13.794 -0.4795  0.2889  0.0986
28872W        W42286   6.772   8.158   2.188 -0.0457 -0.0359  0.3677
28873W        W42287   6.121  14.715  14.505  0.1603 -0.2100 -0.0382
28874W        W42288   8.655   5.011  15.771  0.3841  0.0902 -0.1004
28875W        W42289   8.584  16.628  11.909 -0.0569 -0.1639  0.4353
28876W        W42290  16.497   3.174  10.343 -0.2223  0.1290 -0.2455
28877W        W42291   9.857  15.941   5.769  0.2515  0.1107 -0.0710
28878W        W42292  10.548   4.255   0.499  0.2250  0.0055  0.1850
28879W        W42293   6.224  14.866  10.660 -0.0462 -0.2280  0.1472
28880W        W42294   7.441  12.527  12.267 -0.2736  0.0699  0.0912
28881W        W42295   3.186   6.693  14.928  0.1412  0.2600 -0.4128
28882W        W42296  12.677   4.670  15.263 -0.1684 -0.3456  0.0198
28883W        W42297   5.777  15.964  14.105  0.0090 -0.2500 -0.0360
28884W        W42298  11.014   1.529   4.103 -0.1395 -0.1234 -0.0598
28885W        W42299  15.566  13.280   0.268  0.2549  0.0737 -0.2494
28886W        W42300  11.856   4.775  13.906 -0.0834 -0.1176 -0.1066
28887W        W42301  17.839  16.490   5.111  0.1320 -0.2698  0.1814
28888W        W42302   7.799  14.172  15.647 -0.0489 -0.0067  0.1475
28889W        W42303  15.730   5.298  13.932  0.1179 -0.1385  0.1005
28890W        W42304   3.857   3.454  13.961  0.2491 -0.1168 -0.1752
28891W        W42305  14.649   0.403   4.814  0.2572 -0.0735 -0.2523
28892W        W42306   6.571   0.071  10.772  0.0572  0.0767 -0.4174
28893W        W42307   8.170   7.406  13.848 -0.0582  0.2209 -0.1150
28894W        W42308  13.098   4.401  15.225  0.1491 -0.0466  0.3964
28895W        W42309  11.268  17.211  12.891 -0.0188  0.0724 -0.2718
28896W        W42310   4.758  11.067   3.837  0.3024  0.0583  0.2439
28897W        W42311  11.196  12.120  11.752  0.0445  0.0165  0.2425
28898W        W42312   0.184  16.138   2.874 -0.1463 -0.1331 -0.3191
28899W        W42313  13.587  11.532   2.455 -0.0236  0.0603  0.0640
28900W        W42314   2.476  14.579   0.783 -0.0168  0.1199  0.0563
28901W        W42315  17.134   3.995   0.206  0.1143 -0.0571  0.0599
28902W        W42316  13.323  13.653  12.997 -0.4207  0.0531 -0.0296
28903W        W42317  17.799   2.832   3.662 -0.1009  0.1681 -0.0845
28904W        W42318  16.253   9.681  15.118  0.2037  0.1559 -0.1038
28905W        W42319   1.178  11.182  16.557 -0.1163  0.0650 -0.0703
28906W        W42320  16.037   1.686  12.009  0.2393  0.2810 -0.0288
28907W        W42321   8.716   0.947   4.387 -0.0757  0.0036  0.1803
28908W        W42322  16.202  17.298  12.285  0.2396 -0.0208  0.0124
28909W        W42323  13.171  15.913  16.480  0.1734  0.1556 -0.0235
28910W        W42324   1.339   3.395  11.751  0.2907  0.0076 -0.2075
28911W        W42325   9.833   9.143  13.401  0.2333  0.0686  0.0566
28912W        W42326   0.163   9.268  11.838 -0.3182 -0.0513  0.0451
28913W        W42327   5.420   6.618   0.235  0.0751  0.0538 -0.0184
28914W        W42328  11.262   2.041  13.932  0.1842  0.2012 -0.0304
28915W        W42329   9.385   4.419  10.425  0.3116  0.0909  0.0648
28916W        W42330   6.237  11.263   3.470 -0.3679  0.0545  0.1199
28917W        W42331  12.536  14.577  15.617 -0.0498  0.1016 -0.0106
28918W        W42332   9.880  11.792  14.869 -0.0510  0.1461 -0.2654
28919W        W42333  15.487   0.298   4.423  0.1544  0.2165  0.1439
28920W        W42334   4.300  17.781  13.724 -0.3724  0.0284 -0.3870
28921W        W42335  12.576  13.127   0.480 -0.0866  0.2678  0.0960
28922W        W42336  17.411   3.258   2.354  0.3914  0.1773 -0.2975
28923W        W42337  10.396  11.003   6.753 -0.0594 -0.1198 -0.4400
28924W        W42338  17.460  15.312  13.407  0.0892  0.0413  0.5445
28925W        W42339   8.813  14.808  16.159  0.1757 -0.0299  0.0380
28926W        W42340   3.289   0.488   5.771  0.0695  0.0644 -0.0453
28927W        W42341   6.998  13.552   4.093 -0.0806 -0.1499 -0.1599
28928W        W42342   8.274   9.448   3.989 -0.3193 -0.0525  0.1829
28929W        W42343  13.860  15.967   1.919 -0.1880  0.0023 -0.1814
28930W        W42344  11.588   5.573   5.802  0.1430 -0.0701 -0.2859
28931W        W42345  12.348   8.427  11.588  0.0543 -0.3210  0.0876
28932W        W42346   9.801  17.769  15.920  0.0656 -0.0019  0.5011
28933W        W42347  11.596   2.689  13.222  0.0155 -0.2590 -0.0680
28934W        W42348   6.691   7.928  15.183 -0.0802  0.0161 -0.1241
28935W        W42349  13.815  16.410   4.767  0.0686 -0.1324  0.1462
28936W        W42350   8.001  14.001  16.574 -0.2348  0.0686  0.2057
28937W        W42351   0.218   1.915  13.293 -0.2612  0.2384  0.3376
28938W        W42352   7.461   2.289   5.507  0.0620 -0.2375 -0.0913
28939W        W42353  14.088  13.650  12.768  0.0476  0.1419 -0.0146
28940W        W42354   5.664   6.661   2.438  0.4063 -0.0249 -0.2873
28941W        W42355   7.862  10.436   2.507 -0.2863 -0.2036 -0.0019
28942W        W42356   1.407  14.683  14.191 -0.1772  0.0617 -0.1220
28943W        W42357   1.701   0.960  10.916  0.0317  0.1284  0.0624
28944W        W42358  17.323   5.712  13.065  0.0267 -0.3759  0.4063
28945W        W42359   0.697  12.413  12.639  0.0303  0.5574  0.2478
28946W        W42360   3.361   5.948  12.209  0.0604 -0.2043  0.0389
28947W        W42361   3.181  12.410   3.219 -0.0522  0.0178 -0.4638
28948W        W42362   4.928  10.072   1.181  0.0638 -0.0483 -0.4298
28949W        W42363   2.129  17.849  11.450 -0.0879 -0.2412 -0.0420
28950W        W42364   9.927  10.273  15.372  0.3324 -0.1030  0.0051
28951W        W42365  15.497  10.732   5.254  0.3629 -0.0891  0.1571
28952W        W42366  12.376  13.881   2.157  0.0212 -0.2918 -0.2123
28953W        W42367  14.207  16.189   4.470 -0.2860 -0.0142  0.3244
28954W        W42368   9.261   1.465   0.569  0.0849  0.4269 -0.0376
28955W        W42369   6.165  15.404   0.670 -0.1395  0.3004  0.1634
28956W        W42370  10.326  15.763   0.850  0.1216  0.0965 -0.0432
28957W        W42371   9.256  13.575   6.646  0.0880  0.0353  0.4220
28958W        W42372   4.270  10.388   3.440 -0.1209  0.0267 -0.3247
28959W        W42373   2.294  11.244   3.279 -0.1237 -0.2285 -0.0759
28960W        W42374   4.650  15.305  12.905  0.0741 -0.0750  0.0612
28961W        W42375   6.070  15.068  11.952 -0.0489  0.1931 -0.0017
28962W        W42376   4.650   6.237  12.401  0.2614  0.2182  0.0188
28963W        W42377   9.901   3.367   9.541  0.1903  0.1856 -0.0052
28964W        W42378   3.800  17.468  15.726 -0.0735  0.1183 -0.0467
28965W        W42379   7.224  14.517  12.609  0.0186 -0.1448 -0.5249
28966W        W42380   1.215   6.905  12.193 -0.1273  0.2434 -0.0736
28967W        W42381  15.650   0.432  12.371  0.1857  0.0856 -0.0484
28968W        W42382   3.440  16.018  11.973 -0.1424  0.1604 -0.2572
28969W        W42383  16.307   4.920   3.796 -0.1964  0.2716 -0.0044
28970W        W42384  14.962  17.950   0.759 -0.3314  0.1054 -0.1208
28971W        W42385  13.274   3.192  12.611  0.0100 -0.0986 -0.2032
28972W        W42386   1.011  16.928  11.095  0.1568  0.0068  0.0544
28973W        W42387  10.940   3.397   5.063 -0.0109  0.0818 -0.0533
28974W        W42388   2.367   1.840   1.909 -0.3524  0.3428 -0.0258
28975W        W42389  16.903  12.444   5.437 -0.2203 -0.0032  0.1465
28976W        W42390   7.675  16.743   2.416  0.2827 -0.1099  0.1051
28977W        W42391  15.104  16.646   1.440 -0.0788  0.3724  0.1625
28978W        W42392   4.519   6.793  10.411  0.1143  0.1113  0.2120
28979W        W42393  15.384  17.829   0.525  0.1303  0.1435 -0.2568
28980W        W42394   7.707  14.800   1.356  0.1481 -0.3201 -0.3415
28981W        W42395   9.577  15.798  16.667  0.0142  0.0544  0.0797
28982W        W42396   8.955   1.681   2.090  0.1059  0.4128 -0.1305
28983W        W42397  10.623  11.058   2.867  0.0175  0.1063  0.3409
28984W        W42398  14.268   5.297  14.286  0.0830 -0.1877 -0.0927
28985W        W42399   6.043  10.430  14.687 -0.0853  0.2916 -0.2387
28986W        W42400   9.297   2.384   3.965  0.0845 -0.1548 -0.1993
28987W        W42401   0.024   2.863  15.028 -0.1288  0.0478  0.0955
28988W        W42402  11.810  15.137   2.773  0.3501  0.0553  0.2263
28989W        W42403   6.149   6.653   2.676 -0.0560 -0.0363 -0.1003
28990W        W42404   1.236   1.114   3.845  0.1623 -0.0015 -0.1180
28991W        W42405   0.521  16.020   1.181  0.1146  0.1278 -0.1807
28992W        W42406   5.505  10.669  16.702 -0.0903  0.0282 -0.2066
28993W        W42407   5.684   9.690   0.866 -0.2923 -0.0954 -0.4033
28994W        W42408   7.822   7.075  12.250  0.0801 -0.2812 -0.0831
28995W        W42409   3.537   9.900   3.255 -0.1517  0.1242 -0.2754
28996W        W42410  10.832   8.683   4.279  0.0362 -0.0646 -0.2028
28997W        W42411  11.706   2.224  13.201 -0.1980 -0.0902 -0.3147
28998W        W42412   7.728  10.757   2.828 -0.1675  0.0852 -0.0623
28999W        W42413   4.646  12.709   0.716  0.0625 -0.1594 -0.2095
29000W        W42414   8.042   7.978  16.358  0.1009  0.0713 -0.0169
29001W        W42415   0.434  14.872   1.789  0.1347 -0.2515  0.1360
29002W        W42416  11.149  11.131   7.255 -0.0709 -0.0994 -0.1741
29003W        W42417   1.023   9.762   2.148  0.0483 -0.2698  0.3373
29004W        W42418  17.454   7.481  11.044  0.0009  0.0124  0.0631
29005W        W42419  13.253   2.044  15.751 -0.2688  0.1127 -0.2901
29006W        W42420   4.530   2.171  14.416 -0.1269  0.0790  0.0707
29007W        W42421   5.479  16.606  11.881  0.1721 -0.1820  0.1080
29008W        W42422   7.813   6.398   5.379  0.0469 -0.2377  0.1253
29009W        W42423  16.255  12.970  11.463 -0.0266  0.1916  0.2048
29010W        W42424  17.788  13.485  15.354  0.3059 -0.1290  0.2188
29011W        W42425   7.288   0.018  14.884 -0.4031  0.1637 -0.3715
29012W        W42426   3.594   3.962   2.447  0.1115 -0.0679  0.1573
29013W        W42427   5.621   1.918  14.052 -0.1345  0.1338 -0.3867
29014W        W42428  11.519   1.791   4.783 -0.0529 -0.0632  0.1081
29015W        W42429  11.810   6.014   4.529 -0.0227 -0.1466 -0.4914
29016W        W42430  12.167  11.181   4.606 -0.2309 -0.1278 -0.4264
29017W        W42431   9.589   9.514  14.852  0.0358 -0.1240 -0.2420
29018W        W42432   1.792   5.585  14.865  0.1805 -0.1979 -0.0959
29019W        W42433   9.297   6.376  14.723 -0.2094  0.2760  0.5480
29020W        W42434   0.516  11.551  15.748  0.1104  0.3438  0.1525
29021W        W42435   5.879   1.082  15.953  0.0213 -0.0904  0.0349
29022W        W42436  13.913   4.971  12.182  0.1606 -0.1193  0.1155
29023W        W42437   8.061  10.583  14.217  0.1468  0.3072 -0.2778
29024W        W42438   0.994  13.342   2.589  0.1255  0.1085 -0.1814
29025W        W42439  12.686   3.758  14.204 -0.0660  0.1673  0.0033
29026W        W42440  17.688   7.775   0.800 -0.1691 -0.2084  0.1399
29027W        W42441  10.962  10.481   0.086 -0.0407 -0.0048  0.2404
29028W        W42442   1.657  17.847  15.650 -0.1263  0.0330  0.1086
29029W        W42443   9.650   9.518  16.533 -0.1047  0.0654  0.5070
29030W        W42444   3.312   5.428  16.062  0.1064  0.1561  0.0074
29031W        W42445  12.245   2.380   0.067  0.0994 -0.3336  0.0052
29032W        W42446  10.751   4.086   3.014  0.0811 -0.0341  0.2761
29033W        W42447   6.807   6.256   1.676 -0.3670  0.0168 -0.1258
29034W        W42448   5.499   6.466   5.774 -0.0460  0.0260 -0.1042
29035W        W42449   1.287  10.433   4.924 -0.0450 -0.0934  0.2435
29036W        W42450  11.473   3.588  12.734  0.2353  0.2885  0.1164
29037W        W42451   5.851  14.911  14.882 -0.1851 -0.2058  0.0338
29038W        W42452   6.838  12.563  15.879 -0.0357  0.4397 -0.2289
29039W        W42453  17.148  12.893   0.158  0.1187 -0.1813 -0.0731
29040W        W42454   7.244   7.819  11.399 -0.1246 -0.0724  0.0774
29041W        W42455   5.348  16.755  14.500  0.1621 -0.0208  0.1764
29042W        W42456  13.310   0.070  13.992  0.2685  0.3516  0.1801
29043W        W42457  13.235   1.726  10.706 -0.0017  0.0501  0.1811
29044W        W42458   8.602   6.700  11.607 -0.2897 -0.1015 -0.0739
29045W        W42459   9.389   6.306  16.694 -0.0161 -0.1731  0.0663
29046W        W42460   6.748  12.315  16.313 -0.1864 -0.0496  0.1279
29047W        W42461   1.772   3.914  12.376 -0.0019 -0.2274  0.0152
29048W        W42462   7.378   9.830   4.052 -0.2339  0.1586 -0.1048
29049W        W42463  15.886   9.596  14.219  0.1184  0.2648  0.2001
29050W        W42464   8.565   7.154   5.848 -0.3729  0.3411  0.3135
29051W        W42465   2.466   3.977  14.824 -0.0513  0.0653 -0.0200
29052W        W42466  15.718  15.287  15.686 -0.0354 -0.2230  0.1065
29053W        W42467  13.995   5.462  12.220  0.2224  0.0786 -0.1663
29054W        W42468  10.064  15.590   2.918  0.0632  0.1613 -0.2632
29055W        W42469   4.419  17.665   5.509 -0.0128  0.2081 -0.0976
29056W        W42470  14.744  17.835  12.656 -0.1295  0.2673  0.0382
29057W        W42471  17.684  12.913   1.808 -0.1675  0.1882 -0.0313
29058W        W42472   4.988   2.588   5.445  0.2887 -0.0359 -0.1422
29059W        W42473  16.253   5.506  11.069 -0.0213  0.1318  0.1536
29060W        W42474  10.310   3.836   3.160  0.2715 -0.2695 -0.0805
29061W        W42475   3.667  13.593   4.836 -0.0934  0.0732  0.2453
29062W        W42476  14.980  17.284   4.468  0.1873 -0.1053  0.0187
29063W        W42477  11.155  17.960  14.474  0.0434  0.0989  0.1080
29064W        W42478   1.232  16.183  13.111 -0.1088  0.0547 -0.1824
29065W        W42479  14.357   4.516  13.533 -0.0943  0.0410 -0.1950
29066W        W42480   9.104  14.985   3.477 -0.0539  0.0090  0.0218
29067W        W42481  14.964  16.240   3.642 -0.0026 -0.0511  0.2803
29068W        W42482   9.998  16.633  13.352  0.1975 -0.0026  0.1087
29069W        W42483   2.044   1.499   3.567  0.1208 -0.1613  0.1458
29070W        W42484   5.031  12.082   4.927  0.0382  0.2644 -0.0269
29071W        W42485   8.821   0.868   5.746 -0.0726  0.2019  0.0860
29072W        W42486  14.116   8.346  13.825 -0.0842 -0.0201  0.1085
29073W        W42487   9.470  14.917  13.041 -0.1902  0.3679 -0.0366
29074W        W42488   5.403  12.166  15.079  0.0638  0.0370 -0.0712
29075W        W42489   7.699   6.487  15.492 -0.0446 -0.0106 -0.0080
29076W        W42490   9.799   3.776   0.840  0.3072 -0.0402 -0.1011
29077W        W42491  14.342   9.605   6.159  0.0901 -0.1490  0.1031
29078W        W42492   3.591   9.929   6.405 -0.0851  0.1194  0.3810
29079W        W42493   0.216   2.408   1.483 -0.2373  0.0906 -0.1422
29080W        W42494  16.027   4.090  15.526  0.2077 -0.2532  0.2315
29081W        W42495   1.249   4.904  13.011  0.3052 -0.2263  0.4385
29082W        W42496  13.996   0.060  11.337  0.3499 -0.2504  0.0117
29083W        W42497   9.102  16.485   4.477 -0.1807 -0.1033 -0.1785
29084W        W42498   6.925  17.862   1.175 -0.0015  0.1064  0.0122
29085W        W42499  13.104   6.877  14.848 -0.1482  0.0850 -0.0915
29086W        W42500   8.373  13.099   5.046  0.0157 -0.0575  0.1220
29087W        W42501  10.215  17.308  11.093  0.1521 -0.3522 -0.0550
29088W        W42502   6.741   0.083   3.403  0.0244 -0.1737 -0.3927
29089W        W42503   7.579  16.689   4.357  0.0028 -0.1073  0.3205
29090W        W42504  15.643   9.548   5.800  0.0526 -0.0627 -0.0618
29091W        W42505  13.190  11.125   3.227 -0.0396 -0.0370  0.1077
29092W        W42506  13.775  11.206  15.678  0.1992  0.0380 -0.2937
29093W        W42507  10.825  11.958   1.637 -0.0441  0.0147  0.3623
29094W        W42508   5.336  15.791  10.906 -0.3222  0.1264  0.1414
29095W        W42509  14.207   6.115   4.245 -0.0723 -0.0417  0.0924
29096W        W42510  16.600  16.447   3.608 -0.1969 -0.1374  0.0617
29097W        W42511   2.193  10.716  15.527 -0.1188 -0.0384  0.0895
29098W        W42512   4.487   9.741  14.288 -0.1060  0.3776 -0.0766
29099W        W42513   7.151   0.913  16.485 -0.1362  0.1197  0.0420
29100W        W42514   8.015  14.754  15.192  0.0537  0.2205  0.2417
29101W        W42515  12.732  16.132   4.736 -0.0619 -0.2203  0.2781
29102W        W42516   1.295  11.294   3.136  0.2083 -0.0138  0.1507
29103W        W42517   6.542   9.882  11.905  0.2194 -0.3072 -0.2683
29104W        W42518  12.754  12.970  13.351 -0.0369 -0.1026 -0.1224
29105W        W42519   2.490   6.983   4.556 -0.0257 -0.0771 -0.1273
29106W        W42520  15.842   7.378  12.575 -0.1753 -0.2615 -0.3192
29107W        W42521  14.768   8.975  14.173  0.0943  0.2416  0.0321
29108W        W42522  10.046  17.311  14.954  0.2450 -0.1417 -0.0599
29109W        W42523   0.946   5.738   3.460 -0.0967 -0.0276 -0.0449
29110W        W42524   1.800   9.331   3.110  0.2284  0.0720 -0.1037
29111W        W42525   1.437   8.378  12.519 -0.2543  0.3514 -0.1523
29112W        W42526  11.241  15.400   4.885  0.0485  0.2664 -0.1794
29113W        W42527   8.415   7.215   4.376  0.0652 -0.1739  0.1358
29114W        W42528  11.193   5.420   5.580  0.3093 -0.1389 -0.0976
29115W        W42529   9.586   7.352   3.465 -0.1860 -0.0461  0.0621
29116W        W42530  14.714  10.091   6.370  0.0752 -0.1144  0.0087
29117W        W42531   4.301  11.424   0.203 -0.0163  0.0406 -0.2859
29118W        W42532  15.727   8.991  13.326  0.3379 -0.0340  0.2729
29119W        W42533   9.082  13.151   6.549 -0.1284  0.0149  0.1243
29120W        W42534   5.825  10.275   4.157 -0.1246  0.3628 -0.0910
29121W        W42535   8.763   1.647   4.674  0.0156 -0.1444  0.0590
29122W        W42536   2.549   0.761   2.541  0.0327 -0.4721 -0.2320
29123W        W42537  12.139  13.737   0.654 -0.0701  0.0533 -0.0607
29124W        W42538  17.340   2.210   3.136  0.2295 -0.0842  0.0212
29125W        W42539   4.424   5.643   3.899  0.0581  0.1897  0.0421
29126W        W42540  16.108   1.877   0.181 -0.0049 -0.0904  0.0228
29127W        W42541  10.097   1.139   2.852  0.1962  0.3986 -0.1245
29128W        W42542   1.674   1.320  15.142  0.1401  0.0169  0.0779
29129W        W42543   8.532  17.608  15.903 -0.0800  0.0278  0.1283
29130W        W42544   4.886   1.719   3.383  0.1908 -0.0541 -0.0065
29131W        W42545   1.038   2.507  11.899  0.0245  0.0061 -0.0188
29132W        W42546   4.971   0.505  13.950 -0.0997 -0.1520  0.2565
29133W        W42547   4.972  10.756   4.177  0.3779 -0.2149  0.0953
29134W        W42548   7.261   6.640  15.211  0.0773 -0.0328 -0.0204
29135W        W42549   8.886   8.227  13.943 -0.2880  0.1482 -0.2017
29136W        W42550  17.275  11.847   2.457  0.1275 -0.1883 -0.1966
29137W        W42551  10.775   0.062  11.347 -0.2357  0.1849  0.1751
29138W        W42552  13.877   1.279  12.156 -0.0530 -0.3001  0.0205
29139W        W42553   9.204  10.158  10.703  0.1885  0.2360  0.0844
29140W        W42554  14.800  14.493  14.122 -0.0248 -0.0600  0.0170
29141W        W42555   5.075   1.381  15.399  0.1531 -0.0492  0.0190
29142W        W42556  11.394   0.479  16.143 -0.0716 -0.2772 -0.0568
29143W        W42557   8.623   3.926   4.577  0.1352  0.3371  0.1226
29144W        W42558  11.105   4.364  14.627  0.0366 -0.1435 -0.0075
29145W        W42559   6.453   5.019   1.762 -0.0706 -0.1638  0.0001
29146W        W42560  12.768  17.297  10.979 -0.0675 -0.0977  0.1857
29147W        W42561   5.355   1.865  15.100  0.2045 -0.3386 -0.1106
29148W        W42562   9.791   1.968  12.535  0.0539 -0.1106 -0.3042
29149W        W42563   1.730  12.588   2.799  0.0997 -0.2085  0.5549
29150W        W42564  11.199   8.148   5.787  0.2044  0.1882  0.2740
29151W        W42565  17.730   4.632   1.746  0.0002  0.2065  0.0677
29152W        W42566   0.275  12.167   0.726 -0.0629  0.0278  0.1956
29153W        W42567  12.397   2.279  16.085 -0.0175  0.3733 -0.1054
29154W        W42568   0.272  12.582   2.472 -0.3005  0.0263  0.3618
29155W        W42569   4.240   0.267  11.538  0.0589  0.1682  0.0702
29156W        W42570   7.722  17.528   0.195  0.0230  0.2544 -0.3548
29157W        W42571  15.111   4.852  14.184 -0.3667 -0.0720 -0.2952
29158W        W42572  14.249  17.008  15.403 -0.0959  0.0729 -0.0251
29159W        W42573   5.865   4.696  14.993 -0.3300  0.1616 -0.4389
29160W        W42574  10.022   2.987   0.195  0.0381 -0.0495  0.2181
29161W        W42575   5.259  16.011   5.037  0.0622  0.1840 -0.2660
29162W        W42576   4.727   4.080   4.769  0.2016 -0.2280 -0.5082
29163W        W42577   0.567  13.267   2.907 -0.1213 -0.1546 -0.2175
29164W        W42578   9.810  12.394   2.702  0.0534 -0.1889 -0.3320
29165W        W42579  10.717   0.752  12.330  0.1894  0.0287 -0.2123
29166W        W42580   4.025  11.126  12.170 -0.1154 -0.1901  0.1710
29167W        W42581  17.140   2.148   3.604  0.0482  0.0755  0.0591
29168W        W42582   6.647   2.279  12.805  0.0291 -0.0170 -0.2815
29169W        W42583   8.902   4.677   5.037  0.0782 -0.2045 -0.1977
29170W        W42584   2.334  17.780  12.041  0.0994 -0.3798  0.1210
29171W        W42585   8.684   0.533  10.638 -0.1786  0.0441  0.0864
29172W        W42586  16.337   2.996  14.934  0.1424 -0.3647 -0.2816
29173W        W42587  12.799   4.719   6.056 -0.1287 -0.1353  0.1121
29174W        W42588   3.909  14.429   3.392 -0.4493 -0.1636 -0.4303
29175W        W42589   2.708   0.004   4.289  0.0356 -0.2575  0.0583
29176W        W42590  12.563   3.346   6.214 -0.0234 -0.0007  0.1183
29177W        W42591   9.526  16.253  15.494  0.1613 -0.1777  0.1055
29178W        W42592  13.468  11.942   2.133 -0.1872  0.1105 -0.2656
29179W        W42593  12.518  17.127  16.253 -0.1090  0.1152 -0.2904
29180W        W42594  15.404   9.720  11.465 -0.0966  0.3138  0.0591
29181W        W42595   9.331   3.301  10.626  0.0289  0.1139 -0.3659
29182W        W42596   7.013  14.689  13.451 -0.1753 -0.1371 -0.1262
29183W        W42597  13.804   3.120   4.009 -0.2315  0.2183 -0.0674
29184W        W42598   2.735  13.260  15.229 -0.2307  0.1889  0.0001
29185W        W42599   0.101  11.435   3.518 -0.1291 -0.1187 -0.0694
29186W        W42600   9.300   8.513   1.789 -0.1862 -0.0313  0.0294
29187W        W42601   0.903   3.060   3.529 -0.3047  0.1368 -0.1554
29188W        W42602  10.634   8.476  15.347  0.0709  0.0547 -0.0888
29189W        W42603   2.097  14.301  13.166  0.0040 -0.1887  0.1199
29190W        W42604   3.673   7.983  15.298 -0.3754 -0.1153 -0.0159
29191W        W42605   6.378  12.810   4.489  0.2214 -0.0368 -0.1106
29192W        W42606   2.717   6.841  16.260 -0.2116  0.0406 -0.3516
29193W        W42607  17.819  11.255   2.138 -0.0693 -0.1430 -0.2178
29194W        W42608   9.881   5.299   4.400 -0.0709  0.0883 -0.0980
29195W        W42609   6.375   1.893  16.497  0.1681 -0.2413 -0.3520
29196W        W42610   8.338   6.228  12.564 -0.0935 -0.2294 -0.1394
29197W        W42611  16.472   8.924  15.272  0.0974 -0.0428  0.0519
29198W        W42612  12.130  12.222   1.601 -0.1802 -0.0729 -0.0418
29199W        W42613   9.281   9.069   0.834 -0.1461 -0.0369  0.0074
29200W        W42614   3.281   4.302   0.942  0.1306 -0.2881  0.0293
29201W        W42615  12.872   2.425  15.967  0.2061  0.0805  0.3111
29202W        W42616  11.911  13.877  10.844 -0.0973 -0.1062  0.1109
29203W        W42617   5.057   5.630   5.210  0.2555 -0.0535 -0.2675
29204W        W42618   2.922  12.630   3.611 -0.0030 -0.0922  0.1911
29205W        W42619  15.784  11.512  15.979 -0.1867 -0.0545 -0.1660
29206W        W42620  17.499   0.884  12.666 -0.3070 -0.1616 -0.0580
29207W        W42621  13.493  15.173   3.489 -0.0605 -0.0412  0.1389
29208W        W42622   2.976   0.720  14.108 -0.1227  0.1092 -0.0908
29209W        W42623  12.559  14.644   5.797 -0.1022 -0.2683  0.3533
29210W        W42624  17.105  13.845  11.765  0.2953 -0.0126 -0.0881
29211W        W42625  11.097   7.397   4.249  0.0509 -0.1477 -0.0694
29212W        W42626   8.542   7.709   2.466 -0.1116  0.2170  0.2173
29213W        W42627   3.510   9.696  12.862  0.1857  0.1260 -0.2001
29214W        W42628  14.562   8.641  14.604  0.0384 -0.0889 -0.2562
29215W        W42629   5.345   2.693   1.958 -0.0881  0.2415 -0.1828
29216W        W42630   1.495   8.916   1.734 -0.1452  0.0092 -0.2557
29217W        W42631  14.538  12.278  15.544  0.1384 -0.0314  0.0186
29218W        W42632   2.020  14.454   0.523  0.0131  0.1069 -0.0114
29219W        W42633   4.805  12.547   2.120  0.1603 -0.1560 -0.2162
29220W        W42634  14.422  16.604   2.386 -0.0566 -0.1367  0.2295
29221W        W42635   7.199  10.385  12.289 -0.1439 -0.1745  0.3381
29222W        W42636   4.351  11.150   2.931  0.0560  0.1665  0.2825
29223W        W42637   7.458  17.409  13.083 -0.2667  0.0194  0.0038
29224W        W42638   4.177   2.367   5.837 -0.0273 -0.2583  0.1637
29225W        W42639   0.656  11.111   4.438  0.1477 -0.2697 -0.1766
29226W        W42640  10.990   3.848   4.984  0.3547  0.1970 -0.1798
29227W        W42641   0.744  11.901   5.034  0.1345  0.0127 -0.1961
29228W        W42642  11.648   4.655   0.038 -0.1113 -0.4299  0.1185
29229W        W42643   1.565  15.225  12.314  0.1199 -0.0511  0.1867
29230W        W42644  17.094   1.973   4.917 -0.0702  0.1534  0.2553
29231W        W42645   5.712   0.781   2.614 -0.0396  0.0348  0.0035
29232W        W42646   9.533  12.544   0.265 -0.0561 -0.4328 -0.1228
29233W        W42647  10.125  16.092  12.442  0.1084  0.1366 -0.1503
29234W        W42648  17.743   4.569  14.751 -0.0269  0.0752 -0.1035
29235W        W42649   6.217   8.527   0.081  0.0469 -0.1358  0.0146
29236W        W42650   7.525  15.722   5.971 -0.2761  0.0435  0.5209
29237W        W42651   2.022   1.131  14.768  0.3156  0.0728  0.2312
29238W        W42652   8.281   1.720   3.458 -0.0811  0.1953  0.1269
29239W        W42653   6.749   7.685   5.763  0.0375 -0.2042  0.1294
29240W        W42654   2.834   9.081   1.825  0.1546  0.1312 -0.0219
29241W        W42655   3.221   6.042   3.281 -0.0950 -0.4622  0.0420
29242W        W42656  10.400   3.874   0.782  0.1450  0.1345 -0.2155
29243W        W42657   1.879  13.083  14.580  0.2335 -0.1406 -0.1970
29244W        W42658  17.339   5.172   0.080 -0.0071  0.1348 -0.1204
29245W        W42659  11.395  11.637  14.782 -0.0527 -0.1361 -0.0826
29246W        W42660  10.965  13.797   4.465 -0.0662  0.2507  0.3681
29247W        W42661   3.994  15.609   2.460  0.2311  0.3458 -0.2065
29248W        W42662   7.378  17.809   1.499  0.4062  0.0341  0.2771
29249W        W42663   0.455  13.368  13.041  0.1783 -0.0771  0.4213
29250W        W42664   9.468   2.073  13.588  0.0405  0.3957  0.0823
29251W        W42665   6.677   7.045   4.248  0.0572 -0.2304 -0.3096
29252W        W42666  11.212  10.382  12.034  0.0734 -0.0160  0.0055
29253W        W42667   0.540   5.943   4.764  0.0684  0.2292  0.1036
29254W        W42668   3.637   9.921   5.029 -0.1879  0.1310 -0.1179
29255W        W42669   7.278   4.178   0.685  0.0271 -0.0902 -0.0284
29256W        W42670   7.728  15.753  11.949 -0.1946  0.0722 -0.0768
29257W        W42671   5.124   6.015   4.585 -0.0392 -0.0323  0.1136
29258W        W42672  17.571   7.584  12.978  0.1447 -0.0928 -0.0488
29259W        W42673   7.440   5.979  15.783 -0.2708  0.0985  0.0797
29260W        W42674   6.260   9.356  16.761  0.0168  0.1246 -0.2938
29261W        W42675   4.631  16.504   2.621 -0.0825  0.3850 -0.2948
29262W        W42676  14.989  14.267  11.226  0.0165 -0.1067  0.2095
29263W        W42677   7.622   4.764  14.279  0.2581  0.1793  0.2925
29264W        W42678   0.038  14.028   1.238  0.0597 -0.3319  0.0444
29265W        W42679   9.941  17.612  15.329  0.0725  0.1210 -0.0641
29266W        W42680   3.513  11.102   0.369 -0.0861  0.0063 -0.0968
29267W        W42681   0.105  12.174   0.230 -0.0576  0.1244  0.0335
29268W        W42682   8.453   3.708  13.218  0.1197  0.0136  0.0100
29269W        W42683  11.488   8.465  13.572 -0.1886  0.0154 -0.1137
29270W        W42684   7.062  15.830   6.020  0.2410  0.0191 -0.3303
29271W        W42685   5.540   3.350  15.302 -0.1011 -0.0503  0.0996
29272W        W42686  14.764   8.937   1.610 -0.0605 -0.0521  0.0426
29273W        W42687  17.994   6.064   1.851  0.1015  0.0634 -0.0773
29274W        W42688  10.675   1.136   1.424  0.2167  0.0379 -0.2167
29275W        W42689   0.712  15.728   0.813 -0.0711  0.2800  0.0928
29276W        W42690   6.166   4.565  16.667 -0.1707  0.0854 -0.1854
29277W        W42691   3.786  13.590  13.589 -0.1157  0.0767 -0.1622
29278W        W42692   1.623   5.920  12.962 -0.0684 -0.1931  0.0056
29279W        W42693   2.282   1.151  12.609 -0.1538  0.1016  0.0381
29280W        W42694  13.043   4.428   4.014  0.0695  0.1567 -0.1071
29281W        W42695  13.345  17.440   4.772 -0.0391  0.1138  0.3518
29282W        W42696  17.555  13.791   0.050  0.0325  0.1514  0.1965
29283W        W42697  14.837   2.168   1.277  0.3213  0.1125  0.3956
29284W        W42698   7.924   3.369  10.746  0.3070 -0.1860  0.1188
29285W        W42699  16.939   5.004  15.979  0.1418 -0.1646 -0.0302
29286W        W42700   4.690  17.107  10.506 -0.0854 -0.2069 -0.2134
29287W        W42701   0.229   9.453   5.197 -0.2314  0.1099  0.1877
29288W        W42702   5.325   2.102  13.237  0.1936 -0.2521  0.1705
29289W        W42703  13.156   8.687   3.055  0.0357 -0.1285  0.1654
29290W        W42704   5.060   9.738   2.128 -0.1486  0.1632 -0.2256
29291W        W42705  15.814  13.048   1.123  0.1328 -0.1041 -0.2283
29292W        W42706  10.193  17.128  13.600  0.0673 -0.1629  0.1776
29293W        W42707   4.054  12.675   2.001 -0.0479  0.1517  0.2154
29294W        W42708  10.458  12.506  13.224 -0.0806 -0.0930  0.0723
29295W        W42709  17.211  12.674  12.340 -0.0751  0.3207 -0.2574
29296W        W42710   5.666  14.224  10.560  0.2339  0.0813  0.3806
29297W        W42711   4.346   8.342  10.772  0.0723  0.2297 -0.1250
29298W        W42712   4.247  17.966   0.557  0.2438 -0.1263 -0.4095
29299W        W42713   5.666  16.170   4.425  0.0131  0.1946 -0.3079
29300W        W42714  13.276  13.245  14.571 -0.1041  0.2612  0.0968
29301W        W42715   2.219   3.585   3.728  0.2781  0.0540  0.1013
29302W        W42716   1.423   7.654  14.008 -0.0719 -0.0922 -0.0850
29303W        W42717   8.084  11.169   0.216  0.3194  0.0422 -0.2433
29304W        W42718   3.501  17.397   2.897 -0.0808 -0.1259  0.0610
29305W        W42719  14.276   4.189   2.794 -0.2597 -0.1280  0.0455
29306W        W42720   2.257  10.785  11.022  0.0257 -0.0800 -0.3741
29307W        W42721  10.395  11.064   1.585 -0.1047 -0.1051  0.1123
29308W        W42722   2.413  14.465  15.598 -0.0583 -0.2729 -0.3639
29309W        W42723  13.401  15.503  15.865  0.1797 -0.1860 -0.2131
29310W        W42724  13.082  10.303  12.788  0.0112 -0.0216 -0.0500
29311W        W42725  12.230   0.234   4.515 -0.1067 -0.2165 -0.0999
29312W        W42726  11.748  11.915  15.073 -0.2821  0.1695 -0.1771
29313W        W42727  17.349  13.551   5.153 -0.0449  0.0915  0.1853
29314W        W42728  10.726   0.930   0.917 -0.1439  0.0396 -0.1772
29315W        W42729   7.111  10.690  15.400  0.0002  0.1456 -0.1502
29316W        W42730   5.290  17.134  15.453 -0.0097 -0.2540 -0.3399
29317W        W42731  14.116   5.813  13.575  0.3417  0.1269 -0.3624
29318W        W42732   6.443   3.159  15.261 -0.1570  0.2135 -0.0605
29319W        W42733  11.381  17.267  16.777 -0.0268 -0.3441  0.0221
29320W        W42734   6.157  14.350   1.486  0.4499 -0.0888 -0.1120
29321W        W42735   7.422  17.677   2.564 -0.0090  0.2841  0.2084
29322W        W42736   4.926  12.451  15.303 -0.2847  0.1448 -0.2271
29323W        W42737   4.453  17.831  11.688  0.3125 -0.0950 -0.1668
29324W        W42738   5.587   6.339   5.233 -0.1098 -0.2012 -0.0082
29325W        W42739   1.208   9.110  11.082  0.2209 -0.1808  0.1065
29326W        W42740   6.593  14.173   1.589  0.0981  0.2533  0.0897
29327W        W42741   4.749   4.389   3.790 -0.2955 -0.2865 -0.1994
29328W        W42742   3.450   0.574   1.678 -0.2120 -0.1822  0.0188
29329W        W42743  12.987   0.729  16.228  0.4504  0.1567 -0.1350
29330W        W42744   8.228   3.806   9.844 -0.2754  0.0664  0.1752
29331W        W42745   8.125   3.717   4.418  0.1255 -0.2000  0.0241
29332W        W42746  14.704   0.390   0.173  0.2169 -0.1742 -0.1187
29333W        W42747   4.526  16.871  10.938  0.1008 -0.0984 -0.0221
29334W        W42748   6.409   4.517  14.265  0.1722 -0.1449 -0.1263
29335W        W42749   8.114  16.424  11.716  0.4448 -0.2144  0.1537
29336W        W42750   3.215   7.971  13.139  0.0241 -0.0739 -0.2797
29337W        W42751   4.416   6.961   1.712  0.0064 -0.1901 -0.2267
29338W        W42752   3.506   5.084  12.776 -0.1244 -0.0045  0.1501
29339W        W42753   8.611   8.070  13.311 -0.1679 -0.0296  0.1970
29340W        W42754   6.357   7.635   5.265  0.1373  0.0035 -0.0224
29341W        W42755   2.745  10.821  11.031 -0.4295 -0.0667 -0.2200
29342W        W42756   7.992  15.211  11.180 -0.0572 -0.1281 -0.1995
29343W        W42757   4.275   3.609  12.606 -0.0268  0.1405 -0.0143
29344W        W42758   9.082   6.669  10.777  0.0555 -0.0975  0.5828
29345W        W42759   7.013   1.298   0.622 -0.0280 -0.2958 -0.2016
29346W        W42760  15.882  13.785   3.517 -0.0122 -0.1490  0.1092
29347W        W42761  10.570   9.196   4.051 -0.1260 -0.2978  0.1494
29348W        W42762  16.454   4.379  15.490 -0.1006  0.0627 -0.1507
29349W        W42763  14.491   6.424   5.664  0.1664 -0.2994  0.1786
29350W        W42764   3.675   0.574   4.285  0.4007  0.0611  0.1275
29351W        W42765   3.276   7.168   0.077 -0.1169  0.0414  0.2694
29352W        W42766  14.359  17.344   3.876 -0.2381  0.1296  0.0844
29353W        W42767   7.395  17.677   6.385  0.3332  0.1566 -0.2142
29354W        W42768   2.330  10.437  12.965 -0.0350  0.0806 -0.1860
29355W        W42769   8.353   2.462  12.260 -0.1917  0.0378  0.0604
29356W        W42770  14.236   8.582  15.750 -0.2325  0.3429 -0.1793
29357W        W42771  14.816   4.588  13.915 -0.0884 -0.2324  0.1927
29358W        W42772   4.325   6.936  15.695 -0.0011  0.0807 -0.0112
29359W        W42773  10.792   5.661   1.169 -0.2330 -0.2133  0.0440
29360W        W42774  11.432   4.135   6.167  0.0093 -0.0338  0.1311
29361W        W42775   4.091   2.196  12.294  0.0534 -0.0004 -0.0296
29362W        W42776   9.519   8.713  11.644  0.0963 -0.1792  0.0741
29363W        W42777   3.375  15.405  14.761  0.1281 -0.2579 -0.0449
29364W        W42778   2.609  13.324  16.083 -0.0332 -0.3629 -0.1897
29365W        W42779  14.523   9.731  14.382 -0.0156 -0.2381  0.2449
29366W        W42780   6.549  11.260  16.304  0.0489 -0.0551  0.1103
29367W        W42781  17.428  17.399  14.983  0.0346 -0.0172 -0.1411
29368W        W42782   6.526  12.308   2.100 -0.2206  0.1851 -0.1884
29369W        W42783   4.347  15.739  13.516 -0.0577 -0.1676  0.4276
29370W        W42784   2.665  15.256  12.739  0.2998  0.1255  0.0092
29371W        W42785   3.096   0.605  10.858  0.3768 -0.2145  0.2283
29372W        W42786  16.161   7.710  11.800 -0.0916  0.1008  0.0974
29373W        W42787  16.727  15.794   3.283 -0.0736  0.0694 -0.4166
29374W        W42788   9.238   4.397   2.274 -0.3400  0.1811 -0.2979
29375W        W42789  10.285  15.659   6.642 -0.0751 -0.2670  0.0000
29376W        W42790  12.604   4.770  14.369 -0.0780 -0.2330  0.0377
29377W        W42791   7.593   3.579   2.009 -0.2809  0.1304 -0.0639
29378W        W42792   8.184  12.642   4.850  0.1158 -0.1780  0.2086
29379W        W42793   6.143  13.152  12.873 -0.1165 -0.0406 -0.1842
29380W        W42794  11.272   9.129   2.340  0.1631  0.1486  0.1854
29381W        W42795   0.052  13.528   2.612 -0.2248 -0.1449  0.1322
29382W        W42796  17.815   1.033   2.660  0.0134  0.4065 -0.3528
29383W        W42797  13.078  11.417  10.965 -0.1621  0.0844  0.2758
29384W        W42798   4.760  10.424  14.170  0.1227 -0.0401 -0.2125
29385W        W42799   6.529   7.039  10.902  0.1838  0.0454  0.3880
29386W        W42800  10.211   0.299  14.355  0.2196  0.0414  0.2446
29387W        W42801  12.683  11.994  13.249 -0.0987  0.0251 -0.2690
29388W        W42802  14.897   3.037   2.575 -0.0830  0.4345  0.1045
29389W        W42803  14.061   6.974   4.320 -0.2962  0.3585  0.3653
29390W        W42804   9.507   6.479   3.343  0.1426 -0.0318  0.1392
29391W        W42805   5.029  12.164  14.364 -0.1267  0.3279  0.0949
29392W        W42806   1.493   2.048  11.139 -0.1489  0.0591 -0.1312
29393W        W42807  14.405  10.349   5.240  0.0045 -0.1319 -0.0965
29394W        W42808   2.986   6.887  11.058  0.0371 -0.0680 -0.2207
29395W        W42809  15.048  12.896   4.633  0.0629 -0.1145 -0.0463
29396W        W42810   5.660   2.405   3.129 -0.2446 -0.0800 -0.2600
29397W        W42811   0.098  13.538  12.309 -0.3371  0.0497  0.0916
29398W        W42812   2.310  10.113   2.945 -0.1315  0.1242  0.1697
29399W        W42813   5.798   4.690   3.777  0.0436  0.0001  0.1101
29400W        W42814   7.943   7.033   4.263  0.3241 -0.0141 -0.1039
29401W        W42815  14.341   9.274   5.740 -0.0853  0.1008  0.0671
29402W        W42816   3.750  13.883   2.950 -0.0429  0.0810  0.0877
29403W        W42817  11.049  14.031  14.790  0.2423  0.1315  0.0618
29404W        W42818  13.211  12.152  14.192 -0.0421  0.1811 -0.0328
29405W        W42819  10.091   7.537   0.083  0.0459 -0.2076  0.0133
29406W        W42820  17.199   3.557  10.623 -0.0754  0.1052 -0.3101
29407W        W42821   5.093   0.954  14.573  0.0061 -0.5097 -0.3472
29408W        W42822  15.525  15.297  13.648  0.1394  0.1092 -0.2844
29409W        W42823   3.622  10.532  13.481 -0.0288 -0.0591  0.0090
29410W        W42824   6.757  11.424  11.820 -0.0661  0.0994 -0.0524
29411W        W42825   7.859  13.367   6.649 -0.0647 -0.0846 -0.0240
29412W        W42826   1.573   9.503  13.571  0.0226 -0.1641 -0.0732
29413W        W42827  14.255   5.257  15.263  0.1489  0.1797  0.2473
29414W        W42828  11.613   6.509   6.361  0.0978  0.1231 -0.0060
29415W        W42829  14.989   6.427  13.224 -0.0151 -0.2127  0.1874
29416W        W42830  13.057   8.331   1.919  0.0139 -0.1193  0.2331
29417W        W42831   5.201   2.510  10.840  0.0952  0.0019  0.0737
29418W        W42832  10.694   9.877  11.435  0.0658  0.3219  0.0272
29419W        W42833  16.779  15.478  10.993  0.1361  0.0229  0.1685
29420W        W42834   3.165   6.440   2.068 -0.1251  0.0399 -0.1904
29421W        W42835   4.468   3.562   5.316 -0.2400  0.0622 -0.0948
29422W        W42836  13.989   1.703   5.891  0.2446  0.0809  0.0670
29423W        W42837   6.114   1.163   0.931  0.0322  0.0135  0.1200
29424W        W42838   1.672  16.773   4.665  0.0756  0.1367  0.1008
29425W        W42839  13.990   1.115  15.528 -0.2384  0.0929  0.0173
29426W        W42840  17.605   9.087  13.229 -0.0566 -0.3865 -0.0798
29427W        W42841   5.726   6.683  12.795  0.3025 -0.0278 -0.0773
29428W        W42842  15.938  10.985  14.105 -0.2641  0.0354  0.0547
29429W        W42843   1.450   5.740   6.366  0.0831  0.2840  0.4110
29430W        W42844   9.019   4.301  13.794 -0.2640 -0.5064  0.1874
29431W        W42845  10.034   1.694  10.864  0.2574 -0.0464 -0.4432
29432W        W42846   1.539   3.974   3.546 -0.2298 -0.0845  0.1434
29433W        W42847  12.350   9.274   0.971  0.2159  0.2529  0.3247
29434W        W42848  15.128  12.819   3.667 -0.0554 -0.0503  0.2468
29435W        W42849  14.224  15.484   1.321  0.0386  0.0045 -0.0919
29436W        W42850   3.061  11.605  15.475  0.0193  0.0603 -0.0663
29437W        W42851  11.823  10.960   6.661  0.3022 -0.0491  0.0148
29438W        W42852   9.983  16.484  15.335 -0.1288  0.0824 -0.0297
29439W        W42853   9.470  10.741   3.755 -0.0487  0.0221  0.1283
29440W        W42854  15.914   1.540  13.138  0.4311  0.0892  0.0298
29441W        W42855  14.186   3.087   4.306 -0.0934  0.4187  0.1549
29442W        W42856  16.222   5.708   5.096 -0.0562 -0.0393  0.1196
29443W        W42857  14.267  14.361  13.973  0.2070  0.2021 -0.1435
29444W        W42858  15.638   4.783   3.788 -0.0135 -0.0465 -0.2009
29445W        W42859  16.484  16.533   1.414 -0.0154  0.1492 -0.0203
29446W        W42860   5.146  15.114   1.871  0.0834 -0.1015 -0.0131
29447W        W42861   8.988   0.511   0.491 -0.0648  0.0137 -0.0390
29448W        W42862  16.754  17.584  16.657  0.1709  0.0663  0.0664
29449W        W42863   6.386  13.666  11.435 -0.0703  0.2758 -0.0860
29450W        W42864  14.638   4.537  15.912 -0.2012 -0.1201 -0.0684
29451W        W42865   4.078   1.580  13.772 -0.2237  0.0511 -0.0950
29452W        W42866  14.888  15.614  13.608  0.3377  0.1089  0.2065
29453W        W42867  11.539  17.685   2.352  0.0869 -0.1267 -0.0416
29454W        W42868   8.976   5.993   1.538 -0.2415  0.2253  0.2290
29455W        W42869  10.070  11.393   4.383 -0.0009  0.1075  0.0469
29456W        W42870  12.845   6.649   4.946  0.1450 -0.1307 -0.3311
29457W        W42871   1.976   7.337   3.910  0.2922  0.1443 -0.2340
29458W        W42872  10.803  12.806  14.314  0.1846 -0.2631  0.1660
29459W        W42873  17.932  10.486   3.592 -0.0227 -0.1788  0.1777
29460W        W42874   9.751  12.342   2.189 -0.0136 -0.1543  0.1498
29461W        W42875  14.909  11.085   2.864 -0.1242 -0.0552 -0.0448
29462W        W42876   6.133  15.600   4.111  0.0302 -0.1900 -0.0620
29463W        W42877  13.656   0.115   1.236 -0.0512  0.2864  0.0305
29464W        W42878   8.591   6.569  15.313 -0.4167 -0.2481  0.1181
29465W        W42879   8.178   6.004  11.496 -0.0810 -0.2175 -0.2490
29466W        W42880   6.159  12.286  11.523  0.1456  0.2129 -0.0055
29467W        W42881   9.495   3.363  15.632 -0.0003 -0.2902 -0.0106
29468W        W42882  17.738   8.476  10.510  0.1101  0.0243  0.1995
29469W        W42883   8.316  17.405   0.751  0.3467  0.1732  0.3264
29470W        W42884   7.106   0.303  13.008 -0.0565  0.0018  0.0553
29471W        W42885   8.830  15.626  15.500  0.1676 -0.3086  0.2131
29472W        W42886  14.870  11.914   2.272  0.0696 -0.1053  0.0844
29473W        W42887  16.631  13.465  14.753  0.0277 -0.2333 -0.0701
29474W        W42888  17.473   4.774   5.870 -0.3571 -0.1292  0.1486
29475W        W42889   9.346   0.304   1.018  0.0522  0.1547  0.1060
29476W        W42890   3.715  10.340   0.071 -0.1858 -0.3157 -0.1191
29477W        W42891  13.854   2.910  13.714 -0.2484  0.0171 -0.3581
29478W        W42892  17.235  12.748   1.436  0.0713 -0.0941 -0.0860
29479W        W42893  15.123  10.337  16.260 -0.0980  0.0792  0.3890
29480W        W42894   8.924   5.007   1.751 -0.0838 -0.1510 -0.1041
29481W        W42895   7.139  15.115  14.221  0.0046  0.0605 -0.0821
29482W        W42896  10.984  14.517  14.573 -0.1656  0.1543 -0.1315
29483W        W42897  11.353   3.879  13.286 -0.1859 -0.0855 -0.2477
29484W        W42898  17.284   2.309  14.410  0.1239 -0.0570 -0.2085
29485W        W42899  14.308  13.043  15.791 -0.2583 -0.2904 -0.4191
29486W        W42900  12.198   8.053  11.905 -0.0271  0.0238  0.1519
29487W        W42901  14.122   6.116   3.752  0.1429  0.0360 -0.1796
29488W        W42902   1.613   1.561  11.868 -0.0277  0.1117 -0.1839
29489W        W42903   6.747   4.048  11.245  0.2223  0.1049  0.0498
29490W        W42904   0.874   7.785   4.569 -0.3263  0.1286  0.3254
29491W        W42905   5.648  17.890  10.757  0.0000  0.1590  0.0164
29492W        W42906   1.655   3.187   2.796  0.1615  0.0500  0.0042
29493W        W42907  16.203   8.195  11.893 -0.1526 -0.1679 -0.1498
29494W        W42908  13.318   1.917   5.158 -0.0012 -0.2543  0.0325
29495W        W42909   4.718   2.106   1.171 -0.0431 -0.3038  0.0666
29496W        W42910  15.872   9.687   1.151  0.0655 -0.2427  0.1101
29497W        W42911   0.611   0.196  11.349  0.2212  0.1648  0.1673
29498W        W42912   5.674   7.519  14.486  0.1112 -0.1429 -0.0323
29499W        W42913   5.479  14.350  16.146  0.1286  0.2232 -0.0503
29500W        W42914  13.362   1.206  14.674  0.1065 -0.0539  0.1835
29501W        W42915   1.752  12.095  13.941  0.2040  0.0495  0.1926
29502W        W42916   0.583  12.564   1.479 -0.2856  0.1417  0.1843
29503W        W42917  11.602   5.955   5.507 -0.1608 -0.0167 -0.2414
29504W        W42918   5.260  10.582   1.344  0.0397 -0.2709 -0.2562
29505W        W42919   5.932   1.817  15.344 -0.2384 -0.0851 -0.1894
29506W        W42920   0.034  10.136  16.293 -0.1786 -0.1013 -0.0922
29507W        W42921  15.127   2.949  15.398  0.2312  0.1694  0.1542
29508W        W42922   9.748  15.778   1.531 -0.1725 -0.0402  0.1032
29509W        W42923  10.874   6.473   1.411  0.0692  0.0368 -0.1985
29510W        W42924  15.364  11.814  14.691 -0.1541  0.0243  0.1787
29511W        W42925   8.808   4.903  10.762 -0.0848  0.0539  0.0511
29512W        W42926  17.694  15.683  11.559  0.3237 -0.1167  0.1339
29513W        W42927  17.034   9.515   5.860 -0.1139 -0.1129  0.2055
29514W        W42928  16.320   7.622  11.294 -0.0175 -0.0605  0.3003
29515W        W42929  10.135   1.944  12.132 -0.1283 -0.1480  0.0852
29516W        W42930  11.035   9.273   3.658 -0.2854  0.1579 -0.1827
29517W        W42931   1.752  10.282   4.061  0.0473 -0.1919 -0.3308
29518W        W42932   4.602  16.534  12.886 -0.2650 -0.0635  0.3072
29519W        W42933  13.388  13.153  13.948 -0.3356 -0.1795 -0.1291
29520W        W42934  12.893   0.164   5.889  0.3641  0.0246 -0.1148
29521W        W42935  14.903  17.481  12.072 -0.0283  0.0757 -0.1297
29522W        W42936   1.386  12.377  14.947  0.1202 -0.2537  0.1338
29523W        W42937   9.027   1.492  15.725  0.0483 -0.0351 -0.2794
29524W        W42938  14.472   6.510   3.351 -0.0022  0.0120  0.1575
29525W        W42939   4.159   2.411   4.243 -0.0314  0.3980 -0.1950
29526W        W42940  11.755  17.839  13.387 -0.2267 -0.1255 -0.1074
29527W        W42941   3.570  16.148  12.746 -0.1762  0.1233  0.0173
29528W        W42942   0.687  17.193  14.600 -0.0824  0.0239 -0.1068
29529W        W42943  13.305  15.601   3.638 -0.0811 -0.1849 -0.0320
29530W        W42944   3.164   6.795   5.782 -0.2133 -0.2295 -0.2117
29531W        W42945   9.534   9.834   6.973  0.1960  0.0338  0.2925
29532W        W42946   8.935  17.705  16.396 -0.1316  0.0769 -0.0667
29533W        W42947  16.190  14.265   6.790  0.1337  0.0365  0.0237
29534W        W42948  17.035   7.058  11.073 -0.1225  0.0627  0.1730
29535W        W42949   9.112  15.130  12.141  0.0298 -0.1475 -0.1799
29536W        W42950  11.097   8.902  11.840  0.0964 -0.0925  0.1129
29537W        W42951  10.459   6.193  11.956 -0.1445 -0.3832 -0.0856
29538W        W42952  13.599  13.152  16.475  0.1243  0.1281 -0.2389
29539W        W42953  10.034   6.434   3.442 -0.2037 -0.0690  0.1774
29540W        W42954  11.172   1.024   4.488  0.2011  0.0382 -0.1246
29541W        W42955  13.498   0.906  13.365 -0.0593 -0.0498 -0.0543
29542W        W42956  12.509  11.617  14.897  0.0542 -0.2250 -0.1825
29543W        W42957   8.097   3.035   2.830  0.3952 -0.1533  0.0382
29544W        W42958  16.190   4.393   3.102 -0.1348  0.2558  0.1197
29545W        W42959   6.184  17.141   0.251 -0.3913 -0.2160  0.0233
29546W        W42960  13.517   9.502  13.801 -0.1566  0.1281 -0.0012
29547W        W42961   8.382   2.980   3.663 -0.2025 -0.3127  0.0162
29548W        W42962   5.454   1.948  16.605 -0.2424 -0.3147 -0.2287
29549W        W42963   9.344   1.129  13.857 -0.1900 -0.1324  0.2599
29550W        W42964   2.999   8.420   2.309  0.0758 -0.1616 -0.1364
29551W        W42965  10.066   9.909   5.875  0.2152  0.0246 -0.0814
29552W        W42966  15.500   6.370  10.537 -0.1924 -0.2940  0.0285
29553W        W42967  15.098   9.748  13.102 -0.3103  0.0203 -0.0478
29554W        W42968  17.884   7.043   2.894 -0.1390 -0.2807 -0.2840
29555W        W42969   9.174   8.374  14.343 -0.1528  0.0611  0.0982
29556W        W42970  10.601  12.399  15.696 -0.0584  0.3842  0.1310
29557W        W42971   1.911  10.098   1.115  0.0350 -0.0425  0.0484
29558W        W42972   8.354  15.258   1.345 -0.1073 -0.3122 -0.0522
29559W        W42973   9.398   3.916  14.158  0.1146 -0.0140  0.0508
29560W        W42974   5.287   0.057  14.659 -0.0736  0.2168  0.0769
29561W        W42975   0.986  17.098   4.469 -0.1504  0.0325 -0.2108
29562W        W42976  17.271   9.482   1.200 -0.0097  0.0309 -0.0614
29563W        W42977   6.893  12.807  10.598 -0.1906  0.1186  0.0859
29564W        W42978  17.170   4.763   1.907  0.0620  0.0269 -0.0873
29565W        W42979   0.972  17.943  16.110  0.4010  0.1738  0.1933
29566W        W42980  13.846  11.349   4.740 -0.0353  0.0705 -0.1369
29567W        W42981  12.804  13.283  13.769  0.2993  0.0099 -0.5530
29568W        W42982   9.495   5.957  15.061 -0.1325 -0.0430 -0.0468
29569W        W42983  10.965  10.257  12.928 -0.1592 -0.0094  0.1742
29570W        W42984  10.747   6.070  12.677  0.2423  0.0372  0.0012
29571W        W42985   9.466  16.043   0.448 -0.0995  0.0267 -0.1477
29572W        W42986  13.318  14.957   5.438  0.0514 -0.0677 -0.0776
29573W        W42987   6.352   2.916  14.856  0.2046  0.1975  0.1814
29574W        W42988   0.197   0.246  13.129  0.1598  0.0810  0.3447
29575W        W42989   3.339   6.485   1.192 -0.1833 -0.2241 -0.2918
29576W        W42990   0.529   3.422  12.258 -0.2915  0.0465 -0.1217
29577W        W42991  16.227   3.255   3.879  0.0037  0.0598 -0.1157
29578W        W42992  16.227  10.152  12.385  0.1317 -0.0038 -0.0856
29579W        W42993   6.542  14.081  12.353  0.0367  0.0567 -0.4278
29580W        W42994   9.975  12.101   3.830 -0.0572  0.0383  0.1376
29581W        W42995  15.721  10.608   4.719  0.1845  0.0384 -0.0179
29582W        W42996  14.474  11.185  11.368  0.1201  0.0960 -0.2532
29583W        W42997  10.512   5.651   2.030  0.0545  0.0081  0.0544
29584W        W42998  12.967   0.051   0.106 -0.1048 -0.2062 -0.0965
29585W        W42999  17.644  10.732  13.575 -0.0388  0.1871  0.1466
29586W        W43000  14.042  10.953   1.013  0.0643 -0.1600  0.0561
29587W        W43001   0.272  10.000   4.535  0.0824  0.4809  0.1629
29588W        W43002  10.471   8.974   3.531 -0.0509 -0.1454 -0.2962
29589W        W43003   9.094  15.050  13.753  0.2681  0.0399 -0.2127
29590W        W43004  13.272   5.609  12.006  0.0860  0.2645 -0.0717
29591W        W43005  12.550   3.597   1.189 -0.0609  0.0565  0.2590
29592W        W43006  14.761  17.140  15.348 -0.0549  0.0683  0.2849
29593W        W43007  11.479  14.369  14.653 -0.1566 -0.0167  0.2835
29594W        W43008  12.453  12.392   4.907 -0.1490  0.2154  0.2147
29595W        W43009   8.577   5.969  16.093 -0.1748  0.1230 -0.0378
29596W        W43010  10.925   3.978   4.081 -0.2292  0.2893 -0.0748
29597W        W43011  12.424   9.653  11.735  0.3262 -0.0661 -0.3227
29598W        W43012  16.448  16.063   4.396  0.1925 -0.1862 -0.0209
29599W        W43013  10.436  12.989   6.329  0.3277 -0.2309 -0.2495
29600W        W43014  17.526   4.096  16.258  0.0511 -0.1329 -0.2451
29601W        W43015  17.578   9.543  15.861 -0.0618  0.0768  0.1918
29602W        W43016  13.105  12.269   1.329 -0.0991  0.1298 -0.0064
29603W        W43017   9.936   3.294  11.531  0.2186  0.0728  0.2434
29604W        W43018  17.730  16.795   2.412  0.1214 -0.3717  0.2258
29605W        W43019   1.695  10.988  12.640  0.1003 -0.1693 -0.1201
29606W        W43020  12.184  10.240   2.908  0.0396  0.1718 -0.0158
29607W        W43021   5.656   1.419  15.389 -0.1421  0.2472 -0.0800
29608W        W43022  14.145  12.006  13.905 -0.0498  0.0507 -0.1849
29609W        W43023  10.270   5.540   5.693  0.0802  0.3806  0.4963
29610W        W43024  11.149  13.192  13.210  0.3032  0.0926 -0.1047
29611W        W43025   7.819   8.240  12.054  0.1303 -0.1522 -0.0501
29612W        W43026   6.159  17.158   3.537 -0.1113  0.1560  0.0988
29613W        W43027  10.370   3.501   4.905  0.1861  0.1480  0.3271
29614W        W43028   2.589  16.380   1.733  0.2516  0.0357 -0.1760
29615W        W43029   8.354   1.685  12.870 -0.3247  0.2912  0.1470
29616W        W43030   8.368  17.389  12.029  0.0058  0.0124 -0.2231
29617W        W43031  16.195   5.679  14.417 -0.2251  0.1015  0.0901
29618W        W43032   9.938   9.051   2.251  0.0844  0.2068 -0.0034
29619W        W43033  13.618   2.537  11.885 -0.1030  0.0207  0.1569
29620W        W43034   0.848   4.132   1.797 -0.0457  0.0324  0.0435
29621W        W43035  12.946  17.465   5.317 -0.0884  0.1508 -0.2045
29622W        W43036   4.805   3.170   4.226  0.1269 -0.2947 -0.1481
29623W        W43037  17.434  15.727  12.799  0.0371  0.1150 -0.0575
29624W        W43038   6.259   1.414  13.538  0.1615 -0.4337 -0.0885
29625W        W43039  16.748   3.882   2.327  0.0346 -0.1006  0.1918
29626W        W43040  17.591   3.592  13.950 -0.0981 -0.4302  0.0469
29627W        W43041  10.080  11.591  15.924  0.1384 -0.2287 -0.0307
29628W        W43042   9.221   8.991   1.781 -0.0518 -0.2041  0.0813
29629W        W43043  12.225  13.237   0.897  0.2489 -0.0179  0.1385
29630W        W43044   1.140   1.540   4.244  0.2128 -0.1045 -0.1819
29631W        W43045   0.042   7.644   4.661 -0.0668  0.3742  0.0650
29632W        W43046  12.570   3.192   0.846 -0.3336  0.0390  0.3362
29633W        W43047   7.402   6.426  14.377  0.1255 -0.0196  0.0546
29634W        W43048   6.775  10.103   3.396  0.0886  0.0612 -0.0644
29635W        W43049   8.704   7.710  13.882 -0.2860 -0.2684 -0.1965
29636W        W43050   4.478   8.308   6.275  0.1255  0.2316 -0.0897
29637W        W43051   3.976  14.695   2.906  0.1312 -0.2520  0.3692
29638W        W43052   8.454  14.679  15.459 -0.1753 -0.0030  0.1299
29639W        W43053   0.250  15.648   0.879 -0.0043  0.1999  0.0586
29640W        W43054  13.081  13.716  12.038  0.1495  0.1879  0.3466
29641W        W43055   7.208   3.970  13.221  0.0047  0.2100 -0.1051
29642W        W43056   4.312  14.534   4.948  0.2393  0.1554 -0.2664
29643W        W43057  13.766  10.237  14.245  0.0394 -0.0099  0.0213
29644W        W43058  14.902   1.812   4.711 -0.0993  0.1992  0.3345
29645W        W43059  10.790  16.730   1.632  0.0072  0.3007 -0.1096
29646W        W43060   6.343   8.246  15.254  0.1700 -0.4395  0.0205
29647W        W43061   3.438   9.259  10.979 -0.2139  0.1869  0.0758
29648W        W43062   7.617   5.920   0.432  0.1751 -0.0260  0.2448
29649W        W43063   4.972  11.210  12.341 -0.1983 -0.0251 -0.2717
29650W        W43064   7.773   4.820   5.019 -0.3641  0.1887  0.2225
29651W        W43065  15.405   0.166  15.625  0.2267  0.1985 -0.1573
29652W        W43066   6.840  12.225   2.473  0.3769 -0.2986 -0.0739
29653W        W43067   0.173  12.261   5.902  0.3767 -0.3101  0.1519
29654W        W43068   6.427  10.597  12.923  0.0118  0.1463 -0.0700
29655W        W43069  14.944   8.019  10.648  0.0429  0.0980 -0.0118
29656W        W43070  13.929   3.402  10.493  0.2521  0.0180  0.1512
29657W        W43071   8.137   6.193  14.784  0.1681 -0.1027 -0.0512
29658W        W43072   2.441  13.163   5.135  0.2134  0.0608  0.1206
29659W        W43073   8.256  17.531   5.031  0.0493 -0.0600  0.0937
29660W        W43074  11.037  15.034  13.330  0.2850  0.0974  0.0844
29661W        W43075   9.999   9.380  14.522 -0.0233 -0.3080  0.0726
29662W        W43076   3.943   4.819   1.259  0.0671  0.1137  0.0684
29663W        W43077  12.557   7.166   5.078 -0.0068  0.0881 -0.0852
29664W        W43078  17.769   6.119  13.586  0.1448  0.2493  0.0650
29665W        W43079  10.298  16.570  16.138 -0.0823  0.2993 -0.0699
29666W        W43080  17.703   0.653   1.319  0.0215 -0.0963  0.0616
29667W        W43081   0.601  10.237  14.068 -0.1317 -0.0956  0.1348
29668W        W43082  15.872  10.331  15.807 -0.2672  0.0827  0.0632
29669W        W43083  15.762   4.706  14.973 -0.0418 -0.2787 -0.1504
29670W        W43084   7.502   6.552  11.602  0.0884 -0.0654 -0.0370
29671W        W43085   6.055   6.258   1.473 -0.0329  0.0294 -0.1880
29672W        W43086  12.859   8.302   2.842  0.1911  0.0433  0.1344
29673W        W43087  11.591  13.085   4.740 -0.2025 -0.1706 -0.1648
29674W        W43088   9.433   3.646   5.180 -0.2420  0.0291 -0.0265
29675W        W43089  16.035  16.054  12.678  0.1486 -0.2041 -0.1144
29676W        W43090   6.761  13.778  14.465  0.0411  0.2857 -0.1750
29677W        W43091   0.382  14.784  10.995 -0.0969  0.1355 -0.0927
29678W        W43092   8.572  15.273   4.197 -0.0665  0.1280  0.0289
29679W        W43093   4.464  15.596   5.705 -0.2938  0.0528 -0.0848
29680W        W43094   0.057  11.582  10.674  0.3169 -0.0303 -0.1686
29681W        W43095  13.687   9.852  12.706  0.0502 -0.4278  0.1724
29682W        W43096  16.931  12.401  11.422  0.2393 -0.0808  0.1492
29683W        W43097   7.227   1.059   4.184 -0.3129 -0.2690  0.1788
29684W        W43098   5.718  16.942   1.036  0.2326 -0.1901 -0.3823
29685W        W43099  10.614  15.273   5.401  0.1502  0.2305  0.2169
29686W        W43100   0.892   3.179   4.033 -0.1415 -0.1826  0.1461
29687W        W43101   7.279  16.633  11.760 -0.2937  0.1345  0.2179
29688W        W43102   5.531   9.278  14.799 -0.1143 -0.0788 -0.0125
29689W        W43103   6.341  16.742   3.770 -0.2493  0.4357  0.1623
29690W        W43104   9.820  16.799   4.672 -0.1206 -0.2358 -0.0245
29691W        W43105   0.890  15.436  10.900  0.0550 -0.1216 -0.1905
29692W        W43106   4.696   9.432   1.856 -0.0467  0.1251  0.1506
29693W        W43107   8.166   3.661  11.215  0.2645  0.2865 -0.0448
29694W        W43108  16.491   8.081  15.759  0.0490 -0.0746 -0.1402
29695W        W43109  11.647   7.078   2.285  0.2425 -0.0756 -0.0072
29696W        W43110  12.718   0.324  15.924  0.0526  0.0446  0.3360
29697W        W43111   8.094  17.429  15.708  0.0614  0.0775 -0.2058
29698W        W43112  14.155   8.867  14.814 -0.0508 -0.1045  0.0244
29699W        W43113  17.124   4.944  15.122 -0.0502 -0.0475  0.0699
29700W        W43114   9.933   1.749   1.514 -0.0501  0.2265  0.0249
29701W        W43115   2.076  12.901   4.941 -0.1840  0.1938 -0.2953
29702W        W43116  13.183   4.160  12.165 -0.0852 -0.0468  0.0358
29703W        W43117   3.543   4.519  14.958 -0.1471 -0.0249 -0.2829
29704W        W43118  14.672   6.529   1.743  0.1295 -0.1612  0.0493
29705W        W43119  14.263   7.667   1.832  0.1382 -0.2913 -0.2165
29706W        W43120   9.530   5.356   2.192 -0.0488  0.0828 -0.0467
29707W        W43121   9.983  17.057  16.570  0.0469 -0.1682 -0.1148
29708W        W43122  17.523  17.914   3.684 -0.0157 -0.0075 -0.1879
29709W        W43123   9.798   1.066  16.180 -0.0756 -0.2937 -0.0306
29710W        W43124   6.919   6.933   0.504 -0.1203  0.4467  0.1731
29711W        W43125  12.819   7.670   5.154 -0.3279  0.0467  0.0371
29712W        W43126   5.843   1.457  11.877  0.2973 -0.1333  0.3678
29713W        W43127   4.779   2.400   3.099  0.1030  0.2498  0.2863
29714W        W43128   1.919   7.019   4.787  0.0332  0.2666  0.0650
29715W        W43129   8.853  13.267  15.427  0.1118 -0.0462  0.0276
29716W        W43130  16.923   7.062  14.745  0.0180 -0.1162 -0.1064
29717W        W43131   7.714   8.990  16.157 -0.0777  0.1144 -0.0475
29718W        W43132  11.156  13.701  13.123 -0.0214  0.2236 -0.4720
29719W        W43133  10.430  11.954   6.989 -0.1473 -0.2136 -0.0523
29720W        W43134   6.967   9.055   4.416  0.2167 -0.0793 -0.0934
29721W        W43135   6.697  14.186  11.416  0.0140  0.1153  0.0168
29722W        W43136  17.075  17.289  13.834 -0.1172 -0.1728 -0.3019
29723W        W43137   3.545  11.749  15.348  0.1863 -0.1907  0.1038
29724W        W43138   5.078   3.272   3.535 -0.2806 -0.1778  0.1833
29725W        W43139  10.415   5.823  14.061  0.2870 -0.2846  0.0523
29726W        W43140   9.776   8.645  15.423  0.1048 -0.1752  0.3416
29727W        W43141  12.527   9.420  15.714  0.2643  0.0225  0.1081
29728W        W43142  12.073   7.124  11.917 -0.2299  0.2942  0.0912
29729W        W43143   1.330  10.202  16.594  0.0237 -0.2044 -0.3230
29730W        W43144  15.357   4.640  14.619 -0.0066 -0.1297  0.0179
29731W        W43145   6.541  17.104  13.209 -0.1588 -0.1317  0.0589
29732W        W43146   5.522  16.293   5.499 -0.2694 -0.0361 -0.0897
29733W        W43147  10.409   3.181   1.814  0.1114  0.1483 -0.3065
29734W        W43148   4.115   8.503  15.582  0.4480  0.1149  0.1767
29735W        W43149  13.045   1.447  12.601  0.0179  0.1402 -0.3898
29736W        W43150   2.476   5.726   0.946 -0.0138  0.4139 -0.0232
29737W        W43151  13.328   9.337   4.676 -0.0726  0.0205 -0.1192
29738W        W43152   0.712   2.234  11.646 -0.0630 -0.2156 -0.0163
29739W        W43153  17.089   3.961   0.754 -0.0421  0.3799 -0.1237
29740W        W43154  16.985   0.231  11.030 -0.2930  0.1466  0.1184
29741W        W43155   3.426   5.228  14.347  0.1711 -0.0195 -0.3321
29742W        W43156  12.479  16.456  14.253  0.5924 -0.2261  0.0903
29743W        W43157   2.587  10.272   4.791 -0.1022 -0.0505 -0.0506
29744W        W43158   7.162   2.283  12.750 -0.2326 -0.0304  0.2484
29745W        W43159  11.631   2.173   4.018  0.1103 -0.1129  0.0265
29746W        W43160   8.149   0.130   5.416 -0.3248  0.0073  0.0170
29747W        W43161  16.988  10.648  11.357 -0.2605 -0.0359  0.1694
29748W        W43162  10.336   7.668  11.870  0.2638 -0.1961  0.1763
29749W        W43163   6.661   0.703  16.230 -0.2139  0.4328 -0.0711
29750W        W43164   4.877  13.731  12.536  0.0451 -0.0959 -0.1301
29751W        W43165  16.389  15.849   5.339  0.0034  0.0890  0.0055
29752W        W43166   4.582   2.612  11.546 -0.1518  0.0114 -0.0844
29753W        W43167   7.561  14.557  15.348 -0.0676  0.2064 -0.0638
29754W        W43168   5.138  10.151   5.975 -0.0276  0.0471  0.0476
29755W        W43169   8.314   7.779  12.567  0.1146 -0.0421 -0.1067
29756W        W43170  17.155  12.136  13.882  0.1037  0.0208 -0.1218
29757W        W43171  10.491   7.969   6.338  0.0768 -0.0321  0.1089
29758W        W43172  12.001   6.386  15.900  0.2983  0.0257  0.0649
29759W        W43173   4.009   7.441  16.101  0.4389 -0.1397  0.0615
29760W        W43174  11.181  14.964  12.553 -0.0065 -0.0238 -0.0690
29761W        W43175  12.307   9.879  11.236  0.1001  0.0154 -0.0883
29762W        W43176  12.728   4.848  11.916 -0.0063 -0.0573  0.0983
29763W        W43177  12.002  14.217   1.798 -0.0100  0.2146  0.1173
29764W        W43178   6.227   8.428  15.666 -0.0138 -0.2561 -0.0809
29765W        W43179   1.657  15.352   1.767 -0.2588  0.1892 -0.1416
29766W        W43180   6.545   0.412  12.133 -0.1009 -0.1749 -0.0583
29767W        W43181  11.711   5.528   4.819  0.2709 -0.0227 -0.2101
29768W        W43182   0.915  13.727   0.902  0.3896 -0.4231  0.2550
29769W        W43183   0.289  17.648  11.266  0.1460  0.2437  0.1090
29770W        W43184   9.392  13.820  11.799  0.0568 -0.0812  0.0303
29771W        W43185   7.371   5.993   2.874 -0.0536  0.1133  0.0105
29772W        W43186  16.916  15.940   5.880  0.0564 -0.3361 -0.0178
29773W        W43187   1.126   6.389   4.201  0.4052 -0.0105 -0.3762
29774W        W43188   0.021  17.873  13.466  0.0690  0.2384  0.1351
29775W        W43189   8.349  16.505  11.275 -0.2296 -0.0446  0.1426
29776W        W43190   2.398  12.396  12.765  0.0621 -0.1360 -0.0841
29777W        W43191  14.525   9.365  15.463 -0.0649  0.1372  0.0640
29778W        W43192  10.556  15.780   2.637  0.3483  0.0391  0.0449
29779W        W43193   5.634   0.665  12.530 -0.3611 -0.0671  0.3140
29780W        W43194   9.718   7.935  13.136  0.0901  0.1535  0.0298
29781W        W43195  15.222  15.327  15.816  0.1470  0.2735  0.2427
29782W        W43196   8.653  16.629  15.748  0.1949 -0.1773  0.1669
29783W        W43197   5.806  12.329   3.615 -0.1768 -0.1640 -0.0202
29784W        W43198   9.252   5.498   1.596  0.1684  0.2576  0.0006
29785W        W43199  13.014  17.396   0.110  0.0008  0.0866 -0.1001
29786W        W43200   5.355  13.042   2.965 -0.0638 -0.1975 -0.1958
29787W        W43201   2.623   0.367   1.647  0.0029 -0.3133  0.2376
29788W        W43202   7.547  12.435  13.214 -0.2992 -0.0839  0.0951
29789W        W43203  14.353  14.438   3.278  0.3056  0.0447  0.0590
29790W        W43204  15.031  14.802   2.014  0.0727 -0.2010  0.0126
29791W        W43205   6.951   3.603  11.550 -0.0142 -0.0798 -0.1833
29792W        W43206   4.374  17.781  14.612 -0.0001  0.0083  0.1737
29793W        W43207  15.217  17.130   1.513  0.3470  0.1495  0.0778
29794W        W43208   5.429  13.607   0.968 -0.3796 -0.1149  0.0911
29795W        W43209   1.766  10.232  14.928 -0.0680  0.2560  0.0222
29796W        W43210  15.231   6.243   2.328  0.0415 -0.0163 -0.0424
29797W        W43211   7.933  17.625   3.851  0.1839  0.0536  0.0548
29798W        W43212   9.460  17.988   1.350 -0.2201 -0.2170  0.1301
29799W        W43213   9.727  11.366   6.205 -0.2785 -0.0353 -0.1522
29800W        W43214   9.157   7.940   3.689  0.1287 -0.1802  0.0418
29801W        W43215  13.472   0.404  15.608  0.2605  0.1423 -0.1702
29802W        W43216   4.238  15.363  16.567  0.0180 -0.1030  0.2128
29803W        W43217  17.333  15.591   0.178 -0.3835 -0.1694  0.0904
29804W        W43218   6.996  12.571   0.845 -0.0509 -0.0988 -0.2187
29805W        W43219  16.875  16.467  13.269  0.3501 -0.0708 -0.0114
29806W        W43220  14.212   8.006   2.929 -0.2891  0.2038  0.0920
29807W        W43221   8.320   7.873   0.022 -0.0015  0.0130 -0.3016
29808W        W43222  15.585   8.024  13.583 -0.0762 -0.5090 -0.1093
29809W        W43223  11.551  10.898  15.815 -0.1899  0.1247  0.2019
29810W        W43224  17.292  12.777   3.361 -0.0135 -0.0300  0.0554
29811W        W43225  17.435  11.854  13.297 -0.1037  0.0631 -0.1150
29812W        W43226   4.276   9.840   3.561 -0.1185 -0.0236  0.1043
29813W        W43227   5.268   2.986  11.026  0.0685 -0.0679 -0.0964
29814W        W43228   5.357   7.876   5.368  0.3470  0.0908 -0.2835
29815W        W43229  16.901   6.124   4.829 -0.3047  0.0785 -0.1582
29816W        W43230  15.307   9.513   5.315  0.0450  0.0608  0.0998
29817W        W43231   4.788   6.294   4.090 -0.1715  0.1511 -0.0403
29818W        W43232   4.604  16.101   5.752 -0.1373 -0.1582 -0.0202
29819W        W43233   7.316   9.444   4.451 -0.0167  0.3349  0.2601
29820W        W43234  10.892   3.926  16.567 -0.0951  0.0123  0.1405
29821W        W43235  15.282  13.143   5.470  0.1882  0.3591 -0.1443
29822W        W43236   3.784   8.948  11.106 -0.0518  0.1888 -0.3422
29823W        W43237   7.988   6.631   3.237  0.1382 -0.2128  0.0599
29824W        W43238   2.396   9.837   2.383 -0.2390  0.1630 -0.3025
29825W        W43239   9.714   2.944   1.386  0.2114  0.0117 -0.1858
29826W        W43240  11.596  17.746   4.770 -0.0938  0.1200  0.1300
29827W        W43241   3.982   1.799  12.871  0.3163  0.0132 -0.2415
29828W        W43242   7.413   9.462  16.758 -0.2552 -0.1251 -0.1115
29829W        W43243  15.953  14.019   1.676 -0.2213 -0.0385  0.1753
29830W        W43244  14.788   4.554   1.666 -0.5387  0.0945 -0.1032
29831W        W43245  13.163  11.493   5.455 -0.1025  0.2812 -0.0708
29832W        W43246   1.660   3.011  11.015  0.4162 -0.1222 -0.0266
29833W        W43247   1.369   2.768  12.345 -0.0116  0.0413 -0.1402
29834W        W43248  11.080   7.164   0.971 -0.3678 -0.0384  0.3867
29835W        W43249   6.019   9.068  14.624 -0.3614  0.2169 -0.1259
29836W        W43250  10.961  12.250  13.145 -0.2165 -0.0843  0.0606
29837W        W43251  11.977   9.302  14.547  0.0540  0.0423  0.4391
29838W        W43252   8.722   2.375   4.225  0.0754 -0.0806 -0.3492
29839W        W43253   4.031   9.805   6.732 -0.3844 -0.0174  0.1383
29840W        W43254  13.269   1.656  13.028 -0.0444  0.1499  0.1759
29841W        W43255   9.142  14.986   5.437  0.0127  0.1251 -0.1632
29842W        W43256  13.087   0.529   5.613  0.0736 -0.2753  0.0150
29843W        W43257   3.924   1.059   0.685 -0.1243 -0.0883 -0.1914
29844W        W43258   3.490  11.391   5.787 -0.3414 -0.1285 -0.2107
29845W        W43259  14.450  13.423  16.047  0.0621 -0.0012 -0.2602
29846W        W43260   8.163   7.470   2.721 -0.0170 -0.0077  0.0038
29847W        W43261   3.582  16.880  15.661  0.0706  0.2842  0.2869
29848W        W43262   3.833   0.979  12.404  0.1661 -0.2860  0.0445
29849W        W43263  15.457   6.175  16.366 -0.0395 -0.0563 -0.2850
29850W        W43264  12.621   1.406  11.819 -0.1225  0.0692  0.2184
29851W        W43265   7.851   7.327   3.858 -0.1320  0.2522 -0.1203
29852W        W43266   9.534   2.131   1.807  0.0443 -0.0125  0.2248
29853W        W43267   3.747   6.273   3.448  0.0016  0.1936  0.0464
29854W        W43268   7.903   5.499  12.780 -0.1713  0.1201  0.0718
29855W        W43269   1.283  11.743   6.126  0.2368 -0.4529 -0.1732
29856W        W43270   7.908  12.291  12.745  0.0602 -0.1066 -0.2447
29857W        W43271   5.178  11.431  16.749  0.2297 -0.0163  0.2271
29858W        W43272  10.832  10.724   6.867 -0.0677  0.0455  0.0792
29859W        W43273  12.751   3.055  11.779 -0.0772 -0.2197  0.0193
29860W        W43274  16.923   4.102   2.740 -0.0985  0.1772  0.0946
29861W        W43275   5.326   4.035  13.790  0.1406  0.0562  0.0170
29862W        W43276  11.560  13.693  11.433  0.4580  0.2065  0.0225
29863W        W43277  13.086   8.347  12.246  0.2229 -0.1399 -0.5241
29864W        W43278  12.762   2.678   2.812 -0.1547  0.1236 -0.3260
29865W        W43279   8.553   2.675   3.319  0.1056 -0.0760  0.0301
29866W        W43280   0.593   7.418   2.757 -0.1295  0.1866 -0.1291
29867W        W43281   8.778  15.262   3.084 -0.4453 -0.0230 -0.0741
29868W        W43282   4.032  11.967  15.421 -0.0771  0.1222 -0.0937
29869W        W43283   1.896   7.935  14.223 -0.1359 -0.1931 -0.3126
29870W        W43284  17.244  12.328   5.779  0.2348 -0.1637 -0.2818
29871W        W43285   6.527   3.204  10.510 -0.0157  0.1149  0.0828
29872W        W43286  17.575   8.258   0.021 -0.2245  0.3903  0.0953
29873W        W43287   2.467   2.409   0.347  0.3021  0.3326 -0.0759
29874W        W43288   5.396   1.358  10.727  0.1778 -0.2768 -0.1880
29875W        W43289  17.424   4.145  12.505  0.0238  0.2502 -0.1122
29876W        W43290   5.767   9.947  12.494  0.1032  0.0852 -0.0393
29877W        W43291  11.258   8.902   1.386 -0.3340  0.1021  0.0181
29878W        W43292   2.586   9.416   3.690 -0.2131  0.0203  0.0176
29879W        W43293  11.865  16.997  12.952  0.0065  0.0785  0.2282
29880W        W43294   4.403   2.819   2.429 -0.0882 -0.1300 -0.4543
29881W        W43295   7.913   0.947  14.795  0.2424  0.0013 -0.1627
29882W        W43296   1.867   8.384  12.177 -0.2982  0.0144  0.1387
29883W        W43297  11.281  15.800  13.469 -0.0023 -0.0839 -0.1900
29884W        W43298   4.161  11.021  16.069 -0.0201  0.0566  0.0222
29885W        W43299  13.562  17.404   0.860  0.0365  0.0869 -0.0038
29886W        W43300  12.139   5.462  14.354 -0.1213  0.0314  0.2687
29887W        W43301  16.694  16.603  12.810 -0.0563  0.1441  0.1197
29888W        W43302  11.374  12.345   2.489 -0.3071  0.0116  0.1315
29889W        W43303   8.518  14.167  12.697 -0.0191 -0.0736 -0.1019
29890W        W43304   7.169  13.308  11.889 -0.0411 -0.0181  0.0873
29891W        W43305   6.899   0.416  11.688  0.0771  0.0167  0.0093
29892W        W43306   9.065  11.631  15.486  0.2519  0.1272  0.0103
29893W        W43307   8.423  11.789   0.732  0.0307  0.0890  0.2004
29894W        W43308   1.498   8.207   5.583  0.2096 -0.0638  0.3528
29895W        W43309  13.978  11.656   2.123  0.2601 -0.2702  0.0879
29896W        W43310  15.537   4.983  10.599 -0.0746 -0.0667 -0.1632
29897W        W43311  11.700   0.626  14.058 -0.0337  0.3989 -0.3895
29898W        W43312   3.524   5.771   0.549 -0.0053 -0.0484  0.0710
29899W        W43313   7.744   3.743  13.518  0.1550  0.0747  0.1912
29900W        W43314  10.077   1.174  14.224  0.2709  0.0726 -0.1908
29901W        W43315   5.187  13.002   5.164 -0.1950 -0.0491  0.3653
29902W        W43316  14.233  15.974   1.541  0.0058 -0.0709 -0.1992
29903W        W43317   3.902  10.571  15.130  0.2646  0.2046  0.0668
29904W        W43318   6.587   2.929   1.432  0.2665  0.3164  0.0389
29905W        W43319  16.112   6.959  10.791  0.0741 -0.1684  0.1409
29906W        W43320  11.822   6.987  11.529  0.0283  0.0025 -0.1551
29907W        W43321   7.569   0.980   5.069 -0.0118  0.1054  0.1994
29908W        W43322  12.147  17.850   1.283  0.4275  0.0364 -0.0152
29909W        W43323   1.174   1.991  11.887 -0.1623  0.0522  0.2282
29910W        W43324   0.156   8.736   4.353  0.0142  0.1790  0.1455
29911W        W43325  13.623  13.157   1.369  0.1749 -0.0133  0.2322
29912W        W43326   9.848  10.849   2.511  0.0446  0.1982  0.1108
29913W        W43327   8.134   7.549   0.342 -0.0904 -0.2016 -0.2296
29914W        W43328   2.525   4.742  15.867  0.2081  0.1652 -0.0134
29915W        W43329  13.195  16.170  15.353  0.3078  0.0767  0.1067
29916W        W43330  17.379   5.151   1.592  0.2335  0.1965 -0.4774
29917W        W43331  17.010  12.084  13.006  0.1095  0.1756 -0.0907
29918W        W43332  15.054  11.488  11.660  0.0232  0.0985  0.2708
29919W        W43333   4.612  12.530  14.468  0.2740 -0.1034  0.1618
29920W        W43334   8.454   8.160   6.056  0.0040 -0.0791 -0.0338
29921W        W43335  15.718   2.381   0.086 -0.4504 -0.0743  0.0230
29922W        W43336   9.744   5.069  12.893  0.2449 -0.2439  0.0398
29923W        W43337   4.870   5.814  16.674  0.3048  0.0621  0.3034
29924W        W43338   8.027   2.030  14.893  0.0671  0.1883  0.2864
29925W        W43339   5.116  14.139   2.800  0.0724 -0.2120 -0.1394
29926W        W43340   8.051   1.029   5.204  0.0415  0.1772 -0.2550
29927W        W43341  12.707  14.879  15.976  0.1658 -0.0888  0.3294
29928W        W43342  10.899  14.371   0.122  0.1781  0.3142  0.0408
29929W        W43343  10.405   6.643   1.083  0.2782 -0.3020  0.1936
29930W        W43344   9.667  17.507   4.010  0.2476 -0.2415  0.1324
29931W        W43345  12.504  17.737  13.399 -0.0107 -0.4491 -0.1447
29932W        W43346   4.022   7.533  16.590  0.1499 -0.2960  0.1233
29933W        W43347  16.668   6.219  14.307 -0.0285  0.1302  0.1228
29934W        W43348  14.011  12.737   3.059  0.3517  0.0655  0.0465
29935W        W43349  15.279   0.994  14.675 -0.1394  0.0333 -0.3506
29936W        W43350  17.739   6.436  16.279  0.1070 -0.0541  0.0745
29937W        W43351  16.735   4.590   9.859 -0.0486  0.2450 -0.2016
29938W        W43352   0.320  15.075  10.043 -0.2848  0.0053 -0.0942
29939W        W43353  17.092  11.844   1.932 -0.0938 -0.0998 -0.0420
29940W        W43354   8.786  15.093   2.567 -0.0919 -0.2637  0.2235
29941W        W43355  14.832   3.959  12.217 -0.1661 -0.1230  0.2238
29942W        W43356   5.334   5.536  10.920 -0.1270  0.1065  0.2467
29943W        W43357   2.717  11.671   4.537 -0.0649  0.2387  0.0292
29944W        W43358  15.628   8.309  12.640  0.0605 -0.0375 -0.0967
29945W        W43359   0.931  13.217  12.712  0.1856  0.0388  0.0331
29946W        W43360   6.606  15.253   3.911 -0.3861 -0.1455 -0.0950
29947W        W43361  15.400   5.894   2.671  0.0363  0.0437  0.3319
29948W        W43362   3.311   2.473   2.801  0.1870 -0.1124 -0.1517
29949W        W43363  17.010   1.836   2.451 -0.2441  0.1510 -0.0729
29950W        W43364   7.414   8.597  15.981  0.1523  0.1117 -0.0193
29951W        W43365  13.652   4.087  13.968 -0.1228  0.2197  0.0779
29952W        W43366  10.932   3.647  14.485  0.0298  0.0002  0.0432
29953W        W43367   6.940   3.282  13.617 -0.1048 -0.0671 -0.1681
29954W        W43368  12.322   4.317  15.165  0.1807 -0.2472  0.0498
29955W        W43369  17.797  17.236   5.080  0.2547  0.2556 -0.1777
29956W        W43370   1.607  10.588  11.359  0.1855 -0.0983 -0.0283
29957W        W43371   6.660   5.333   2.230  0.1179  0.0714 -0.1551
29958W        W43372   4.758  17.056   4.549  0.0640 -0.1057  0.3036
29959W        W43373  15.042   5.996   1.359  0.1244  0.1509  0.1323
29960W        W43374  16.308  15.685  16.576 -0.3583  0.0119 -0.1345
29961W        W43375   3.304  15.609  10.215  0.0813  0.1588 -0.0920
29962W        W43376   9.824  16.848  11.059 -0.1659 -0.0037  0.0250
29963W        W43377   1.094   9.366  12.053 -0.4105 -0.1418 -0.2443
29964W        W43378  16.848  16.302   5.124 -0.0745  0.1310  0.0839
29965W        W43379   5.015   6.328   5.966 -0.0419  0.0702 -0.1980
29966W        W43380   4.176   0.158   4.060  0.1044 -0.1552  0.0188
29967W        W43381   3.947  16.749  11.055 -0.0495 -0.1595 -0.0710
29968W        W43382   2.483   3.590   2.952 -0.0574  0.1550 -0.1503
29969W        W43383  16.585   5.440  12.930  0.2546  0.1485 -0.2196
29970W        W43384  13.861   7.185   1.764 -0.0286 -0.0038  0.0982
29971W        W43385   1.405   1.072   5.390 -0.0369 -0.0781 -0.2278
29972W        W43386   4.669  11.020   5.191  0.1452 -0.4825 -0.1176
29973W        W43387  16.360  10.595  11.732  0.1306 -0.1085 -0.3325
29974W        W43388  17.065   2.327  13.932  0.2611 -0.0597 -0.1570
29975W        W43389  15.476  16.057   3.404 -0.1355 -0.1622  0.1347
29976W        W43390   8.200  16.739  15.561 -0.0527 -0.0183  0.4060
29977W        W43391   6.177   3.971  12.780  0.1390  0.0771  0.0127
29978W        W43392   4.221  15.113  14.607  0.2744 -0.0067  0.0286
29979W        W43393  14.133   1.013  11.289 -0.1380 -0.1235  0.1484
29980W        W43394  15.434   6.483  15.518  0.1566 -0.0227 -0.0717
29981W        W43395  14.630   0.780  12.564 -0.1340  0.1301  0.0417
29982W        W43396  13.609  15.642  16.305 -0.2176 -0.0087  0.1128
29983W        W43397   2.639   8.805   5.294 -0.5070  0.3425  0.0302
29984W        W43398  14.009  15.542   1.815 -0.0114  0.1284 -0.0201
29985W        W43399   1.683  10.898   0.985  0.0070  0.1644 -0.1387
29986W        W43400   2.279  15.570   2.920  0.1434 -0.1987  0.3901
29987W        W43401  10.466   6.920  13.062 -0.0044 -0.2903 -0.0750
29988W        W43402  13.342   0.666  14.629  0.2506 -0.0396 -0.0174
29989W        W43403   0.107  17.025   0.768  0.2100  0.1666  0.0306
29990W        W43404  12.663  13.518   0.891  0.1441  0.2213 -0.1767
29991W        W43405  14.574  10.747  13.660 -0.0904 -0.2408  0.0624
29992W        W43406   1.310  12.209   1.813 -0.2338  0.0728 -0.1367
29993W        W43407   7.776  17.078   0.404 -0.0513 -0.1724 -0.3442
29994W        W43408   7.657  15.848  10.453 -0.1225 -0.2763 -0.3906
29995W        W43409   7.557  14.829   5.863 -0.0807  0.1652  0.1679
29996W        W43410   3.973   4.974   0.336  0.3443  0.1858 -0.1954
29997W        W43411  12.680  12.648   5.608 -0.4219 -0.0801 -0.1112
29998W        W43412   8.325   5.175  16.591 -0.0311  0.4773 -0.0458
29999W        W43413   6.511   1.020   0.465 -0.2117 -0.0902 -0.0177
30000W        W43414   6.739   0.169   2.946  0.1464 -0.1304  0.1009
30001W        W43415  17.513   0.878  11.854  0.1842  0.1565  0.1651
30002W        W43416  14.290  15.216  15.905 -0.0631  0.1083  0.2773
30003W        W43417   9.891   5.137  14.094  0.4497 -0.2478  0.1780
30004W        W43418  13.520  17.880  15.705 -0.2197 -0.0204  0.0087
30005W        W43419   3.517   0.609  12.399  0.1040  0.0556  0.1128
30006W        W43420  16.673   6.668   2.160 -0.1027  0.1389  0.2247
30007W        W43421   7.072  13.256   2.303 -0.1879  0.2808 -0.0569
30008W        W43422   2.077   1.733   4.054 -0.0092  0.1040  0.0219
30009W        W43423  12.765  14.589   2.821 -0.3699  0.2882  0.0424
30010W        W43424   7.228   3.416  14.107  0.1218  0.2877 -0.2843
30011W        W43425  15.412  10.536  13.423 -0.0375 -0.2070  0.0558
30012W        W43426   1.353   1.615  13.498 -0.3801  0.0499 -0.1040
30013W        W43427  15.639   1.779  15.922 -0.0480 -0.0425  0.0219
30014W        W43428   0.721  10.084   2.624  0.3136 -0.2162  0.0273
30015W        W43429   8.497   0.724  14.045  0.0172 -0.0203 -0.1942
30016W        W43430  16.439   9.117   2.006 -0.1982  0.2935  0.0355
30017W        W43431  16.538   9.113   5.001  0.1315 -0.2187 -0.1369
30018W        W43432  11.927   3.051  11.512  0.1602  0.1825  0.0853
30019W        W43433   2.997   2.734  12.561  0.3609  0.3533 -0.0533
30020W        W43434   3.788   6.709   0.923  0.0471  0.0187  0.0267
30021W        W43435   5.149  16.880   6.333  0.0765 -0.0905 -0.2979
30022W        W43436   9.811   5.022  11.536  0.1552 -0.1295 -0.0987
30023W        W43437   7.233  12.842   5.757  0.0296  0.0403 -0.0391
30024W        W43438  14.525   2.537  14.375 -0.2976  0.3596 -0.0371
30025W        W43439  15.135  12.635  15.487  0.1688  0.0962 -0.1242
30026W        W43440  10.681  16.462  11.578 -0.1097  0.1314 -0.1532
30027W        W43441  14.734   0.015  16.279  0.3363  0.0759  0.0426
30028W        W43442   7.471  16.198   0.642 -0.3288 -0.0976  0.2390
30029W        W43443   2.640   5.733   2.764 -0.2995  0.0575 -0.0316
30030W        W43444  13.110  10.238   2.802  0.0029 -0.1524  0.0118
30031W        W43445  14.224   3.959   5.601  0.2275 -0.1379 -0.1212
30032W        W43446   2.231   1.208  13.926 -0.3128  0.1042  0.1277
30033W        W43447  13.155   2.796  11.694  0.0926 -0.1119 -0.1761
30034W        W43448   0.667  11.034  14.537  0.1886 -0.0445 -0.1359
30035W        W43449   5.512   2.840  10.554  0.2768  0.0290  0.1119
30036W        W43450   2.231   7.336   4.937  0.1862 -0.0775  0.2748
30037W        W43451  10.623   5.870  14.543 -0.0046 -0.1130  0.0995
30038W        W43452   2.073   2.472  11.990 -0.1807  0.1273 -0.1538
30039W        W43453   4.496  15.406  14.292 -0.1720 -0.0504  0.1769
30040W        W43454   2.851  16.241  16.222  0.1430 -0.1611  0.1615
30041W        W43455   7.547  17.923  12.912  0.2354  0.0861 -0.0421
30042W        W43456   9.963   2.310  16.392  0.2141 -0.4420  0.2182
30043W        W43457  12.049   8.778   5.576 -0.1449 -0.0549  0.0954
30044W        W43458   9.929  13.524   4.157 -0.0209 -0.2098 -0.1477
30045W        W43459   9.396  10.987  11.435 -0.0670  0.1669  0.0181
30046W        W43460   1.253   5.798   4.274 -0.0339 -0.2414 -0.0670
30047W        W43461  15.625   9.026   3.227 -0.0900  0.0059  0.0600
30048W        W43462   2.870  10.291   1.158  0.2318  0.0402  0.0041
30049W        W43463   6.100   6.480   3.262  0.0704  0.2692 -0.0597
30050W        W43464  11.325   6.656  12.740 -0.1196 -0.1305  0.4571
30051W        W43465   0.204   7.116  16.089  0.2612 -0.0466  0.2409
30052W        W43466  17.840  13.666  10.018  0.1241 -0.0930 -0.2229
30053W        W43467   5.924   7.258   4.567  0.0900 -0.0192 -0.0251
30054W        W43468  13.401   9.555   4.259 -0.1579  0.0961 -0.4052
30055W        W43469  10.776  10.233  11.871 -0.0667 -0.1637  0.0648
30056W        W43470   8.765   0.270  13.931  0.1122 -0.1196 -0.0377
30057W        W43471  13.015  17.456  12.254 -0.0224 -0.1116  0.5223
30058W        W43472   0.296   7.449   0.176 -0.1285 -0.1713 -0.2473
30059W        W43473   7.468  17.166  12.193  0.0877  0.1284  0.0813
30060W        W43474  11.126  13.114   3.549  0.1928 -0.0219 -0.2679
30061W        W43475   7.576  10.089  14.835  0.3837 -0.1886  0.0640
30062W        W43476   6.917   3.562  15.202  0.1939 -0.1232 -0.2145
30063W        W43477   8.616  16.386  13.238  0.1026 -0.0824  0.2017
30064W        W43478   7.580  14.709  13.220  0.0477  0.5593  0.1033
30065W        W43479  17.631  15.530  16.535 -0.0245  0.2959  0.2075
30066W        W43480   1.383   8.883   0.190  0.3719  0.2009  0.1868
30067W        W43481   9.276   5.820  14.631 -0.2456  0.0556  0.2915
30068W        W43482  14.952  12.907  11.641 -0.0440  0.1094 -0.0423
30069W        W43483   2.464  10.362   1.507 -0.1437 -0.1304 -0.2072
30070W        W43484  15.523  10.800  15.171  0.1753 -0.2764 -0.2775
30071W        W43485   3.244   2.996   2.819 -0.3197 -0.0290 -0.0946
30072W        W43486  12.219  10.540   4.494  0.0724 -0.1355  0.0956
30073W        W43487  12.463  13.547  13.048  0.0326  0.0627  0.0577
30074W        W43488  15.100  17.347  16.051 -0.1077  0.2861 -0.0010
30075W        W43489  11.278   9.297   2.859 -0.1091  0.3039 -0.1317
30076W        W43490  11.415  15.290  13.490 -0.0295 -0.0192 -0.0450
30077W        W43491   0.120  13.042   5.816  0.0696 -0.1864 -0.3127
30078W        W43492   7.115  14.652  14.365 -0.2335  0.0612  0.0509
30079W        W43493  11.336   4.932   3.038 -0.0770  0.0402 -0.0079
30080W        W43494   4.437   2.713  10.601 -0.0770 -0.0672  0.0313
30081W        W43495  16.168  14.391   0.115 -0.0389  0.1791 -0.2558
30082W        W43496   5.609  15.259   3.977 -0.0258 -0.1070 -0.0681
30083W        W43497  13.952  12.115  16.554  0.0466  0.1202  0.1009
30084W        W43498   8.399   0.862   3.324 -0.0153 -0.3710  0.2666
30085W        W43499   6.926   2.384  13.214  0.2635 -0.1461 -0.1978
30086W        W43500   3.367  13.721   0.941  0.0563 -0.0126 -0.0823
30087W        W43501  14.422   8.231   0.933 -0.1050  0.1390  0.0290
30088W        W43502   2.407  13.899  14.803 -0.2156  0.0829  0.3864
30089W        W43503   8.107   6.393   1.606  0.0590  0.0362 -0.3414
30090W        W43504  16.374   9.490  14.215 -0.1916 -0.1582 -0.1715
30091W        W43505   4.240   5.121  13.278  0.0119  0.2499 -0.0456
30092W        W43506  12.101   1.179   0.787 -0.2149 -0.1294  0.2254
30093W        W43507   2.823  15.042   0.934  0.2765  0.0977  0.1519
30094W        W43508   4.274  11.698  12.106  0.2349 -0.0282  0.3246
30095W        W43509   9.038   3.529   6.221 -0.2364  0.1412  0.2362
30096W        W43510   2.335   7.404   3.572  0.0596 -0.0747  0.1018
30097W        W43511   8.587   8.062  15.574 -0.2144  0.1738  0.0480
30098W        W43512   2.995   1.497  11.290  0.1797 -0.3537 -0.0018
30099W        W43513  10.900  16.917   4.193 -0.2513 -0.2320 -0.0721
30100W        W43514  13.484   0.808   0.591 -0.4210 -0.0133 -0.0166
30101W        W43515   0.256   6.012  13.613 -0.0163 -0.1349 -0.1039
30102W        W43516   3.167   0.583   3.505 -0.1280  0.0653  0.0870
30103W        W43517   6.051   8.976   3.756 -0.2479  0.1111  0.1579
30104W        W43518   7.517   8.680   3.269 -0.2806  0.0198 -0.2266
30105W        W43519   8.114  12.496   0.000 -0.1504 -0.0648 -0.1819
30106W        W43520   8.044  16.843  14.919  0.2020  0.0117  0.0990
30107W        W43521   0.821   6.089  13.948 -0.1165  0.2158  0.1816
30108W        W43522  16.735   8.598  10.770 -0.1650 -0.1587 -0.1889
30109W        W43523  13.290  15.091  13.635 -0.0081 -0.1668  0.1347
30110W        W43524   4.731  15.432  13.394 -0.1453  0.3609 -0.1274
30111W        W43525  13.756   1.247  13.073  0.1639 -0.0174 -0.1500
30112W        W43526   6.116   3.033   4.774  0.1970 -0.2193 -0.0996
30113W        W43527  16.087   1.342   5.505 -0.0870 -0.0737  0.1472
30114W        W43528  11.268  15.687  11.887 -0.1432 -0.1369 -0.0004
30115W        W43529  16.514   9.300  14.887  0.1551  0.0098 -0.2631
30116W        W43530  16.566  15.148  15.831  0.0621 -0.0870 -0.3723
30117W        W43531   5.895  13.061   0.094  0.0025 -0.4707 -0.2265
30118W        W43532   7.018  10.944   5.727  0.2182  0.1282 -0.2226
30119W        W43533  17.086  12.385   1.964  0.0548 -0.0877  0.0564
30120W        W43534   6.861   8.933   1.715  0.1853 -0.0129 -0.3247
30121W        W43535   0.897   4.810  15.936 -0.2442  0.0986 -0.1627
30122W        W43536  17.400   7.413  12.508 -0.0206  0.2265 -0.2620
30123W        W43537   2.650  15.977   3.106  0.1670 -0.1979  0.0602
30124W        W43538  11.380  13.949   4.666  0.0680  0.0304 -0.0860
30125W        W43539  16.985  14.500  12.656  0.0318  0.2162  0.0663
30126W        W43540  11.499  11.258  12.496  0.0063 -0.3898  0.0297
30127W        W43541  14.806   2.375  12.154 -0.1539 -0.1987  0.3197
30128W        W43542  14.735   2.557  10.822 -0.2431  0.1550 -0.5839
30129W        W43543  13.817  11.209  12.494  0.1788 -0.1620 -0.5355
30130W        W43544   8.562  15.561   2.510 -0.0500 -0.0370 -0.1281
30131W        W43545  12.939   7.380   6.158 -0.1723  0.2047  0.0510
30132W        W43546   8.158   2.088   1.746 -0.1439  0.3270  0.1858
30133W        W43547   6.295   6.928   2.292  0.2220  0.1180  0.1268
30134W        W43548  16.274   3.507  11.667  0.0138 -0.3873 -0.0442
30135W        W43549  16.420   7.110   0.634  0.1547 -0.1483 -0.2954
30136W        W43550   1.586   3.831  13.763  0.0671  0.0575  0.1794
30137W        W43551  10.233   0.487  12.988 -0.0569  0.1836  0.4435
30138W        W43552   0.273   6.529  10.725  0.0273  0.0165  0.2272
30139W        W43553  10.968   8.515   1.730 -0.2423 -0.2179 -0.0279
30140W        W43554   2.363  11.947  15.975  0.3840  0.0171 -0.0873
30141W        W43555   3.337   9.880   4.628 -0.1308  0.1354  0.0635
30142W        W43556   3.788   2.733  12.653  0.2667  0.2594 -0.1203
30143W        W43557  12.794   8.342   6.073  0.0061 -0.2153 -0.1646
30144W        W43558  15.631   9.318   1.409 -0.0068  0.0737 -0.0062
30145W        W43559   8.110  12.647   3.419  0.1106  0.1576  0.1320
30146W        W43560  12.224  17.770   0.216 -0.0809 -0.2129 -0.3896
30147W        W43561   0.166  12.939  10.791 -0.1048  0.1064  0.0503
30148W        W43562   7.170  13.842   5.629  0.1179 -0.2505 -0.1649
30149W        W43563  16.788  16.464   0.928 -0.2070 -0.0009 -0.3496
30150W        W43564  15.460  15.797   1.980 -0.1067  0.2028  0.3026
30151W        W43565   6.605   7.307  15.157 -0.4023  0.3112 -0.0596
30152W        W43566   0.101  11.688  14.093  0.1058 -0.3274  0.3256
30153W        W43567   8.275  15.080   2.264 -0.0227 -0.2537  0.0112
30154W        W43568  10.623   7.275   3.212  0.0907 -0.0995  0.1973
30155W        W43569   5.807  16.083   3.725 -0.0812  0.0957  0.0437
30156W        W43570  14.241   6.882  12.763 -0.2092  0.2497 -0.3164
30157W        W43571   7.804   9.590   4.041 -0.1474 -0.0575  0.2739
30158W        W43572   7.259  14.318   4.732  0.2292 -0.0039  0.1343
30159W        W43573   1.155   5.065   0.915 -0.3143  0.0366  0.0347
30160W        W43574   5.390  15.013  14.729  0.1844 -0.0184  0.0439
30161W        W43575  16.911   4.708   6.047  0.3055  0.2392 -0.1431
30162W        W43576   1.143  10.221   5.930 -0.0660  0.0636  0.1314
30163W        W43577  16.048   1.688   2.566  0.2228 -0.3321  0.0967
30164W        W43578   9.377  16.567  12.473 -0.0976  0.1371  0.1197
30165W        W43579  10.523   8.607   3.864 -0.3312 -0.0785 -0.0727
30166W        W43580  14.945  17.959   3.370  0.2388  0.0793 -0.0001
30167W        W43581  14.483  16.802   1.387 -0.0494  0.1629  0.3054
30168W        W43582  15.636   2.579   2.441 -0.1574 -0.2373  0.0734
30169W        W43583  12.997  17.628   3.444 -0.0622  0.0400 -0.1732
30170W        W43584   1.343  13.468  13.985 -0.2484  0.0880 -0.2834
30171W        W43585  17.000   3.870   1.312 -0.0641  0.2766  0.1894
30172W        W43586  16.762  10.366   3.618 -0.1649  0.2158  0.2771
30173W        W43587   8.150   4.360  15.986 -0.2217 -0.0891  0.2046
30174W        W43588  17.251   7.703   2.606 -0.2554 -0.0726  0.0804
30175W        W43589  13.588   1.886   5.624 -0.1491  0.2609 -0.3531
30176W        W43590   3.081   6.730   2.720 -0.3251  0.1929  0.2019
30177W        W43591  16.146   8.676   3.911  0.2659  0.2386  0.2010
30178W        W43592   1.165   1.638  13.954 -0.0633 -0.0667 -0.0417
30179W        W43593   5.059   6.178   0.143  0.0541 -0.3541 -0.0754
30180W        W43594  11.712  11.308   2.700  0.0459  0.0972 -0.0581
30181W        W43595   4.093  13.550  11.949 -0.0339 -0.4501  0.1227
30182W        W43596   5.729  17.187  16.763  0.0775 -0.2554 -0.0234
30183W        W43597  15.710   6.698  12.934 -0.0568 -0.0768  0.2421
30184W        W43598  12.210  12.504   3.064  0.0454  0.1652 -0.1422
30185W        W43599  16.596  17.379   1.264  0.0994 -0.0302  0.1894
30186W        W43600   1.159  17.846  10.571  0.0307 -0.0221 -0.0827
30187W        W43601   5.617  15.655   5.127  0.0058 -0.1973 -0.1329
30188W        W43602   4.626  10.259  14.849  0.0144 -0.2307 -0.0594
30189W        W43603  13.495  17.055   5.288  0.1238  0.1362 -0.2645
30190W        W43604  13.605  14.614   2.219  0.1882 -0.4368  0.0976
30191W        W43605   7.748   3.818  15.255  0.3057  0.0376  0.2467
30192W        W43606   6.522  13.434  13.077  0.2629 -0.1294  0.1945
30193W        W43607   6.986   7.265  15.489 -0.0587  0.2001 -0.0250
30194W        W43608   2.876  16.804  13.554 -0.2768  0.0754 -0.2355
30195W        W43609   6.054   4.470  10.692  0.0165 -0.2586 -0.2126
30196W        W43610   6.551   1.487   0.651  0.0314  0.1628  0.0960
30197W        W43611   1.764  14.213  15.604  0.3065  0.0414  0.1448
30198W        W43612  10.906  11.634  14.916  0.0508  0.0769  0.0692
30199W        W43613   4.731   3.289   1.213  0.0010 -0.1696 -0.2041
30200W        W43614  16.663  12.105   4.476 -0.2603 -0.1749 -0.1832
30201W        W43615   2.546  10.873  16.462 -0.1346  0.2069  0.2870
30202W        W43616   0.920   5.459   4.015 -0.1499  0.0359  0.0728
30203W        W43617   8.279  17.530   4.243  0.6234 -0.2577 -0.0892
30204W        W43618   1.633   1.362   0.049  0.2069 -0.0390  0.0591
30205W        W43619  12.939   7.692   4.199 -0.0399 -0.0861  0.1920
30206W        W43620  14.833  12.084   2.774 -0.3616  0.1744 -0.0491
30207W        W43621   7.322  11.789  14.631  0.1322 -0.1908  0.1194
30208W        W43622   4.886  16.566  13.443 -0.2720  0.0207 -0.4111
30209W        W43623   2.292   5.997   3.463  0.0760  0.2217  0.0448
30210W        W43624   0.811  13.754  11.600  0.1021  0.0357 -0.1214
30211W        W43625  15.672  12.972   0.682  0.0019  0.1944 -0.0985
30212W        W43626  15.847   5.359  10.824  0.1073  0.1311  0.0817
30213W        W43627   6.222   4.030   1.655 -0.0117 -0.0920  0.3903
30214W        W43628   1.408  16.458  15.897 -0.0591 -0.0835  0.1821
30215W        W43629  16.000   7.995  11.447 -0.3395  0.1337  0.1405
30216W        W43630   7.492  11.234  11.293  0.2635 -0.0779  0.2295
30217W        W43631   5.900   7.080  13.715  0.1521  0.3730 -0.2452
30218W        W43632  14.255  17.443  13.460 -0.1107 -0.0789 -0.1714
30219W        W43633   8.333   3.408  16.082  0.3519  0.1541  0.1097
30220W        W43634  14.838   2.693  12.598  0.0088  0.0536 -0.0952
30221W        W43635  13.271   8.890   0.768 -0.1190  0.4695 -0.2109
30222W        W43636  16.167   3.574   2.895 -0.1034 -0.2669 -0.1343
30223W        W43637  13.891   4.174   4.581 -0.1262 -0.0258 -0.1694
30224W        W43638  10.118   7.755  15.503 -0.0741 -0.2847 -0.1778
30225W        W43639  16.028   5.712   0.311 -0.1350 -0.0820  0.1069
30226W        W43640  10.300   0.905   2.103 -0.2072 -0.0805  0.0788
30227W        W43641   2.232   5.293  11.747  0.2622 -0.2202  0.1228
30228W        W43642   2.159   0.846   2.159 -0.0480  0.1233 -0.1539
30229W        W43643   2.042  17.989   0.138 -0.1089 -0.0001 -0.2956
30230W        W43644   2.090  11.245  11.755 -0.2400 -0.0945 -0.0333
30231W        W43645   4.637   8.335  15.315 -0.1929 -0.0445  0.4025
30232W        W43646   8.445  14.696   4.899  0.0164  0.0908 -0.2006
30233W        W43647   2.594  11.768  16.427 -0.0238  0.0840  0.2684
30234W        W43648   0.676   7.941  14.167 -0.2851 -0.1766 -0.3446
30235W        W43649   8.855  17.473  13.247 -0.4375 -0.0464  0.4074
30236W        W43650   6.163   2.218  12.875 -0.3786 -0.0187 -0.0261
30237W        W43651   6.977   7.532  13.058  0.2465  0.4080  0.1242
30238W        W43652   1.336   3.894   3.042  0.0805  0.0138 -0.0053
30239W        W43653   1.255  15.919   0.502  0.2168 -0.1399 -0.0963
30240W        W43654   8.910   4.852   3.518  0.0228  0.2085  0.1564
30241W        W43655  14.644   2.982  15.580 -0.3518 -0.2980 -0.0901
30242W        W43656   6.614  16.737   1.574 -0.0950 -0.1029 -0.1275
30243W        W43657   4.339   0.943   4.845 -0.0284 -0.1739  0.0787
30244W        W43658   5.872   3.628  12.579 -0.2744  0.2083  0.1451
30245W        W43659   2.912   3.841  14.012 -0.1536  0.3193  0.0786
30246W        W43660  17.070   4.629  14.317  0.1136  0.2052  0.4119
30247W        W43661   4.316   5.699   4.450 -0.1350 -0.1709  0.2221
30248W        W43662  16.305   1.892  11.604  0.1731  0.2040 -0.0805
30249W        W43663   6.244   5.387  15.556 -0.0480 -0.1985  0.0178
30250W        W43664   5.669   2.851  16.108  0.0009 -0.2250  0.0096
30251W        W43665  15.813   2.125  11.737 -0.3488 -0.0003 -0.0782
30252W        W43666  16.220  15.106   2.927  0.0511  0.1017 -0.0901
30253W        W43667   5.934  12.874  16.324  0.3364  0.1758  0.0744
30254W        W43668  10.877  12.466   1.546 -0.2948 -0.1035  0.0115
30255W        W43669   9.898  11.715  11.062  0.0121 -0.1266  0.0326
30256W        W43670  16.227  17.793   3.986  0.0313  0.3322  0.0229
30257W        W43671   0.099  15.706   2.134 -0.1113 -0.0418 -0.0566
30258W        W43672  13.666   2.938   2.707 -0.1281  0.0564  0.0776
30259W        W43673   1.026  14.560  12.881  0.2269  0.0059  0.1120
30260W        W43674   1.864   6.139   3.193 -0.2858  0.2209 -0.1698
30261W        W43675  11.560   3.646  11.791  0.1451  0.0526 -0.0563
30262W        W43676  14.711   7.345   5.610  0.2989 -0.1229  0.2830
30263W        W43677  16.790   4.259  11.637 -0.0932  0.0923  0.1889
30264W        W43678  12.678  14.300  11.794 -0.1373  0.2024 -0.0947
30265W        W43679   2.564  12.091  13.222 -0.0060  0.0183 -0.1063
30266W        W43680   5.766   2.922   3.006 -0.0469  0.1783 -0.0784
30267W        W43681  12.662  12.382  15.396  0.2349  0.0802 -0.1163
30268W        W43682   3.127   6.270   5.711 -0.0250 -0.3049  0.2533
30269W        W43683   0.488  10.713   2.720  0.0530  0.0359 -0.1070
30270W        W43684   1.746   3.118   5.259  0.0396 -0.0665 -0.1139
30271W        W43685   2.051   5.897  13.540  0.2254  0.0472  0.0268
30272W        W43686   3.517  13.156  15.948  0.1959 -0.2275 -0.0466
30273W        W43687   8.983   4.089   1.402  0.0858 -0.3576 -0.1112
30274W        W43688  13.819  12.836   4.900 -0.2354 -0.2571 -0.0810
30275W        W43689   9.141   7.849   6.120  0.0648 -0.2510  0.0372
30276W        W43690  10.605   5.206   5.803 -0.1130  0.1496  0.0166
30277W        W43691  14.608   3.748   5.808  0.1027 -0.2031  0.0351
30278W        W43692  11.337  14.843   5.240  0.1059 -0.1278  0.2693
30279W        W43693   6.421   6.318   1.114 -0.0947  0.0365 -0.2877
30280W        W43694  13.595   5.524   0.154  0.0117 -0.1037  0.2356
30281W        W43695   5.592   6.579   1.911  0.3171 -0.1586 -0.0949
30282W        W43696  17.969  12.176   4.752 -0.0033 -0.1126 -0.0487
30283W        W43697   6.225   3.651  14.226 -0.0915  0.2929 -0.0666
30284W        W43698   9.527  16.575  13.999 -0.2681 -0.2019  0.0245
30285W        W43699   5.121   5.420   6.072  0.3342  0.0448  0.0750
30286W        W43700  15.636  10.175   2.378 -0.1463  0.0186 -0.1440
30287W        W43701   1.599   1.424   4.554 -0.2276 -0.2013 -0.2031
30288W        W43702   8.528  14.812   2.900 -0.2662 -0.3965 -0.1453
30289W        W43703  13.460   3.925  16.284 -0.1830 -0.3815  0.1354
30290W        W43704   3.641  13.250   1.640 -0.0901 -0.1452  0.2005
30291W        W43705   6.881  13.259   1.488  0.2265  0.0694 -0.4036
30292W        W43706   2.431  13.501   5.532 -0.2165  0.0194 -0.0876
30293W        W43707  11.641  14.313  12.219  0.3012  0.2631  0.0016
30294W        W43708   5.529   9.634  16.231  0.0946  0.0739 -0.0754
30295W        W43709   8.865  11.696  16.462  0.2549  0.0947 -0.1956
30296W        W43710   7.679   1.389   2.269 -0.0278  0.0716  0.2725
30297W        W43711  13.822   1.131   4.611 -0.2492  0.1569  0.1433
30298W        W43712  10.096  10.602  13.950 -0.1117  0.0543 -0.0741
30299W        W43713  10.175   5.755   1.324 -0.0049  0.2228  0.0646
30300W        W43714   2.383   3.095   2.793 -0.1437  0.1072  0.3458
30301W        W43715   3.546  11.820  14.506 -0.3429 -0.0441  0.1777
30302W        W43716  13.270   7.941  14.153 -0.0488 -0.3016 -0.2399
30303W        W43717  15.213   9.976   4.056  0.0832 -0.1329  0.2537
30304W        W43718   1.990  10.272   1.671 -0.0667  0.1587 -0.4449
30305W        W43719  16.119   4.896   1.814 -0.0597 -0.6038  0.1236
30306W        W43720  13.517  10.319  12.543 -0.1190 -0.0678 -0.1562
30307W        W43721   0.079   4.931   0.290  0.0435 -0.0601  0.2001
30308W        W43722  12.974   5.902  11.240  0.1881  0.2408  0.2159
30309W        W43723   1.292  13.510  10.836  0.0570  0.1416 -0.2087
30310W        W43724  15.473   1.730   2.971  0.0816 -0.1470 -0.1232
30311W        W43725   5.153   2.253  12.791  0.0548  0.3513 -0.0426
30312W        W43726   3.940   4.853  15.788  0.3570  0.0353  0.2900
30313W        W43727   1.175  16.036  11.812 -0.0710 -0.3111 -0.0685
30314W        W43728   8.236   0.527  11.439 -0.1412  0.1228  0.2589
30315W        W43729  14.212   1.072   1.365  0.0870  0.2077 -0.0265
30316W        W43730   3.949  13.743   2.459 -0.0297  0.0762 -0.1721
30317W        W43731  12.290  14.580  16.079 -0.1679 -0.0045  0.2944
30318W        W43732   8.379   2.699  10.981  0.0716 -0.1163 -0.2463
30319W        W43733   7.534   9.305   5.507  0.0755 -0.3140  0.1858
30320W        W43734   1.154   4.461   5.140  0.4167 -0.0133 -0.2076
30321W        W43735   6.682   5.498  11.414 -0.3302  0.1945 -0.1867
30322W        W43736  12.951   8.782   2.635  0.1052  0.3047 -0.2605
30323W        W43737   3.225   9.429  16.550  0.1662  0.2162 -0.2535
30324W        W43738   8.880   4.627  13.453  0.0224  0.1174 -0.0342
30325W        W43739   1.909   2.079   3.148 -0.0255  0.2237 -0.2082
30326W        W43740   5.422   7.044  13.958  0.0092  0.0057  0.0072
30327W        W43741   2.846  13.931   4.122 -0.1728  0.1461 -0.1320
30328W        W43742  10.428   3.193  14.384  0.3928 -0.0275 -0.0263
30329W        W43743   6.072  10.626   3.722  0.2849 -0.1961  0.2381
30330W        W43744  10.770  10.260  15.602 -0.0534 -0.0820 -0.1681
30331W        W43745  15.595  10.603   1.643 -0.0433 -0.1542  0.0667
30332W        W43746   3.046  11.136   3.298 -0.0342 -0.3012 -0.2456
30333W        W43747   6.880   7.988   4.330  0.1863 -0.0806 -0.0127
30334W        W43748   5.979   5.645   1.561 -0.0389  0.1259  0.0884
30335W        W43749  13.710   8.095  16.448  0.0054 -0.0967 -0.1757
30336W        W43750  14.767   7.699  14.524  0.0623 -0.0164  0.2570
30337W        W43751   2.903  14.288  11.055  0.1692  0.3010 -0.0371
30338W        W43752  11.107   9.715  11.634 -0.0944 -0.0887 -0.1944
30339W        W43753  16.418   2.027  11.041 -0.1061 -0.2253  0.1309
30340W        W43754   2.560  13.329   2.330  0.2971  0.3017 -0.0941
30341W        W43755  12.224  15.233   0.607  0.0780  0.0026 -0.0715
30342W        W43756  17.223  14.355   1.324 -0.4362 -0.0729  0.0148
30343W        W43757  11.258   8.752   5.906 -0.2000 -0.1311 -0.4351
30344W        W43758   9.713   6.841   0.879 -0.1124 -0.0831 -0.1392
30345W        W43759  10.414  13.132   0.509 -0.0326  0.2292 -0.1045
30346W        W43760  15.107  10.023   4.585 -0.1977  0.0481  0.0601
30347W        W43761   5.435   3.510   1.720 -0.0437 -0.2061 -0.0304
30348W        W43762  15.360   7.269   3.119  0.2372 -0.1495  0.0500
30349W        W43763   8.105  14.194  13.020  0.1410 -0.0367 -0.1215
30350W        W43764   8.688   4.743   2.524  0.1227 -0.0190  0.0043
30351W        W43765  13.344   5.287  13.961  0.1024 -0.3842 -0.3134
30352W        W43766   9.002  13.699   5.426  0.3097  0.2490  0.0395
30353W        W43767   5.089  13.578   1.606  0.2793 -0.0512  0.1869
30354W        W43768  15.859  11.001   2.689 -0.1197 -0.1668  0.0001
30355W        W43769   8.957   1.024  14.221 -0.0708  0.2023  0.1328
30356W        W43770  17.800   9.784   5.275 -0.0166  0.0910  0.2278
30357W        W43771   3.217  10.553   1.454  0.1752 -0.0959 -0.2859
30358W        W43772  17.519   3.528  11.109  0.0931  0.0448  0.1094
30359W        W43773   9.500   2.006   1.264 -0.1359  0.1201  0.1229
30360W        W43774  10.570   9.853   4.905 -0.1853 -0.1584 -0.0340
30361W        W43775   1.108   4.908  14.637  0.1159  0.1407 -0.2201
30362W        W43776  14.137   1.402   2.711 -0.1383  0.1174  0.0263
30363W        W43777   0.755   3.854   2.182 -0.0636  0.2225  0.0356
30364W        W43778   3.057  16.501   1.374 -0.2159  0.0341  0.0851
30365W        W43779  15.887   7.227  14.060  0.0744  0.0306  0.0508
30366W        W43780  10.512  13.060  13.109  0.0236  0.2801  0.1480
30367W        W43781   6.115  14.600   5.632 -0.1390 -0.1047 -0.0358
30368W        W43782  15.756   1.353   2.988 -0.1218 -0.1635 -0.0823
30369W        W43783  13.297   2.709   1.186 -0.1221  0.1535 -0.0301
30370W        W43784   5.696   8.269   6.087  0.0437 -0.2047  0.0608
30371W        W43785   5.452  17.013   3.495  0.0701  0.1837  0.0128
30372W        W43786   1.974   3.333   0.083  0.1044 -0.0337  0.2108
30373W        W43787   2.940  13.318  12.873 -0.0901  0.2861  0.3264
30374W        W43788  12.353   7.169   5.956  0.0110 -0.0837  0.5938
30375W        W43789  15.848  13.953   5.982  0.0184  0.1056  0.0376
30376W        W43790   7.540  11.525   1.030 -0.0637  0.3935  0.1066
30377W        W43791  12.417   0.992  15.014 -0.0236 -0.0249  0.1368
30378W        W43792   4.371   7.510  12.737 -0.1408  0.2948 -0.0440
30379W        W43793   0.324  12.644   5.570 -0.2054  0.1497  0.1525
30380W        W43794  12.625   4.130   3.214 -0.0530 -0.0034  0.0061
30381W        W43795  16.163  12.163  13.556 -0.2666  0.1226 -0.3218
30382W        W43796   3.510   2.959   2.374 -0.3197 -0.0069  0.4555
30383W        W43797   9.509   8.964  12.612 -0.1382 -0.0185 -0.0712
30384W        W43798  10.352   5.568   3.528 -0.0367  0.0912 -0.1074
30385W        W43799   7.839   8.673  13.550 -0.1545 -0.0462 -0.0382
30386W        W43800   8.013   8.816  14.482 -0.0751  0.0999 -0.2049
30387W        W43801   8.710  11.933  13.920  0.1345 -0.1689 -0.0773
30388W        W43802   8.908   0.235   5.078  0.2050  0.0599 -0.1868
30389W        W43803   7.015   7.214   1.851 -0.0628  0.3552 -0.1940
30390W        W43804   4.270  17.018   1.556  0.0378 -0.0425 -0.2244
30391W        W43805  12.412  15.356   3.266 -0.1860  0.1175  0.3193
30392W        W43806  17.886   7.642  11.244  0.0631 -0.0793 -0.2808
30393W        W43807  17.329   6.701  16.101  0.4063 -0.4190 -0.0896
30394W        W43808   4.877   0.362  12.995 -0.0861 -0.1154 -0.2850
30395W        W43809  14.043  14.558   5.621 -0.0227 -0.1008 -0.1130
30396W        W43810   5.251   4.513  15.627 -0.2279  0.0116  0.3073
30397W        W43811  16.910   6.271  11.695 -0.0287 -0.1071  0.0893
30398W        W43812  13.765  15.700  14.180  0.0104 -0.2190 -0.1844
30399W        W43813   2.906   3.671  11.953  0.0942 -0.0557  0.1495
30400W        W43814  14.602   5.351  11.625  0.0143 -0.2525  0.0400
30401W        W43815   3.040  11.078   2.609 -0.0705 -0.2328 -0.3789
30402W        W43816   6.922  14.403   3.055  0.0720  0.1569 -0.2371
30403W        W43817   8.622  12.208  14.523  0.1969  0.0293 -0.2462
30404W        W43818  17.332  12.188   0.693 -0.0932  0.1330 -0.2158
30405W        W43819  13.176   5.483  12.552 -0.0823 -0.3287 -0.0108
30406W        W43820  16.479   8.943  11.643  0.1063 -0.1238 -0.0760
30407W        W43821   2.559  12.179  14.711 -0.1293 -0.1507  0.2081
30408W        W43822  15.008   9.475   1.220  0.1758  0.1056  0.2405
30409W        W43823  16.337  12.433   5.385 -0.2555  0.0134  0.3891
30410W        W43824   9.483   6.140  14.274  0.2156  0.0765  0.0853
30411W        W43825  17.653  14.304   1.058 -0.3500 -0.3107 -0.0601
30412W        W43826  14.409   1.824   5.002 -0.2089 -0.0819 -0.0227
30413W        W43827  13.105  16.771   0.823 -0.1215 -0.1807 -0.1913
30414W        W43828  10.439   7.281   3.931  0.1189  0.2961  0.3279
30415W        W43829   9.944   2.674  12.955  0.3334 -0.1701 -0.0682
30416W        W43830   0.149   3.494   3.465 -0.0155 -0.1381  0.0319
30417W        W43831   9.988   4.739  11.094 -0.2718  0.1301 -0.1001
30418W        W43832  12.913   5.954  11.766  0.0967  0.1293 -0.1684
30419W        W43833   8.597  10.619   0.923 -0.0573  0.0548  0.1281
30420W        W43834  16.862   8.254   3.499 -0.1430  0.3592  0.0695
30421W        W43835   6.668   3.213   4.832 -0.2031  0.1174  0.2407
30422W        W43836  11.130   3.509  13.615 -0.4400  0.2816 -0.1386
30423W        W43837   6.591   5.675  14.845 -0.1639 -0.0192  0.0058
30424W        W43838   9.633  10.683  15.054  0.0736  0.0257  0.0530
30425W        W43839   3.985   6.516  14.338  0.2431  0.1341  0.0143
30426W        W43840  15.191  13.319  14.859 -0.2291  0.2168 -0.1770
30427W        W43841   6.812   7.457  11.132  0.0224  0.2923 -0.0132
30428W        W43842  14.783   4.470   4.107 -0.3032 -0.2245  0.1064
30429W        W43843  12.139  16.972  14.900  0.0056  0.2701 -0.1828
30430W        W43844  10.358   0.868   0.562 -0.2765 -0.3082  0.0554
30431W        W43845   2.165  10.371  13.442  0.0354  0.0635  0.1209
30432W        W43846  10.893   8.677  14.857  0.2048 -0.1097 -0.0686
30433W        W43847  13.025  14.876   3.780 -0.0621 -0.0541  0.0620
30434W        W43848   6.113   2.026   5.054  0.1028 -0.0298 -0.0966
30435W        W43849   6.107  17.889  16.255  0.1535 -0.0780  0.1048
30436W        W43850   3.739   2.838  14.245 -0.0491 -0.2381 -0.3355
30437W        W43851  17.188  11.580  11.620 -0.2076 -0.3418 -0.2769
30438W        W43852   5.444   1.944   4.577  0.0287  0.0359  0.1028
30439W        W43853   3.284  17.658  14.089  0.2437 -0.1148 -0.1180
30440W        W43854  14.998  15.340  15.269 -0.0176  0.0143 -0.0692
30441W        W43855   2.096   8.780   4.049  0.1244 -0.0316  0.1144
30442W        W43856  10.450  14.896   3.802 -0.0159 -0.1489 -0.0582
30443W        W43857  16.783   3.981  15.931  0.0999 -0.0964 -0.1623
30444W        W43858  16.196  14.359   5.950  0.0018  0.2513 -0.4574
30445W        W43859   7.453   7.883  13.870  0.4114 -0.2967 -0.2187
30446W        W43860   0.404   7.322  11.950  0.1337  0.0551  0.1935
30447W        W43861   2.427  12.171  16.696  0.3384  0.2682 -0.1842
30448W        W43862  11.324   5.443   0.295 -0.0007  0.1178  0.0919
30449W        W43863   8.286  13.193   3.580 -0.1861  0.0006 -0.1546
30450W        W43864  14.238  16.850  11.102  0.0419  0.1188 -0.0908
30451W        W43865  14.783  11.702   3.059  0.0403 -0.1753 -0.2568
30452W        W43866  15.955   3.723   5.827  0.2461  0.3187  0.1491
30453W        W43867   1.928   0.161  15.968  0.1322 -0.0723 -0.0978
30454W        W43868   1.332   5.546   0.654  0.1945  0.0705  0.1111
30455W        W43869   2.628  17.879   2.880  0.2374  0.0090 -0.0750
30456W        W43870   2.018  17.326   3.878 -0.0952  0.2185  0.4223
30457W        W43871  17.847   0.893  15.048  0.1293  0.0377  0.0041
30458W        W43872  14.065  14.782   2.284 -0.0437 -0.0326 -0.1788
30459W        W43873   8.490  14.543   1.539  0.1755 -0.0444  0.1374
30460W        W43874   9.807   1.790   2.394  0.3774 -0.1414  0.1884
30461W        W43875  13.646   2.667  10.899 -0.0390  0.2482  0.1137
30462W        W43876  13.681  15.298  11.676 -0.0463  0.1108  0.2812
30463W        W43877  11.660  13.135   6.380 -0.0416  0.0392 -0.0129
30464W        W43878   7.123   4.725   0.558 -0.0057  0.2695 -0.0396
30465W        W43879  13.304  17.722   5.655 -0.3754 -0.3405 -0.0527
30466W        W43880   9.552  16.035   6.277 -0.2283 -0.1174  0.1415
30467W        W43881   9.112   1.683   3.882  0.0545  0.2968 -0.4944
30468W        W43882   8.031  17.417  16.223  0.0189  0.0909 -0.1965
30469W        W43883   9.145  11.234  14.363  0.0018  0.1964 -0.0405
30470W        W43884  15.961   8.656   3.046 -0.3473 -0.0936  0.1352
30471W        W43885   5.041  12.818  11.354 -0.4556 -0.0796  0.1026
30472W        W43886   8.095   9.506   6.069 -0.2587  0.1203  0.2991
30473W        W43887   5.998  11.407   5.714 -0.2722 -0.2524  0.2697
30474W        W43888  11.009   9.862   1.256 -0.1872 -0.1664 -0.1228
30475W        W43889   9.033   6.938  13.427  0.0107 -0.0301  0.0277
30476W        W43890  14.327   2.813   0.663  0.3732  0.0849 -0.1124
30477W        W43891   2.710  14.939   3.052  0.1216 -0.2445 -0.0807
30478W        W43892   5.207  10.308   0.067 -0.1042  0.0882 -0.0212
30479W        W43893   1.538  12.056   4.553  0.2699 -0.1286 -0.2025
30480W        W43894   7.984   4.861  15.622 -0.0928 -0.1247 -0.1626
30481W        W43895  16.228   9.081  15.693  0.0146 -0.1231 -0.0851
30482W        W43896  15.767   5.179  15.750 -0.0320  0.2127 -0.1037
30483W        W43897  10.553  16.799  16.639  0.0591  0.3152  0.2056
30484W        W43898   6.887  14.166  12.713 -0.0148 -0.0001  0.0880
30485W        W43899   9.740  12.625  11.434  0.2512  0.2449  0.1529
30486W        W43900  12.294   7.687   2.331  0.4694 -0.3065 -0.0678
30487W        W43901  17.348  16.008  13.997  0.2497 -0.3743  0.0114
30488W        W43902   1.315  15.738   2.127 -0.1659 -0.0485  0.0362
30489W        W43903   6.807  14.923  13.837 -0.2336 -0.1736 -0.1010
30490W        W43904   8.416   5.355  14.872  0.0930  0.1178  0.0413
30491W        W43905  16.898  13.090   2.701  0.0534  0.0464 -0.0615
30492W        W43906   6.327   3.073  10.977  0.1583 -0.0140 -0.0627
30493W        W43907  10.606   8.799  13.450  0.2969  0.0374 -0.1589
30494W        W43908   6.321  13.021  13.413  0.0275  0.1085  0.1176
30495W        W43909  11.274   6.995   6.469  0.1403  0.0506  0.0548
30496W        W43910   2.784   7.176   5.141  0.3090 -0.0708  0.1205
30497W        W43911  15.369   6.931   4.484  0.0218 -0.1854  0.1247
30498W        W43912   9.654  17.836   4.380  0.0184  0.1013  0.1850
30499W        W43913   0.699   6.418  11.522 -0.2596  0.3183 -0.1625
30500W        W43914  15.338  13.136   3.337 -0.1130 -0.1068  0.2289
30501W        W43915   6.506   4.447  12.928  0.1718 -0.0538 -0.0835
30502W        W43916   1.261   4.872   1.362  0.0254  0.1168 -0.0033
30503W        W43917  12.237   9.285   2.689  0.0970 -0.3524  0.1433
30504W        W43918  17.377   1.913  10.399 -0.1590  0.1313  0.3056
30505W        W43919  11.925   7.045   4.507 -0.2817  0.4244  0.1918
30506W        W43920   0.770   3.084   0.325  0.4870 -0.1809  0.0299
30507W        W43921  17.323   5.313  15.999 -0.0362  0.1203 -0.1798
30508W        W43922   8.982  13.189   2.252  0.2387 -0.4204 -0.3405
30509W        W43923   7.009   3.082  11.730  0.1487 -0.0479  0.0763
30510W        W43924  15.760   2.429   1.496  0.1367 -0.2329  0.1307
30511W        W43925   0.591   2.155   3.053 -0.0448 -0.1244 -0.0807
30512W        W43926  16.425   1.017   3.727  0.1963 -0.2503  0.2469
30513W        W43927  13.382   2.217   1.097 -0.1640 -0.0282  0.1157
30514W        W43928  13.197  12.491  15.451 -0.1265 -0.1413 -0.1492
30515W        W43929   8.654   2.974  10.716 -0.2778 -0.1272 -0.1786
30516W        W43930   3.397  10.063   1.485  0.2808 -0.2011  0.0058
30517W        W43931   8.079   2.594   3.118 -0.0129  0.1886 -0.2367
30518W        W43932   5.912  11.375   4.379  0.0630 -0.3634 -0.0917
30519W        W43933  14.664   8.541  15.951 -0.1297  0.0504  0.0434
30520W        W43934   9.178  14.545   1.292  0.0167 -0.0662  0.2073
30521W        W43935   1.498   3.374  15.163  0.2592  0.0314  0.0765
30522W        W43936   7.939   4.774  11.866  0.0601  0.1042  0.1005
30523W        W43937  13.005  10.888   4.127  0.1899  0.1077  0.1699
30524W        W43938   4.095   0.189   1.499 -0.0725  0.2370  0.4016
30525W        W43939  13.065  13.158   2.574 -0.0860 -0.2028 -0.0339
30526W        W43940  10.265   0.097  11.112 -0.0197 -0.0510  0.0540
30527W        W43941  10.057  10.844  14.860  0.0342 -0.1711 -0.0700
30528W        W43942  16.315   3.489   0.258 -0.0870 -0.3374  0.0209
30529W        W43943  13.712   9.103   3.872 -0.0587  0.2507 -0.0200
30530W        W43944   1.274   3.681  12.563 -0.0415  0.2769 -0.0966
30531W        W43945   8.236  12.989  14.752  0.0233 -0.1033 -0.0317
30532W        W43946  14.197   3.283  15.827  0.0229 -0.1488 -0.1093
30533W        W43947  17.908   3.489   2.036  0.0382 -0.0186 -0.0937
30534W        W43948   6.492   7.240   3.829 -0.1794 -0.0852  0.0612
30535W        W43949   6.251  14.172   3.772 -0.1010  0.2197  0.0088
30536W        W43950   0.671   2.023   2.560 -0.3372 -0.0451 -0.2366
30537W        W43951   9.462   4.973   0.137 -0.0780  0.0063 -0.0584
30538W        W43952  14.573   6.752   2.914 -0.2796 -0.1605 -0.1173
30539W        W43953  16.950   4.916  10.173  0.2963 -0.0166  0.0248
30540W        W43954   8.514  12.631   3.113 -0.0499 -0.2612  0.1684
30541W        W43955   9.313  15.157   2.958  0.1781  0.0798  0.1803
30542W        W43956  15.719  14.978   1.179 -0.1090 -0.0993  0.0890
30543W        W43957   4.734   0.659  16.280 -0.0299 -0.0694 -0.1186
30544W        W43958   5.233  11.187   6.118 -0.0107  0.1038 -0.2362
30545W        W43959  17.290  11.100   1.134  0.0662 -0.2236  0.3095
30546W        W43960   9.365   3.139  14.543  0.0198  0.0126  0.0847
30547W        W43961   0.092  13.328   3.207 -0.2137 -0.2057  0.1312
30548W        W43962  14.007   6.941   1.233 -0.0370  0.1412  0.1791
30549W        W43963   8.790  16.158  14.699  0.0754 -0.2381  0.1980
30550W        W43964  10.302   9.851   3.422 -0.2942 -0.0860 -0.1181
30551W        W43965   5.720  11.027  12.847 -0.1388 -0.0092 -0.3657
30552W        W43966  12.198  17.299  14.013 -0.0355 -0.2108  0.1892
30553W        W43967   4.197   7.822  10.788 -0.0122 -0.0254  0.2244
30554W        W43968  17.645   5.732  13.905 -0.3053  0.2622 -0.0099
30555W        W43969  14.789  12.960   2.475  0.1797 -0.2107  0.1362
30556W        W43970  13.511  14.309  11.756 -0.0023 -0.0902  0.4100
30557W        W43971   1.130   9.758   0.248  0.2752  0.0875 -0.0321
30558W        W43972  10.754  13.659  14.571 -0.2502  0.0153  0.1262
30559W        W43973  14.575   9.661   0.392  0.2856  0.0089 -0.4594
30560W        W43974  15.489  17.618   0.058  0.1282 -0.0801  0.2764
30561W        W43975   4.758   7.408  12.296  0.1521 -0.0883  0.1393
30562W        W43976   5.381   5.893  15.538  0.0331  0.0902  0.2028
30563W        W43977  14.129  16.789  12.016 -0.2819  0.0304  0.2844
30564W        W43978   5.853   0.726   5.214 -0.3900 -0.3130 -0.0356
30565W        W43979  13.938   3.651  13.162  0.1781  0.0634  0.2289
30566W        W43980  11.907  13.579  14.807  0.1758  0.1477 -0.1448
30567W        W43981  15.684   9.027  15.352 -0.1079 -0.2011 -0.2798
30568W        W43982   7.260   0.536   4.932 -0.0368 -0.2690 -0.0475
30569W        W43983  10.259   2.683   2.562 -0.1922  0.0411 -0.0791
30570W        W43984  15.199   8.006   2.645  0.2315  0.3044 -0.0054
30571W        W43985  12.680   9.531   1.581  0.0467  0.0780  0.0470
30572W        W43986   7.738   9.992  16.454 -0.2602 -0.1461  0.1947
30573W        W43987   8.868  15.403  14.185  0.5149 -0.2587 -0.1390
30574W        W43988  17.990   5.881  15.515  0.1478 -0.0843  0.2165
30575W        W43989  12.257  10.449  16.399 -0.0148 -0.4086  0.2589
30576W        W43990   9.372   8.905   4.615  0.1637 -0.1841 -0.0441
30577W        W43991   7.760  11.613  11.456 -0.0841  0.1768  0.0050
30578W        W43992   3.431  12.056  12.806  0.1243 -0.0246  0.0034
30579W        W43993   4.026   1.831   5.980 -0.1001  0.0454 -0.1069
30580W        W43994  17.205   7.084  11.546  0.1861 -0.0723  0.1010
30581W        W43995  16.841   8.388  14.686 -0.2703 -0.0638  0.1599
30582W        W43996   0.407   5.904   2.613 -0.1386  0.0237  0.0404
30583W        W43997   4.123  12.226  12.263 -0.0948  0.1998 -0.0899
30584W        W43998  16.126  12.638  11.892  0.0865  0.1639  0.0539
30585W        W43999   0.884  14.444   4.879  0.1182  0.1951  0.2387
30586W        W44000  10.444  15.961   6.988 -0.1403 -0.2036 -0.2728
30587W        W44001  11.920   3.275  11.943  0.1144 -0.1492  0.1427
30588W        W44002   1.132   3.765   1.102 -0.3003 -0.3332 -0.1272
30589W        W44003  16.385   5.295   0.187  0.0091 -0.2170  0.1192
30590W        W44004   9.346   0.433  12.509 -0.2444 -0.0984  0.0243
30591W        W44005   3.559  11.019  12.276  0.4269  0.0072 -0.3579
30592W        W44006  15.254   9.886   2.120 -0.0054 -0.0905  0.0126
30593W        W44007  16.971  17.266   3.856 -0.0960  0.0507  0.0607
30594W        W44008   0.214   5.955   0.282 -0.1617 -0.0861 -0.1612
30595W        W44009   9.144   9.188   2.381 -0.1079 -0.1428 -0.1330
30596W        W44010   0.989   2.579  13.516  0.1157  0.0940 -0.2046
30597W        W44011  14.738  15.058   4.048  0.0964 -0.0553 -0.1625
30598W        W44012   7.748   6.148  11.633  0.0868 -0.3782 -0.1227
30599W        W44013  12.216  15.181   3.735 -0.2621 -0.1128 -0.0458
30600W        W44014  11.730   4.467   5.547  0.2988  0.1040  0.0377
30601W        W44015  11.310   3.453   1.770 -0.0267 -0.1284  0.0433
30602W        W44016  12.601   6.636   2.315  0.0769  0.3354  0.3907
30603W        W44017  11.056  10.447  13.992 -0.0258 -0.0871  0.0858
30604W        W44018  17.415   6.823   3.622 -0.0040  0.3330 -0.1422
30605W        W44019   3.261   7.711  16.316 -0.1707  0.2246 -0.2070
30606W        W44020   7.015  14.398   0.821  0.0284  0.3320 -0.2554
30607W        W44021  14.773  11.512  11.122  0.2253  0.0221 -0.0757
30608W        W44022  14.890   3.142   5.317  0.2525  0.1161 -0.0560
30609W        W44023  10.019   6.305   6.254 -0.0474  0.0456 -0.0204
30610W        W44024  17.430   1.364  12.572  0.0170  0.0748  0.1126
30611W        W44025   9.032   4.713  12.471  0.0718 -0.2239  0.1030
30612W        W44026   4.037   1.016  16.572  0.2871  0.2078  0.0320
30613W        W44027  15.506  14.328   1.490 -0.2862  0.1753 -0.0942
30614W        W44028  17.238   6.345  13.605  0.0766 -0.2183 -0.1094
30615W        W44029   8.642   6.889  16.710 -0.0038 -0.1780 -0.0090
30616W        W44030  17.371   9.343   1.948  0.1747  0.1261  0.0142
30617W        W44031   3.115  15.858   5.289  0.0989 -0.0385 -0.0156
30618W        W44032   4.840  13.565  16.263  0.1411 -0.4441  0.1214
30619W        W44033   7.340  12.419   5.476 -0.2073  0.0148  0.0980
30620W        W44034  14.937   5.272   5.484 -0.2462 -0.0248  0.0194
30621W        W44035  10.093   8.236   1.582 -0.0286 -0.0421 -0.3921
30622W        W44036   5.285   4.625   3.583  0.0882 -0.0449  0.0297
30623W        W44037   4.179   4.323  14.228 -0.1873 -0.0923  0.0160
30624W        W44038   0.102  12.544   3.016 -0.4319 -0.0861 -0.0809
30625W        W44039   5.303  16.097   1.549 -0.0498 -0.3795 -0.0186
30626W        W44040   2.821   5.864   4.249  0.0711  0.1376 -0.1764
30627W        W44041   0.415   2.080   5.747 -0.1316  0.1550  0.1982
30628W        W44042  11.802  14.765  12.943 -0.0345 -0.0492 -0.1154
30629W        W44043   8.807  10.600  16.056 -0.2274 -0.1792  0.0905
30630W        W44044   0.793   5.605   5.746  0.1816 -0.0348 -0.2207
30631W        W44045   9.190   5.324   4.587  0.1341 -0.1883  0.1743
30632W        W44046  12.256  16.863   5.846  0.2290  0.0690  0.1285
30633W        W44047   9.604  16.471  14.592  0.0488  0.0806  0.0207
30634W        W44048   2.178   6.235  11.403  0.1355  0.1933 -0.2851
30635W        W44049   5.381   5.721  12.028 -0.1362 -0.1537  0.1354
30636W        W44050  12.672   9.472  11.230 -0.0099  0.2413  0.1348
30637W        W44051   6.251  17.991   5.644 -0.1641  0.2034 -0.0103
30638W        W44052   2.512  13.449   1.269 -0.3263 -0.0243  0.1835
30639W        W44053  11.423  14.939  11.382  0.0849 -0.1308  0.0130
30640W        W44054   0.188  10.920  11.312 -0.0453  0.3358 -0.2054
30641W        W44055  13.269   0.874  10.762  0.4113  0.2108 -0.1496
30642W        W44056  15.614   2.882  14.049 -0.1079 -0.3504 -0.2414
30643W        W44057  13.120   0.522   0.471 -0.1295  0.2448  0.1744
30644W        W44058  14.177   8.702  16.180 -0.2785 -0.0450 -0.1212
30645W        W44059  13.747  15.241   1.505  0.0493  0.0854  0.1300
30646W        W44060   6.123   4.082   2.332 -0.1103  0.0440  0.1741
30647W        W44061  10.251   5.653   4.368  0.2983 -0.2310  0.1470
30648W        W44062   4.830   9.291   6.461 -0.2772  0.0536 -0.3543
30649W        W44063   2.023   9.488  13.213 -0.3026 -0.0344 -0.4073
30650W        W44064  16.478   7.571   0.873 -0.0819 -0.2656  0.3584
30651W        W44065  12.563  10.799   0.577  0.0091 -0.0156  0.1808
30652W        W44066   1.701  12.973   5.412 -0.3310 -0.0049 -0.1322
30653W        W44067   0.932  15.759  15.937  0.0320  0.0735 -0.0939
30654W        W44068   3.512   3.440  16.390 -0.3222  0.1448 -0.1648
30655W        W44069   4.812  17.841  16.556  0.0940 -0.1077  0.1575
30656W        W44070  15.723  12.095  14.952  0.1274  0.0832 -0.3515
30657W        W44071   2.765   8.383   4.606 -0.3191  0.0692  0.2400
30658W        W44072   2.911   5.579  16.320  0.0417 -0.0838  0.2499
30659W        W44073   4.350   2.104   2.027  0.0822  0.3816 -0.0154
30660W        W44074   6.897   2.929   3.953 -0.2000  0.0605  0.0611
30661W        W44075  10.690  14.704  12.572 -0.1048 -0.1269  0.1216
30662W        W44076   2.418   1.706  16.632 -0.1182 -0.0730  0.1476
30663W        W44077  16.216  14.948   0.940 -0.1014  0.1247  0.2846
30664W        W44078  17.032  13.363  13.412  0.0784  0.0440  0.0069
30665W        W44079  14.018  10.572  13.050  0.1627  0.1178  0.0196
30666W        W44080   3.391   9.242   2.690 -0.0768  0.0821 -0.1379
30667W        W44081   9.426   4.418  15.328  0.0737  0.3556  0.3128
30668W        W44082  11.012   8.467   1.228 -0.1460 -0.1642  0.0247
30669W        W44083  14.275   6.868  15.420 -0.1856  0.1093  0.0682
30670W        W44084  15.663  12.133  13.976 -0.1746 -0.0296 -0.1069
30671W        W44085   7.687   5.716  14.203  0.3078 -0.1830  0.0049
30672W        W44086  16.938  14.081   3.155  0.0020 -0.2505 -0.1003
30673W        W44087  11.298   1.638   3.241 -0.0585  0.0178  0.1684
30674W        W44088   5.230  10.129  14.687 -0.0689 -0.0739  0.0829
30675W        W44089  11.149   1.659   2.765  0.0973  0.2597  0.0008
30676W        W44090   9.384   8.914   6.561  0.0942  0.0567  0.1207
30677W        W44091   2.938   4.365   3.695 -0.3095 -0.1562  0.1747
30678W        W44092  12.958   4.191   5.979  0.0065  0.2884 -0.0153
30679W        W44093  12.556  13.659  16.166 -0.0317 -0.1369  0.2718
30680W        W44094   6.200   2.570  11.934 -0.4115 -0.0697  0.0868
30681W        W44095   9.673   1.422  14.038 -0.0113  0.0171 -0.1911
30682W        W44096   8.287  10.699   2.842 -0.3577 -0.3688  0.2721
30683W        W44097   6.767   6.237   3.924 -0.1604  0.0796  0.2527
30684W        W44098   3.521  16.702   3.800 -0.1209  0.0698 -0.2043
30685W        W44099  15.138   5.176  11.871  0.1985 -0.2133 -0.0818
30686W        W44100  15.895  12.019   0.951  0.0804  0.0851  0.0798
30687W        W44101   9.055   5.623  16.287 -0.1568 -0.2896  0.0923
30688W        W44102   5.973  13.678  14.166  0.0578  0.0391 -0.4012
30689W        W44103   6.359  11.077   0.101 -0.1000 -0.2861 -0.1490
30690W        W44104  14.266   9.558   6.824 -0.1747  0.1040  0.0485
30691W        W44105   0.534  10.362   4.353 -0.1038 -0.0274  0.0338
30692W        W44106   6.005   9.511  12.618 -0.1046 -0.3542  0.1130
30693W        W44107  16.339  17.472   6.253 -0.3640  0.4778  0.2751
30694W        W44108  12.550  13.194  12.712 -0.1813  0.2805  0.0463
30695W        W44109   3.089   5.962   6.086 -0.1155 -0.1941  0.0705
30696W        W44110   1.148   1.221  13.173  0.1553 -0.0709  0.1082
30697W        W44111  16.418  10.220   1.647 -0.0731  0.2072 -0.1297
30698W        W44112   3.409  11.102   5.029 -0.0304 -0.0128 -0.0330
30699W        W44113   4.718  10.159   3.519 -0.3214  0.5427 -0.2188
30700W        W44114   1.617   1.903   4.180  0.3248  0.0409  0.2330
30701W        W44115  14.030  16.821   1.160  0.4195 -0.1856  0.0280
30702W        W44116   5.360   0.554  16.418  0.2649  0.0011 -0.0267
30703W        W44117   1.379   7.695   4.819 -0.0690 -0.0349 -0.2257
30704W        W44118  12.040   3.568  12.771 -0.0401 -0.1218 -0.0235
30705W        W44119   9.581   9.468  11.301 -0.0879 -0.0688  0.0800
30706W        W44120  15.825   4.110   4.092  0.2584 -0.0726  0.1108
30707W        W44121  15.346   7.360  15.708  0.3517 -0.1939  0.1385
30708W        W44122   6.327   9.306  15.886 -0.0608  0.3866  0.2107
30709W        W44123  15.298   9.789  16.503  0.0044 -0.0439 -0.0409
30710W        W44124  12.965   5.622  13.357 -0.0177  0.0366  0.1236
30711W        W44125  17.484  13.620   0.723  0.1320 -0.2787  0.3820
30712W        W44126   4.632  13.883  15.058  0.2850 -0.1781  0.4226
30713W        W44127  14.001   3.998  11.810  0.2574 -0.1898 -0.1577
30714W        W44128  14.680  15.681   5.714 -0.1236  0.1269 -0.1422
30715W        W44129  15.479  17.074   4.393 -0.0170 -0.0777 -0.0922
30716W        W44130   1.131   0.964   3.159  0.0207 -0.2558  0.1760
30717W        W44131  10.265  14.339  14.923 -0.0335 -0.1783 -0.1397
30718W        W44132   3.700   4.494  15.429 -0.2215 -0.1061  0.1277
30719W        W44133  17.929   3.240  10.494 -0.2589  0.0589  0.3912
30720W        W44134  17.092   9.375   2.596 -0.0707  0.0631  0.1191
30721W        W44135   9.876   5.026   1.151  0.0648 -0.2440 -0.0121
30722W        W44136  11.501   9.304   1.592  0.1463 -0.1943  0.1021
30723W        W44137   8.682  12.527  11.455  0.0646 -0.2238 -0.1457
30724W        W44138   0.937  11.482   5.215  0.0115  0.3257  0.0738
30725W        W44139  17.377  10.580   5.577  0.1337 -0.0729 -0.0034
30726W        W44140   6.429   5.029  16.622  0.0354 -0.2542  0.0521
30727W        W44141  16.585   5.691   3.441 -0.0062  0.0039 -0.0546
30728W        W44142  15.781   7.626   3.332  0.1329  0.2410  0.3440
30729W        W44143  16.829   4.351   1.533  0.0568  0.0633  0.1772
30730W        W44144   7.519   0.133   2.645  0.0265 -0.0227  0.2133
30731W        W44145   8.480  15.044  11.266  0.0009 -0.0886  0.0452
30732W        W44146  15.460   5.555  13.516 -0.1770  0.1342 -0.1058
30733W        W44147   0.463   8.396  14.716  0.0430 -0.1302 -0.0117
30734W        W44148  11.318  15.429   0.598 -0.5771 -0.0045  0.2746
30735W        W44149  14.218   4.762   3.459 -0.1138  0.0035  0.1742
30736W        W44150   4.082  14.851  15.060 -0.0096 -0.2561  0.0682
30737W        W44151  13.890   9.742   6.372  0.2111  0.1158  0.2395
30738W        W44152   3.270  16.847   4.688  0.1632 -0.2183  0.3393
30739W        W44153   0.143  10.063  14.615 -0.0630  0.0764  0.3437
30740W        W44154   0.976   9.839  10.855  0.0877  0.2415  0.1500
30741W        W44155   8.301  13.477  11.888 -0.0338  0.1005  0.0268
30742W        W44156  16.869  11.424  14.268 -0.0817  0.2747  0.1060
30743W        W44157   3.966  10.488  11.023 -0.1469 -0.0964 -0.0806
30744W        W44158   3.240  13.150   5.672  0.2363  0.0633 -0.1009
30745W        W44159   8.475   7.563   5.533 -0.1047 -0.2194  0.1019
30746W        W44160  12.687  17.715  16.689 -0.0007  0.0789  0.0528
30747W        W44161  16.909   5.299   1.422 -0.0662  0.4290  0.1730
30748W        W44162   6.898  10.790   2.414  0.0229  0.0318  0.2002
30749W        W44163   6.642   8.326  13.876  0.2219 -0.0288  0.2088
30750W        W44164  13.145   1.494  15.080  0.1463  0.0063  0.2133
30751W        W44165  12.190   8.346   4.124 -0.0694  0.0659 -0.2094
30752W        W44166   5.345   3.267  16.206  0.2370  0.1899  0.1260
30753W        W44167  10.978   0.598   3.586 -0.3868 -0.2655  0.1539
30754W        W44168   7.175   0.472   2.823  0.0403 -0.1017  0.1835
30755W        W44169   8.905   1.028   3.509 -0.2606  0.2171  0.1715
30756W        W44170  15.941   1.197  12.485  0.1190  0.0971 -0.0218
30757W        W44171  12.673  11.005   1.995  0.1434  0.0658 -0.0596
30758W        W44172  15.035   2.402  10.439  0.1302  0.0174  0.2553
30759W        W44173   1.028  13.703   1.480  0.0355 -0.2743  0.2131
30760W        W44174  14.191   3.230  14.139  0.0900 -0.1837  0.1945
30761W        W44175  15.473  15.463  15.261 -0.0161 -0.3116 -0.2129
30762W        W44176   3.533  14.134  11.930 -0.2850  0.3109 -0.1416
30763W        W44177   0.437   0.907  16.487  0.0756 -0.2363 -0.2926
30764W        W44178   4.825   8.717   3.131 -0.2382 -0.1905  0.2676
30765W        W44179   2.032   8.170   5.878 -0.0774  0.0945  0.4116
30766W        W44180   6.594  13.806   4.532  0.2578  0.0107 -0.0711
30767W        W44181   8.499  13.964   6.672  0.2260 -0.0734  0.1870
30768W        W44182  15.557   6.717  16.546 -0.0815  0.3994 -0.0273
30769W        W44183  14.182   9.784   3.540 -0.2030 -0.3788  0.0361
30770W        W44184  17.994  16.846   5.810 -0.2147 -0.0683  0.0876
30771W        W44185  16.936   0.428  13.971 -0.2058 -0.2927 -0.2341
30772W        W44186  10.356   0.744  11.830  0.1598  0.1910  0.0285
30773W        W44187   1.738   1.011   1.919 -0.2243  0.1497 -0.0672
30774W        W44188   1.314  14.757   3.473 -0.1223 -0.1236  0.1801
30775W        W44189   5.163   1.373  12.103  0.4150 -0.1696 -0.0849
30776W        W44190   2.888  11.184   1.598  0.0595 -0.1757 -0.2228
30777W        W44191  14.063  10.541   7.036 -0.0402 -0.3199 -0.1825
30778W        W44192   0.302  16.993  14.288 -0.0381 -0.2173  0.0485
30779W        W44193   0.940   4.756  15.392 -0.1438  0.2752 -0.0438
30780W        W44194  16.492  13.814  11.378  0.1226 -0.1070 -0.1612
30781W        W44195  16.699   0.406  11.424 -0.0215 -0.0862 -0.0804
30782W        W44196   2.274  17.325   5.650 -0.0450 -0.0279 -0.1099
30783W        W44197   3.907   2.028   0.667 -0.3872  0.0475  0.2450
30784W        W44198   3.795  10.238   2.271 -0.1127  0.1236  0.1290
30785W        W44199   0.140   6.467  12.813  0.1611  0.0287 -0.0176
30786W        W44200  15.841   6.960   4.641 -0.0609  0.0611 -0.0207
30787W        W44201   4.735  14.253  14.709  0.2294  0.1283  0.1090
30788W        W44202   1.080   2.034   2.887  0.0009  0.0932  0.2209
30789W        W44203   6.710   2.256  11.288 -0.4336 -0.1783 -0.2085
30790W        W44204   1.584   8.334  11.783  0.2896 -0.2917  0.1773
30791W        W44205  17.658   5.669   1.616 -0.1290  0.0287 -0.3082
30792W        W44206   4.409   5.350   0.253 -0.1934 -0.0268  0.0028
30793W        W44207  16.347   6.842   4.592  0.1427  0.1097 -0.0876
30794W        W44208  12.508  12.471  12.402  0.0122 -0.2226 -0.1631
30795W        W44209  11.937  12.432   5.063 -0.1593  0.1292 -0.0794
30796W        W44210   1.126   5.947  13.138  0.0390 -0.1337 -0.0945
30797W        W44211  15.695  13.376   2.863 -0.1352  0.2458 -0.0127
30798W        W44212  14.381   7.334   5.941  0.3127 -0.0248 -0.3016
30799W        W44213   8.035  12.991   0.842  0.1275  0.2156 -0.1062
30800W        W44214   1.273  14.740   4.752  0.1990  0.1054 -0.1278
30801W        W44215   8.570   8.831  14.559 -0.1109 -0.0209  0.0365
30802W        W44216  17.266   5.128   3.216  0.1755  0.4101  0.2780
30803W        W44217  15.033  17.408  12.648  0.0477 -0.1933  0.1310
30804W        W44218  15.897   2.701  11.247  0.1759  0.0147  0.1674
30805W        W44219   9.075   2.964  15.646  0.0029 -0.1623 -0.1204
30806W        W44220   3.464   1.853  12.145 -0.1281 -0.2032  0.3401
30807W        W44221  16.525   0.513   2.646  0.2270 -0.1419 -0.2741
30808W        W44222   7.874   2.164   4.353  0.0725 -0.1838  0.1098
30809W        W44223   1.553  14.461   5.530 -0.3093 -0.0779  0.0488
30810W        W44224   8.410   0.333  16.175  0.1023 -0.0782 -0.0960
30811W        W44225  17.896  11.392  12.005 -0.0255 -0.0805 -0.0372
30812W        W44226  15.110  11.031   1.145  0.3726 -0.1538 -0.0063
30813W        W44227   0.853   0.838  10.640 -0.0510 -0.0771 -0.0866
30814W        W44228  11.082  16.996  11.565  0.0411 -0.2213  0.0601
30815W        W44229   8.974   9.162  16.126 -0.1602  0.1474  0.0426
30816W        W44230   8.604  17.797   0.651  0.1055 -0.0298 -0.2505
30817W        W44231  15.678  11.620  16.739  0.1757  0.0285  0.0344
30818W        W44232   4.826  12.546  15.783  0.2171 -0.0610  0.0996
30819W        W44233   0.074  13.614  14.484  0.1052  0.0288 -0.0893
30820W        W44234   0.686   0.719  12.070 -0.0976 -0.0600 -0.4851
30821W        W44235   0.140   3.593   2.472 -0.0182 -0.2327  0.1125
30822W        W44236   7.740  14.701   5.403 -0.2828  0.3528  0.3688
30823W        W44237  13.196   0.897  16.652 -0.2548  0.2999 -0.0215
30824W        W44238   5.257   6.227  12.204  0.2951  0.2812  0.0243
30825W        W44239   8.827  14.337  16.349  0.0149 -0.0688  0.0612
30826W        W44240   8.345   0.456   3.775 -0.3873 -0.1489 -0.0253
30827W        W44241  12.779   5.494   6.360 -0.1412  0.0033 -0.0700
30828W        W44242   3.540  12.317   1.209 -0.0511  0.1714  0.1040
30829W        W44243   1.067  16.190   5.468  0.0621 -0.1826  0.0331
30830W        W44244   5.552  13.138  15.326 -0.1498 -0.1841  0.1731
30831W        W44245  13.870   4.515   2.705 -0.0799  0.0194 -0.0473
30832W        W44246   5.815   0.224  11.110 -0.0427  0.1009  0.0358
30833W        W44247  15.829   4.240  12.636 -0.0910 -0.0617  0.2621
30834W        W44248   1.162   7.351   2.737  0.0525  0.0555  0.0845
30835W        W44249  13.828  16.079   0.550  0.0459 -0.2429  0.1987
30836W        W44250   4.964   5.750  14.712  0.1821  0.1770  0.3478
30837W        W44251   2.167   7.468  11.113 -0.0457 -0.1244 -0.2018
30838W        W44252  11.550   2.936  11.864  0.2252  0.2728  0.3898
30839W        W44253   3.035  12.021   4.678 -0.0944  0.2999 -0.0661
30840W        W44254   3.218   3.364  11.596 -0.1220 -0.1189  0.0667
30841W        W44255  12.919   7.607  14.390  0.1452 -0.1400  0.1874
30842W        W44256   4.168   2.703  12.332 -0.0109  0.1732 -0.0703
30843W        W44257  15.647   5.726   5.223 -0.0526  0.1274 -0.1019
30844W        W44258   4.831   4.001   3.171  0.1970 -0.0214  0.2251
30845W        W44259  12.203  16.815   3.150  0.2484 -0.0882 -0.1835
30846W        W44260   4.905   8.822  12.179 -0.0195  0.0731  0.2460
30847W        W44261   7.528  10.277   2.898 -0.1452 -0.2112 -0.0615
30848W        W44262  15.954   0.922   4.655 -0.0382  0.4030  0.0225
30849W        W44263   8.427   8.403  15.887  0.0642  0.3083 -0.2427
30850W        W44264  10.509  14.656   3.214  0.1056  0.2055 -0.0302
30851W        W44265   3.523  16.067  10.385 -0.1769  0.2540  0.1021
30852W        W44266   3.518  15.984   2.371  0.0442 -0.1756  0.0479
30853W        W44267   4.253   0.983  14.160  0.1547  0.2748  0.0932
30854W        W44268   5.887  12.433   5.163  0.1705  0.3615 -0.0417
30855W        W44269   5.087   7.984  15.728 -0.1158 -0.3119  0.0979
30856W        W44270  13.342   7.514   2.337  0.0315 -0.0432 -0.2678
30857W        W44271   5.053  17.415   2.803  0.1255 -0.3104  0.1032
30858W        W44272  16.022   2.818  14.422  0.1381 -0.0332  0.1042
30859W        W44273   1.899  16.805   1.523  0.1859  0.1275 -0.1051
30860W        W44274   5.164   8.089   0.768  0.2445  0.0625 -0.0700
30861W        W44275   5.776   2.858  12.882 -0.1518  0.0499  0.3299
30862W        W44276  10.378  14.039  12.562 -0.0846 -0.2624  0.0291
30863W        W44277   0.290   3.149  11.784  0.2785  0.0040  0.0412
30864W        W44278  16.436   8.512  13.609  0.0105  0.1420  0.1549
30865W        W44279  17.894  10.289  15.800  0.1873 -0.0839  0.0400
30866W        W44280   4.134  16.343  14.366  0.3274  0.0513 -0.0022
30867W        W44281  13.420   4.551   1.418 -0.3160  0.0134  0.1216
30868W        W44282  15.507   7.455   0.940 -0.3036  0.1447  0.0017
30869W        W44283  14.201  14.496   6.585 -0.1344  0.1521 -0.1346
30870W        W44284  10.123   8.076   0.197 -0.0964  0.2844 -0.2031
30871W        W44285   0.654   7.035   1.270 -0.0470 -0.3648 -0.0572
30872W        W44286   6.839   2.821  14.688  0.0232  0.4178  0.0663
30873W        W44287  14.835  16.565  11.583 -0.0030  0.2113  0.0023
30874W        W44288  17.068   6.050   6.276  0.0355  0.0606  0.1359
30875W        W44289   8.821  12.075   3.727 -0.2635  0.1543 -0.0416
30876W        W44290   6.241   8.735   1.442 -0.0340  0.1200  0.2210
30877W        W44291   8.280   9.222  14.720  0.0659  0.1013  0.1882
30878W        W44292   9.643   8.533   4.362  0.0156  0.2642  0.3234
30879W        W44293   0.485  14.186   0.074 -0.0453 -0.0094 -0.2136
30880W        W44294  15.872   8.571   5.473  0.1867  0.0619  0.0510
30881W        W44295   5.843   7.567  15.613  0.0335  0.1993  0.0137
30882W        W44296   8.125   7.877  12.153  0.2226  0.1008 -0.1007
30883W        W44297   8.849   9.643  16.564  0.1054 -0.4238 -0.0419
30884W        W44298  16.033   0.607   2.392 -0.1521 -0.0890 -0.0864
30885W        W44299   0.401   2.743   5.023 -0.2164  0.2264 -0.4292
30886W        W44300   8.604  17.677   4.690 -0.0403  0.0450 -0.0487
30887W        W44301  13.453  14.479   5.387  0.2770  0.0886 -0.2425
30888W        W44302   2.433   0.631   3.528 -0.0414  0.2411  0.0690
30889W        W44303  16.106  12.755   5.043 -0.0632  0.2713 -0.3177
30890W        W44304   1.543   2.960   0.154  0.1407  0.1138 -0.2190
30891W        W44305   5.059  15.536   0.413 -0.2728  0.1744  0.0110
30892W        W44306   4.864  12.421   4.103 -0.0434  0.2952 -0.0030
30893W        W44307   0.563  17.908   2.992 -0.1626  0.0860  0.0694
30894W        W44308   4.418   7.270  16.684  0.0270 -0.3322 -0.0894
30895W        W44309   1.494   3.696  16.657 -0.0806 -0.0069 -0.0640
30896W        W44310  14.098   1.206   5.945 -0.1351  0.2942  0.1675
30897W        W44311  16.484  13.171   0.173 -0.0815 -0.0338 -0.0622
30898W        W44312   6.375   5.719  16.467  0.3135  0.2803 -0.1070
30899W        W44313  10.225   8.130  11.744  0.1433  0.0012  0.1818
30900W        W44314   6.190   8.189   5.151  0.1932  0.0471 -0.0285
30901W        W44315   7.377  11.074  15.381  0.0281 -0.1334 -0.0240
30902W        W44316   7.790  13.992  11.258 -0.1482  0.0284 -0.2789
30903W        W44317   8.165  17.699  13.289  0.3682  0.0078  0.2714
30904W        W44318   6.484  16.107   1.234  0.4606 -0.1809 -0.0020
30905W        W44319   0.660   0.606   0.068  0.3329 -0.1584 -0.1159
30906W        W44320  15.662  12.604  13.783 -0.0362 -0.0192 -0.0711
30907W        W44321  13.128   8.792   1.569  0.2389  0.1006 -0.1503
30908W        W44322   3.554   7.288  13.399 -0.0078  0.2265  0.0319
30909W        W44323   3.337   6.128  12.671  0.0936  0.3824 -0.1617
30910W        W44324  14.424  11.720   6.916 -0.0542  0.1784 -0.2271
30911W        W44325  17.570   4.126  13.953 -0.0142 -0.0959 -0.1378
30912W        W44326   5.584  11.520   1.431  0.1920 -0.4638 -0.0655
30913W        W44327   2.923   6.400  12.935  0.2570  0.1502  0.1133
30914W        W44328  12.853  12.883   5.145 -0.0450 -0.1694  0.0515
30915W        W44329   4.484  10.598   2.840  0.0972 -0.1055  0.0510
30916W        W44330   8.207  11.329  12.109  0.0453 -0.1610  0.1323
30917W        W44331  12.965   8.558   0.358 -0.0838 -0.0011  0.0988
30918W        W44332  15.642   5.106   2.601  0.2241 -0.1902 -0.0180
30919W        W44333   9.727  12.664   1.774  0.1741 -0.1320  0.0797
30920W        W44334   4.939   7.286   4.354  0.1051 -0.1595  0.6874
30921W        W44335  12.243  14.009   5.029  0.0976 -0.0555  0.1065
30922W        W44336  11.124  12.190  16.198 -0.0283 -0.1176 -0.1322
30923W        W44337  16.188  14.600  12.801  0.1626  0.1175  0.0867
30924W        W44338   5.684   3.378  16.546 -0.1710 -0.1561 -0.1148
30925W        W44339  14.626   2.305   3.829  0.0051 -0.1925  0.5799
30926W        W44340  16.183  14.516   4.519 -0.1965 -0.1288  0.1695
30927W        W44341  16.447  14.783   3.361  0.0446  0.0896 -0.0042
30928W        W44342  13.503  14.420   1.491  0.1204 -0.0556  0.3105
30929W        W44343   2.134   4.475  13.889 -0.1516 -0.3395 -0.1591
30930W        W44344   0.485  16.066   3.286 -0.2312 -0.0535  0.0277
30931W        W44345  14.074   5.277   3.583 -0.1609 -0.2620  0.0357
30932W        W44346   2.999   3.780   2.316 -0.0110  0.1399  0.0258
30933W        W44347  15.318   0.236   3.070 -0.0620  0.3304 -0.1723
30934W        W44348  14.156  15.231   3.509  0.1878 -0.1486  0.2164
30935W        W44349  17.937   0.449  10.810  0.1534  0.2613  0.0326
30936W        W44350  17.157  11.122  15.038  0.0855 -0.4088 -0.1664
30937W        W44351  12.660   9.055  12.633  0.2367 -0.0428  0.2665
30938W        W44352  14.951   6.613  12.396  0.0994  0.0203 -0.2343
30939W        W44353   6.163  12.783   2.581  0.2118  0.2947  0.0988
30940W        W44354   6.733  17.717   3.955 -0.3246 -0.1077  0.4012
30941W        W44355   1.611  12.653  12.915  0.5560  0.3599 -0.0863
30942W        W44356   7.630   7.082   1.042  0.1106  0.0599  0.0709
30943W        W44357  17.992   5.933   5.398 -0.0640 -0.0742 -0.0582
30944W        W44358   3.457   2.404  11.693 -0.1412  0.3476 -0.0057
30945W        W44359   0.334   3.685   2.949 -0.0822 -0.1595 -0.1431
30946W        W44360  10.267   4.864   3.231  0.0885 -0.2049 -0.0505
30947W        W44361   6.309   2.731   1.821 -0.2229  0.0837  0.0695
30948W        W44362   1.446  13.641  10.323 -0.2093  0.1757  0.1884
30949W        W44363   2.583   2.664  12.838 -0.1691  0.2014 -0.1622
30950W        W44364   5.329   5.230  13.198 -0.0865  0.2478 -0.2048
30951W        W44365   9.729   1.997  14.530 -0.5273 -0.0475  0.1769
30952W        W44366   2.300  15.605  16.732  0.2626 -0.1664  0.1477
30953W        W44367   2.520  16.450   5.802  0.1782  0.2025 -0.1782
30954W        W44368   8.083   4.868  10.817  0.1185 -0.1401  0.1389
30955W        W44369   4.295  17.246  13.069  0.3034 -0.3083 -0.3095
30956W        W44370  12.454   7.639   3.650 -0.0798 -0.3493 -0.1677
30957W        W44371   0.316   4.112  14.342 -0.1304 -0.3797 -0.0012
30958W        W44372  12.928  15.177   1.355  0.0836  0.3724 -0.0831
30959W        W44373   3.770   7.502  15.587  0.1481 -0.1135 -0.0910
30960W        W44374   8.627  10.590  10.634  0.0164 -0.0695  0.2091
30961W        W44375  16.622  11.494   0.272  0.0548  0.1171  0.1990
30962W        W44376  16.816  16.905   4.383 -0.2232  0.2969 -0.1645
30963W        W44377   3.796   1.505  14.734  0.1634  0.0090 -0.1917
30964W        W44378   4.888   0.963  13.616 -0.1337 -0.0938  0.2024
30965W        W44379  15.469  17.597  12.781  0.1272  0.0565  0.2056
30966W        W44380   6.837  13.399  14.835  0.1612 -0.1945  0.2809
30967W        W44381  11.727  16.949   1.705 -0.0284  0.1456 -0.1342
30968W        W44382   1.828  10.865  11.876  0.0494  0.4423  0.2306
30969W        W44383  15.755  17.083   3.027 -0.0870  0.0898  0.2863
30970W        W44384   6.900  14.591   3.650  0.0057  0.2400  0.0613
30971W        W44385  14.138  14.019  15.003 -0.0400  0.1604 -0.1744
30972W        W44386   0.974   0.645   1.028 -0.1098  0.0776 -0.1869
30973W        W44387  15.528   0.624   0.267  0.0996 -0.1767 -0.3408
30974W        W44388   2.625   6.488   2.534  0.0093  0.3533 -0.1391
30975W        W44389  17.460   7.684  14.958 -0.0526 -0.2279  0.1955
30976W        W44390   2.896  11.705   1.483 -0.2102 -0.1209 -0.0759
30977W        W44391  12.063  17.696  13.718  0.1120 -0.0181  0.3057
30978W        W44392  15.413   4.503   0.190  0.0395 -0.3284  0.0567
30979W        W44393   7.865   5.689  15.611  0.1238 -0.0709  0.1411
30980W        W44394  11.671  13.021   5.687  0.1229  0.0191 -0.3768
30981W        W44395  12.143   4.787   2.676  0.2507  0.0299 -0.2924
30982W        W44396   0.244  11.799   4.992 -0.0121 -0.2332  0.0356
30983W        W44397  11.622   0.316   3.411 -0.1378 -0.0610  0.0160
30984W        W44398   0.644  12.762   0.026 -0.0555  0.0218 -0.0380
30985W        W44399   7.902   4.580  13.892  0.3018 -0.0747 -0.0946
30986W        W44400   2.234   2.109   2.795 -0.0190  0.0746  0.1992
30987W        W44401   7.842   4.150   0.756  0.1784  0.0301  0.1376
30988W        W44402  14.101   0.164  12.205  0.1416  0.1147 -0.0756
30989W        W44403  10.261   4.435   4.647 -0.1390 -0.0926 -0.1478
30990W        W44404   8.800  17.899   3.115 -0.0883  0.2790  0.2567
30991W        W44405   8.145  14.865   4.431  0.0200 -0.2005 -0.3159
30992W        W44406   0.354   1.715   4.069 -0.0050  0.0651  0.1585
30993W        W44407   4.295   3.464  10.239 -0.0206 -0.0450 -0.0674
30994W        W44408   2.258   8.504   1.299  0.0470  0.2777 -0.4799
30995W        W44409  15.934  15.912  11.262  0.1192 -0.0298 -0.2154
30996W        W44410  16.809  17.384  12.864  0.2297  0.0291  0.2582
30997W        W44411  13.774  15.256   2.091  0.0867 -0.0474 -0.3102
30998W        W44412   5.490   4.945  10.990 -0.1346 -0.0568  0.0228
30999W        W44413   3.627  10.643  11.898  0.2940  0.0747 -0.0118
31000W        W44414  17.151  10.895  14.375 -0.1317 -0.0532  0.1728
31001W        W44415  13.555   5.607  13.625  0.0502  0.1415  0.1125
31002W        W44416   6.631   7.848  16.134 -0.0949  0.2693 -0.0245
31003W        W44417   1.338   9.368   2.043  0.1769  0.1831  0.3238
31004W        W44418  17.318  16.526   2.340 -0.4121  0.1531  0.0012
31005W        W44419  16.210   2.445   1.707  0.0743 -0.0063  0.0823
31006W        W44420  14.714  14.956   0.721 -0.0538 -0.0844  0.0960
31007W        W44421  17.696   6.003   1.046 -0.2379 -0.4733  0.0811
31008W        W44422  13.130  14.580   6.717 -0.0676 -0.1441 -0.3437
31009W        W44423   1.959  13.053   3.893 -0.1446  0.3827 -0.0460
31010W        W44424   0.152   8.556  11.289 -0.1659  0.1923 -0.1690
31011W        W44425  15.932   4.886   2.298 -0.1402 -0.0734 -0.3054
31012W        W44426   4.445  11.327   4.795  0.1174  0.0461  0.0892
31013W        W44427  14.795  14.372   1.212 -0.0012 -0.2451 -0.0315
31014W        W44428  14.075   0.355   5.618  0.1434 -0.1808 -0.2312
31015W        W44429  10.349  14.024   0.584  0.2060 -0.0074  0.2905
31016W        W44430   4.616   0.116   1.715  0.0896  0.0370 -0.0318
31017W        W44431   7.445   8.284   5.839 -0.1713 -0.1959 -0.2503
31018W        W44432   6.278  14.282  15.643  0.0393 -0.0085  0.1446
31019W        W44433   3.106   2.596   1.489 -0.0219  0.4180 -0.0804
31020W        W44434  13.439  10.805   5.945  0.0465  0.3226  0.1861
31021W        W44435   1.698   5.104   0.642  0.0809  0.0520  0.1490
31022W        W44436   2.891   7.215   0.843 -0.0900  0.2122  0.0166
31023W        W44437  16.084   4.964  11.640 -0.1150  0.2548 -0.0429
31024W        W44438  11.727  14.191  11.395 -0.0752  0.1112  0.2842
31025W        W44439   2.647  17.013  15.252 -0.1317  0.0901  0.1194
31026W        W44440  13.284   4.026   3.242  0.0466  0.3121  0.0392
31027W        W44441  14.769  16.718   5.731 -0.0597 -0.0317 -0.1062
31028W        W44442   2.663   6.195  11.566  0.0669  0.0605  0.1730
31029W        W44443   0.142   4.720  16.610 -0.2971  0.0901 -0.0340
31030W        W44444  16.724   7.098  15.534  0.0467  0.1979 -0.0612
31031W        W44445  14.425  14.756   5.336 -0.0228  0.1214  0.1960
31032W        W44446   2.729   5.450  13.770  0.3335  0.0641  0.3189
31033W        W44447  12.911   2.107  13.212 -0.2515 -0.0198  0.0842
31034W        W44448   8.660  17.368   3.123  0.2073  0.0760  0.0503
31035W        W44449   8.055   7.118   3.032 -0.0475  0.2615 -0.1057
31036W        W44450   0.177   7.185  11.529 -0.3290  0.3131  0.2429
31037W        W44451  14.289  13.729  12.138  0.1728 -0.0416  0.1598
31038W        W44452   0.405   1.057  13.881 -0.2628  0.0149 -0.3850
31039W        W44453   8.523   7.520  14.858  0.1714  0.0425  0.3951
31040W        W44454  14.462   2.584  10.375 -0.1525  0.0532  0.0535
31041W        W44455   0.634  17.949  10.638 -0.2027 -0.0613  0.2270
31042W        W44456   0.483   3.804   4.471 -0.1653  0.0929 -0.0799
31043W        W44457  15.040  14.803   3.791  0.1014  0.1108  0.3468
31044W        W44458   8.139   6.410   2.334  0.0548  0.0456 -0.2327
31045W        W44459   5.293  16.870  12.231 -0.1054 -0.0146 -0.1193
31046W        W44460   3.294   6.378   3.742  0.0689  0.1696  0.1678
31047W        W44461   9.283   2.771  13.560  0.1341  0.4750 -0.3131
31048W        W44462  15.581   0.069   5.365 -0.0951  0.1670 -0.0645
31049W        W44463  12.634   2.800  15.728  0.0427 -0.0067  0.0924
31050W        W44464  16.993  16.432   2.738 -0.0448  0.1074 -0.0440
31051W        W44465  14.271   2.784  15.881  0.0816  0.0928  0.0615
31052W        W44466  17.541   8.361   5.962  0.0541  0.2410 -0.2972
31053W        W44467  17.927  17.854  16.082  0.0247 -0.1279 -0.1648
31054W        W44468   9.564   4.439   2.722  0.0708 -0.0102  0.2239
31055W        W44469   0.072   1.487  13.833 -0.2208  0.0556  0.1404
31056W        W44470  13.415   2.589   5.561 -0.2304 -0.1431 -0.1465
31057W        W44471  11.570  11.705   3.968 -0.2824  0.0081  0.2922
31058W        W44472  10.399  16.441   5.179  0.1754  0.1708 -0.1191
31059W        W44473   8.168  16.382   0.231  0.3232  0.0749 -0.1088
31060W        W44474  13.454  12.314   6.023 -0.1720 -0.0206 -0.0696
31061W        W44475   7.889   0.828  13.260 -0.1173  0.0252 -0.0794
31062W        W44476   2.399   4.483   3.658 -0.2159 -0.3742 -0.1803
31063W        W44477  15.284  14.274  11.753 -0.3982 -0.1163 -0.0606
31064W        W44478   9.646   8.746   5.597 -0.3129  0.0818 -0.0946
31065W        W44479  17.121   7.857  13.272  0.1854  0.0783  0.1386
31066W        W44480   7.426   4.836  11.457  0.1197 -0.0363 -0.0360
31067W        W44481   4.735  11.793   0.537 -0.3846  0.1403 -0.2218
31068W        W44482  10.353  15.269   4.219 -0.1048 -0.0935 -0.2815
31069W        W44483  16.264   8.631  10.946 -0.2061  0.0223  0.0271
31070W        W44484   5.769   2.920   0.541 -0.2083 -0.2148 -0.4042
31071W        W44485   9.430   0.240   0.445 -0.2097  0.1282 -0.3246
31072W        W44486  14.519   8.487  11.339  0.0506 -0.1342 -0.1340
31073W        W44487   0.409  11.242  14.140 -0.0836  0.2760 -0.0101
31074W        W44488   4.795   4.589   4.988  0.1486 -0.3691  0.1042
31075W        W44489  11.175   8.116   4.919 -0.1258 -0.1132 -0.1023
31076W        W44490  12.311  15.383  13.523  0.0045 -0.0411  0.1837
31077W        W44491   0.429  14.314   3.182  0.0340  0.1318  0.1421
31078W        W44492  11.589  11.938  11.515 -0.1134  0.1158  0.1738
31079W        W44493   8.106   2.971   2.322 -0.0887 -0.1604  0.3678
31080W        W44494   2.187   3.073  13.560  0.1885 -0.0921  0.0168
31081W        W44495   4.846   8.250   3.194  0.2777  0.2050  0.0865
31082W        W44496  17.893   6.203   0.588  0.0315  0.0066  0.1206
31083W        W44497  10.233   9.601  12.614 -0.1899  0.1232  0.0353
31084W        W44498   2.770  14.796  10.682  0.0614 -0.5386  0.1454
31085W        W44499   9.914   5.432  16.101  0.0578  0.2020 -0.1554
31086W        W44500   4.828   6.683  13.191 -0.2543  0.0302  0.1046
31087W        W44501   0.726   6.124   0.221  0.0404 -0.0608 -0.3082
31088W        W44502   6.015   1.384   1.922 -0.0993 -0.1257  0.3337
31089W        W44503  13.130   7.448  13.494  0.2802  0.0037 -0.0220
31090W        W44504   9.977   6.334   0.997  0.3067 -0.0941  0.0737
31091W        W44505   6.486  17.392  15.019  0.0619  0.3267  0.1085
31092W        W44506  15.691   0.689  12.853 -0.1520 -0.1064 -0.0653
31093W        W44507  15.216  16.691  14.029 -0.2432 -0.0699  0.0578
31094W        W44508   8.621   6.273   3.440 -0.0458 -0.1006  0.0636
31095W        W44509   4.135   9.373  12.331  0.0068  0.0241  0.3549
31096W        W44510   8.722   9.431  12.258 -0.0790  0.3740 -0.0211
31097W        W44511   7.037   3.409   0.806 -0.0948 -0.3026  0.1145
31098W        W44512   9.728  17.747  13.163  0.0724 -0.0470  0.0052
31099W        W44513  13.229   0.268  16.083 -0.0572  0.0411  0.1175
31100W        W44514   0.651   5.428   5.024 -0.0307  0.3682  0.2204
31101W        W44515   4.659   9.250  14.238  0.0915  0.0916 -0.0896
31102W        W44516   2.184  15.155  12.527 -0.1966 -0.0018 -0.0421
31103W        W44517  10.559   6.369   3.374 -0.2143  0.0731  0.3296
31104W        W44518   9.592   4.560  14.865 -0.0762 -0.0098 -0.2665
31105W        W44519   5.212   3.967   5.510  0.1982  0.0366  0.2930
31106W        W44520  11.149  14.914  15.803  0.1255 -0.2654 -0.0289
31107W        W44521   4.787   6.558   4.685  0.0090  0.0217  0.0028
31108W        W44522   4.830  14.744  15.363  0.0664  0.3214  0.0954
31109W        W44523  13.254   7.257   4.253  0.2685 -0.2068 -0.1839
31110W        W44524   7.059  16.798  11.373  0.0926  0.0444 -0.1014
31111W        W44525  16.765   4.257   4.739  0.1734 -0.0846  0.1312
31112W        W44526   4.747  15.642   4.354 -0.1969  0.1893  0.0495
31113W        W44527   4.232   6.492   0.813 -0.1465  0.0259 -0.1584
31114W        W44528   9.014   2.155  12.885 -0.0738  0.0423  0.0521
31115W        W44529  12.030  12.646  13.278  0.1279 -0.1631  0.2348
31116W        W44530  10.135  10.674   1.683  0.0136  0.2693  0.2116
31117W        W44531  13.784   9.316   4.487 -0.1254 -0.1159 -0.1184
31118W        W44532   0.640  15.352  15.231 -0.0649 -0.1701  0.1692
31119W        W44533  16.832  17.031  10.151 -0.0798  0.3129 -0.0773
31120W        W44534   1.589   7.973  12.820 -0.0553 -0.0494 -0.0302
31121W        W44535   2.006  15.605  13.060  0.1178 -0.1936  0.1095
31122W        W44536  13.568   2.949  15.339 -0.2232 -0.1688 -0.0620
31123W        W44537   5.111   2.414   2.723 -0.0034 -0.0877 -0.3306
31124W        W44538   1.656   0.606  14.489 -0.0397 -0.2015 -0.1122
31125W        W44539   1.653   5.881   1.398 -0.1779 -0.0967  0.0782
31126W        W44540   8.639  12.585   4.006 -0.0499 -0.0403 -0.0339
31127W        W44541   4.067  11.560   2.744 -0.2837 -0.1848  0.2803
31128W        W44542  11.930   3.068  10.478 -0.2832 -0.1113 -0.2923
31129W        W44543   7.299  13.079  14.418 -0.0631 -0.2368  0.4460
31130W        W44544   1.368   4.056  12.016  0.1665  0.2363  0.0743
31131W        W44545   1.158  15.000   2.518 -0.1463  0.0703  0.3480
31132W        W44546   0.983   5.128  15.105  0.1508  0.0521 -0.0743
31133W        W44547   3.626  11.613  12.964  0.0433 -0.1323  0.1799
31134W        W44548   4.599   8.285  11.654  0.2147  0.0879 -0.0529
31135W        W44549  15.072  17.948  12.971  0.0557 -0.3205 -0.2040
31136W        W44550  14.092  13.137   0.304 -0.1571 -0.3284 -0.1940
31137W        W44551   6.250   4.746  12.121 -0.1412 -0.0937 -0.1007
31138W        W44552   7.021   8.174   4.797  0.0591  0.2476  0.1091
31139W        W44553   1.593  15.939  16.520  0.4142 -0.0266 -0.1881
31140W        W44554  11.538   9.442  16.360  0.0676 -0.1626 -0.2298
31141W        W44555  13.759   5.485   4.638 -0.1283 -0.0717 -0.3835
31142W        W44556   9.910  16.464   5.079 -0.3131  0.1000 -0.0879
31143W        W44557  15.606   5.648  14.348  0.0018 -0.3270  0.3294
31144W        W44558   2.394   3.786  14.316  0.1335  0.4958 -0.1368
31145W        W44559  16.326   1.063  12.102  0.3163 -0.2039 -0.2741
31146W        W44560  11.371  12.964  12.654 -0.1411  0.0727 -0.1128
31147W        W44561   4.902   7.145  13.912  0.3578  0.0159 -0.3545
31148W        W44562   7.149   0.383   1.720 -0.0187  0.1333  0.0085
31149W        W44563   4.270  10.469  12.674  0.3488  0.2704  0.3170
31150W        W44564   2.290   3.221   1.977 -0.1935  0.1140 -0.1645
31151W        W44565  14.698  13.493   2.979 -0.0339 -0.0682  0.4392
31152W        W44566  17.749   3.255  14.844  0.0448  0.1567  0.1289
31153W        W44567   2.311   3.265   1.458 -0.2191  0.1896  0.1567
31154W        W44568   1.874  14.816   4.058  0.0290 -0.1534 -0.1580
31155W        W44569   1.793   7.394   4.529  0.1538  0.2158 -0.1800
31156W        W44570  15.717   2.018  14.417  0.0207 -0.2784 -0.0913
31157W        W44571  13.715  16.530  13.185 -0.2198  0.2625 -0.2002
31158W        W44572  12.288  14.302   4.457  0.3191 -0.0655 -0.0549
31159W        W44573  11.740   5.846   3.509  0.0880 -0.0229 -0.0590
31160W        W44574   7.483  12.408   2.776 -0.1202  0.2178  0.1409
31161W        W44575   4.926   5.406  12.891  0.0101 -0.0810  0.1216
31162W        W44576  16.917   8.635   0.360  0.0839 -0.1432  0.1568
31163W        W44577   3.932  15.724  13.949  0.1163 -0.0273  0.1045
31164W        W44578   4.709   9.647   2.844  0.0418 -0.0664 -0.2206
31165W        W44579  16.134   7.051   6.227  0.0804  0.0093  0.0693
31166W        W44580   5.842  15.749  10.908 -0.0582 -0.3293 -0.2535
31167W        W44581  11.117   3.234   0.836 -0.1222  0.0938 -0.0255
31168W        W44582   6.398   8.701  11.745 -0.2210  0.0641 -0.1909
31169W        W44583  13.469   5.802   1.685  0.0097 -0.1148 -0.2712
31170W        W44584   1.088  10.586   3.829  0.2142  0.0891 -0.1760
31171W        W44585  10.594  16.697   0.511 -0.1568 -0.0338  0.0565
31172W        W44586  14.004  10.169   5.528  0.1747  0.1122  0.1204
31173W        W44587   8.024   4.270  15.444 -0.0067  0.1108 -0.2359
31174W        W44588   3.332  15.886  12.453 -0.2124 -0.0855 -0.0350
31175W        W44589  11.566   9.697   2.747 -0.0596 -0.2203 -0.0478
31176W        W44590   1.770   5.689  12.543  0.0952  0.0462  0.0334
31177W        W44591   2.374   1.163  12.087  0.0186 -0.0692  0.1419
31178W        W44592   9.565   4.993  11.037 -0.0622  0.2139 -0.1054
31179W        W44593   8.330   5.859  12.880  0.2070  0.0103  0.1123
31180W        W44594   8.078  16.777   2.127 -0.2073  0.1868 -0.0468
31181W        W44595  11.196  17.025   1.497  0.1553  0.1819  0.2880
31182W        W44596   1.330  14.260  14.363  0.0928  0.1034 -0.2170
31183W        W44597   3.598  14.310   3.059  0.1050 -0.3869  0.2993
31184W        W44598  10.271  10.338  14.363 -0.0457  0.2197 -0.0829
31185W        W44599  12.034   2.089  16.380 -0.0379  0.3176 -0.0008
31186W        W44600   9.854  13.516   6.043  0.0066  0.0795 -0.1182
31187W        W44601  15.858  11.666  11.131  0.0443  0.1760 -0.0249
31188W        W44602  14.433  14.902   3.211 -0.0957  0.2098  0.0569
31189W        W44603  10.199   6.395  16.030  0.1452  0.1276 -0.3491
31190W        W44604   4.850   1.936  15.229  0.0927 -0.2405 -0.1695
31191W        W44605  11.403  14.505  12.661  0.1744 -0.0098 -0.0072
31192W        W44606   6.041  11.138  13.994 -0.1325  0.3131 -0.0927
31193W        W44607   9.965   0.239   3.636 -0.1280 -0.2381 -0.0627
31194W        W44608  13.907  12.869  11.021  0.0738  0.0978  0.2290
31195W        W44609  16.326  17.533   2.539  0.0237  0.0278  0.1235
31196W        W44610  17.387   0.304   2.700  0.1737  0.1574  0.0058
31197W        W44611  14.381   0.803  16.707  0.1440  0.0450 -0.0063
31198W        W44612  17.258  17.554  12.449  0.2659  0.1645  0.0953
31199W        W44613   1.237   5.262  14.278 -0.1683  0.0060 -0.0913
31200W        W44614  17.505   3.009   0.260  0.0205  0.0658 -0.1689
31201W        W44615  17.018   1.913   1.945  0.1924 -0.2054  0.0670
31202W        W44616  17.366   6.936   2.867  0.2254 -0.1452 -0.1576
31203W        W44617   3.624   3.922  16.210 -0.0064 -0.1719  0.0632
31204W        W44618  16.265   9.133   6.136 -0.0153 -0.0751 -0.1290
31205W        W44619  17.087  11.564  14.792  0.1883 -0.1464  0.0087
31206W        W44620  12.990   7.659   5.618 -0.1742  0.1356  0.2322
31207W        W44621   6.771   4.900   2.452 -0.0322 -0.0253 -0.1950
31208W        W44622   7.049  10.583  14.264 -0.0838  0.0143 -0.1252
31209W        W44623  15.104  13.193   2.140  0.1640  0.1574 -0.3811
31210W        W44624   6.632   9.077   0.247 -0.0183 -0.0199  0.1396
31211W        W44625   7.381   0.465  15.146  0.0541 -0.1819  0.4364
31212W        W44626   8.833  17.120  11.920  0.1471 -0.0311  0.0867
31213W        W44627   5.817   2.729   2.198 -0.0158 -0.0343 -0.0349
31214W        W44628  17.058   6.106  11.162  0.1886  0.3025 -0.2523
31215W        W44629  16.740   1.191  12.431 -0.1504  0.0442  0.0854
31216W        W44630   0.311   0.316   3.132  0.3748  0.0400 -0.0490
31217W        W44631   3.836  16.290  16.234  0.2156 -0.1404 -0.0845
31218W        W44632   7.830   6.452   0.381 -0.2273 -0.0172  0.1855
31219W        W44633   5.985  12.766   3.561  0.2250  0.1854  0.0739
31220W        W44634   4.490   8.527   3.891  0.0935 -0.0239 -0.0167
31221W        W44635  11.604   9.730  15.468 -0.2165  0.2567 -0.1855
31222W        W44636   0.341  15.819   4.854  0.0775 -0.0503 -0.0524
31223W        W44637   8.977   0.152  12.793 -0.0421 -0.0630 -0.2512
31224W        W44638   6.810  16.869   3.612  0.0680  0.1820  0.2163
31225W        W44639  10.046  17.088   3.906 -0.1260 -0.1570 -0.0113
31226W        W44640   7.462  17.429   5.115 -0.1289 -0.0678  0.0446
31227W        W44641   3.231  13.819   0.126 -0.2533 -0.3831 -0.0856
31228W        W44642   6.546   6.551  13.170 -0.1645 -0.2528  0.1162
31229W        W44643  14.699  17.843   1.646 -0.1746 -0.1045 -0.3880
31230W        W44644  15.811   1.934   3.427 -0.0122  0.0398 -0.0139
31231W        W44645   1.002  16.742  14.602 -0.5023 -0.2954  0.0133
31232W        W44646  10.438  14.652  16.318 -0.2439 -0.1160  0.0313
31233W        W44647  13.549   7.171  13.657  0.0007 -0.1262 -0.0379
31234W        W44648  15.136   7.684   2.989  0.3367  0.0791  0.1395
31235W        W44649  11.756  15.422  15.165 -0.2120  0.0135 -0.0236
31236W        W44650  11.266   2.495  13.585 -0.4157  0.1157 -0.1778
31237W        W44651  11.422  15.384   2.434 -0.0290 -0.2449 -0.1806
31238W        W44652   3.522  17.445  16.653  0.0028  0.2789  0.0285
31239W        W44653   8.440   7.722   4.290  0.0496 -0.3712  0.0798
31240W        W44654   6.837   3.216  15.574  0.2110  0.1783  0.2538
31241W        W44655  11.245   0.257  12.572 -0.1686  0.0873 -0.1395
31242W        W44656   8.941   2.972  16.149 -0.2076  0.0294  0.0171
31243W        W44657   5.672  14.627  11.997  0.0993 -0.1271 -0.1600
31244W        W44658   1.193   1.412  11.672 -0.0652  0.1717  0.1965
31245W        W44659  10.822  16.768   4.939 -0.0631  0.0157  0.1361
31246W        W44660   8.458   1.880   5.410 -0.0092 -0.0633 -0.1061
31247W        W44661  11.665   1.828   1.762  0.1656  0.0658  0.1479
31248W        W44662   2.856   0.391   3.884 -0.0727 -0.1230 -0.0124
31249W        W44663  10.680   1.675  12.581 -0.2617 -0.2291 -0.0854
31250W        W44664   6.389  11.896  13.568  0.3482 -0.0177 -0.1977
31251W        W44665  10.910   5.645  14.130 -0.3745  0.0059 -0.0992
31252W        W44666   3.706   7.470  10.776 -0.0338 -0.1325 -0.1260
31253W        W44667   6.069   9.121   2.167  0.0261 -0.0002 -0.0558
31254W        W44668  11.787   9.464   3.426 -0.2953  0.0414  0.2471
31255W        W44669  15.254   8.023  14.459 -0.0047  0.0343 -0.1119
31256W        W44670   2.179   3.996  12.867  0.1504 -0.0283 -0.2320
31257W        W44671   6.656  12.184  11.740 -0.2064 -0.0264 -0.0148
31258W        W44672   8.612   1.874  11.305  0.0333 -0.0206 -0.2491
31259W        W44673  16.951   1.138   0.708  0.0193  0.0724 -0.2186
31260W        W44674   4.191  13.514   4.700  0.0526  0.0709  0.3345
31261W        W44675  11.638   7.216  11.038  0.1309  0.0744  0.2107
31262W        W44676   8.784  14.280  15.368 -0.0634  0.1696  0.0048
31263W        W44677   4.443   4.382   2.526  0.1946 -0.1451  0.1678
31264W        W44678  12.975   4.481   3.274  0.0202  0.4536  0.0130
31265W        W44679   2.667   3.801   0.675  0.0590 -0.1183 -0.0394
31266W        W44680   0.545   1.042   1.553 -0.0384 -0.2032  0.1708
31267W        W44681  13.074   2.536  13.493  0.3134 -0.0412 -0.0190
31268W        W44682  12.356  14.687  12.349 -0.0025 -0.3835  0.1177
31269W        W44683  11.628   9.182  15.299  0.1281  0.1202 -0.1484
31270W        W44684  12.461   8.810   1.069 -0.1669 -0.0373  0.2684
31271W        W44685   1.355   6.373   3.079  0.3220 -0.0167 -0.3329
31272W        W44686   0.859  13.246   0.262  0.0572  0.2213  0.4380
31273W        W44687   8.915  11.890  15.074  0.1797 -0.2868 -0.0765
31274W        W44688   4.438   3.458   2.316  0.1908  0.0983  0.1911
31275W        W44689   1.282   6.563  10.308  0.4157 -0.0019  0.2377
31276W        W44690   4.176   5.041  15.280  0.3045 -0.1971 -0.0250
31277W        W44691   3.151  17.060  16.358 -0.0688 -0.0957 -0.2884
31278W        W44692  10.776   4.545  11.086  0.3336 -0.2577  0.1251
31279W        W44693   5.175   4.276  11.330 -0.0164  0.0961 -0.0420
31280W        W44694   9.423  10.555   2.338  0.1264 -0.0338 -0.1185
31281W        W44695   5.714  14.176  10.080 -0.3032 -0.2454  0.2114
31282W        W44696   8.567   7.303   3.254  0.0533  0.0239 -0.0837
31283W        W44697   7.898   0.955   3.100  0.4439 -0.0404  0.0670
31284W        W44698  16.926   8.422   5.147 -0.1734  0.0303 -0.0529
31285W        W44699   4.994   6.852   5.925  0.1232  0.2355 -0.0060
31286W        W44700   7.449   0.948  15.053 -0.3027 -0.0930  0.2982
31287W        W44701  15.873  17.736   1.179  0.2167 -0.1455  0.1586
31288W        W44702   6.109   1.286   2.660  0.0451  0.1289 -0.0542
31289W        W44703   7.513  14.685  11.778 -0.0681  0.2001 -0.0039
31290W        W44704  13.412  14.533  11.348  0.0625  0.2497 -0.0019
31291W        W44705  17.832   2.589  12.909 -0.0277  0.4411 -0.2061
31292W        W44706  16.523   2.128   1.394  0.1947 -0.0793 -0.0652
31293W        W44707  10.442   4.036   2.631  0.1998 -0.1672 -0.2478
31294W        W44708  14.060   6.314  12.679  0.2433  0.0878 -0.2618
31295W        W44709   1.363   4.253   4.683 -0.1201 -0.2380 -0.0809
31296W        W44710   9.671  10.977  14.134 -0.0088 -0.4181 -0.2063
31297W        W44711   3.756   4.894   2.595  0.0869 -0.2725  0.0765
31298W        W44712   9.390   2.565   1.330 -0.4051  0.0542  0.0716
31299W        W44713  16.263  14.529  16.429  0.2958  0.4396  0.2125
31300W        W44714  14.933   7.979  14.099  0.0349 -0.3005  0.1759
31301W        W44715   7.785  17.406  10.900  0.0234  0.1074 -0.0920
31302W        W44716  12.988  15.426  12.129  0.3342  0.2388 -0.1281
31303W        W44717  16.904  16.184  14.891 -0.0241  0.0742  0.5468
31304W        W44718  14.595  15.163   2.666 -0.1394  0.0288 -0.3882
31305W        W44719  13.003   0.048   5.410  0.0020 -0.3224  0.1205
31306W        W44720  11.823  13.609  15.303 -0.0245  0.2827 -0.1352
31307W        W44721  11.524  13.503  13.458 -0.1020 -0.0862 -0.2140
31308W        W44722   9.426  14.411   2.418  0.0293  0.0738 -0.0991
31309W        W44723   5.374   2.698  12.579 -0.0385 -0.0105 -0.0701
31310W        W44724   3.627  15.312  13.786 -0.0361 -0.0737 -0.0548
31311W        W44725   6.449   1.784  14.075 -0.0266 -0.0397 -0.0424
31312W        W44726  16.228  14.919   0.023  0.0516 -0.2794 -0.2194
31313W        W44727  11.489  16.155   4.118  0.1174  0.1582  0.0774
31314W        W44728  13.544   5.161  16.604 -0.1668 -0.1541  0.0670
31315W        W44729   6.689  10.077   1.880 -0.2076 -0.1705 -0.0135
31316W        W44730   5.969   6.018   5.202 -0.2042  0.2457 -0.1592
31317W        W44731  15.374   6.009  13.980 -0.1148  0.3469  0.1279
31318W        W44732   1.695   9.068   1.275  0.1461 -0.2843  0.1526
31319W        W44733   7.291  14.910   1.693  0.0368  0.2228  0.3441
31320W        W44734   2.774  15.341  15.998  0.4565 -0.1222 -0.2319
31321W        W44735   5.540  15.341  15.081  0.1823  0.1270 -0.1372
31322W        W44736   2.303   5.444  10.469  0.0789 -0.1548 -0.2854
31323W        W44737   7.156   9.262   0.795 -0.0266 -0.0143  0.1996
31324W        W44738   1.463   2.167  14.662 -0.1929 -0.3042  0.0875
31325W        W44739  12.734  10.736  12.897 -0.3274 -0.0740 -0.4556
31326W        W44740  16.840  13.062   0.538  0.1679 -0.0454 -0.0225
31327W        W44741   9.506  15.520  12.958 -0.0225  0.0413 -0.0046
31328W        W44742   4.198   9.458   2.174 -0.1586 -0.0359 -0.1847
31329W        W44743   1.752   2.421  14.167  0.0818 -0.2557 -0.3661
31330W        W44744  13.327  15.527   4.946  0.4364 -0.0350 -0.0032
31331W        W44745  14.120  16.449   1.529  0.3119  0.0004  0.4239
31332W        W44746   8.128  10.053   1.247  0.3333 -0.1531 -0.2612
31333W        W44747   6.024   4.276  15.382 -0.0353 -0.0207 -0.1305
31334W        W44748  10.045  15.178   4.622  0.0217  0.1877 -0.2739
31335W        W44749  10.711   9.889   2.258  0.2913  0.1625  0.2606
31336W        W44750   6.271   9.194   5.105 -0.2809 -0.1993 -0.0064
31337W        W44751   4.610  10.770  13.612 -0.1346 -0.3554 -0.2498
31338W        W44752   8.202   0.780  12.781 -0.0045 -0.1593  0.3147
31339W        W44753   3.083   5.614   5.058  0.1515 -0.3151 -0.1345
31340W        W44754   0.147  12.731  11.209 -0.1147  0.0761  0.3852
31341W        W44755   6.502   2.435  14.693 -0.2723 -0.0946 -0.0588
31342W        W44756  13.318   2.851  15.723 -0.2491  0.0689  0.1620
31343W        W44757   0.242  14.349   3.690 -0.0170  0.1162 -0.2370
31344W        W44758  13.110   9.093   0.290  0.1051 -0.0747  0.0186
31345W        W44759   2.430  16.815   5.485 -0.1706 -0.0926 -0.4302
31346W        W44760   4.007   0.349   2.969  0.0051 -0.0554  0.3154
31347W        W44761   5.969  15.568  13.789  0.1610  0.2181  0.0978
31348W        W44762   0.038   5.420   5.578 -0.3413  0.0815 -0.2751
31349W        W44763   5.070   9.161  14.699  0.0162 -0.0005 -0.1768
31350W        W44764   5.280   0.095  13.253  0.0883  0.2455  0.0383
31351W        W44765   1.529  13.398  12.642  0.2518  0.3392  0.1627
31352W        W44766   5.009   2.570  11.788 -0.0795 -0.3297  0.3048
31353W        W44767   8.825  14.295  11.408 -0.1157  0.0228 -0.2246
31354W        W44768   2.764   7.748  14.261  0.0136 -0.2562 -0.0741
31355W        W44769   9.190   9.374  15.237 -0.0169 -0.0144 -0.0181
31356W        W44770  15.170   1.168  14.223 -0.1096  0.0496  0.3144
31357W        W44771  12.699   8.599   1.636  0.1377 -0.0982 -0.0208
31358W        W44772   8.509  17.691  12.801  0.0596 -0.0618 -0.2539
31359W        W44773  16.460  12.991  11.913  0.1345  0.2839  0.3032
31360W        W44774   3.006   3.631  10.928  0.1198 -0.0779 -0.2061
31361W        W44775  10.348   7.476   5.464  0.3061  0.0128  0.1444
31362W        W44776   1.959   4.479  16.743 -0.4952 -0.0058 -0.0635
31363W        W44777  16.306   9.936   0.138 -0.1130  0.3108  0.0022
31364W        W44778   9.084   3.111  13.843 -0.1863  0.0218  0.2434
31365W        W44779   6.416   1.500  11.110  0.0238 -0.0508 -0.1436
31366W        W44780   4.141   3.631  14.338 -0.0161 -0.2390 -0.0279
31367W        W44781   4.287   4.764   3.929 -0.0088  0.2929 -0.1816
31368W        W44782   4.299  14.805   0.145 -0.0573  0.0691 -0.0161
31369W        W44783   4.476  16.180  12.387 -0.2795 -0.4180  0.2434
31370W        W44784  16.642   8.181   1.518 -0.1637 -0.0264 -0.1693
31371W        W44785  16.818   6.904  13.152  0.1572 -0.1020  0.1587
31372W        W44786  11.309   4.346  13.708  0.0936  0.2233  0.1571
31373W        W44787  14.947   9.275  15.721  0.2138 -0.0058  0.2891
31374W        W44788  16.644   3.442   3.429  0.1752 -0.2778 -0.2164
31375W        W44789   5.236   7.715   2.638  0.0494  0.3879  0.0394
31376W        W44790  10.703   6.537  16.115  0.1210 -0.0167 -0.1794
31377W        W44791  15.095  12.678   5.323  0.2373 -0.1602  0.0698
31378W        W44792   6.800   4.049  15.915  0.1338 -0.2496  0.0666
31379W        W44793  10.994  16.072   1.185 -0.4393 -0.0936  0.0664
31380W        W44794  15.067   4.248  10.904 -0.2511  0.2077  0.0075
31381W        W44795  11.046   4.993   0.034 -0.0636 -0.0273 -0.1486
31382W        W44796   1.112  13.225   5.382 -0.0520 -0.0699 -0.0742
31383W        W44797   1.255  13.161  11.795 -0.1106 -0.0388  0.0879
31384W        W44798  13.188   0.926   1.942 -0.3202 -0.0077  0.1407
31385W        W44799   6.173  10.940  16.186  0.2822  0.2400  0.0653
31386W        W44800   4.569  17.449   0.003  0.0926  0.2264  0.2044
31387W        W44801   2.021  12.149  14.414  0.0847  0.1586 -0.2981
31388W        W44802  10.577  12.010  12.936 -0.1099 -0.1196  0.1769
31389W        W44803  12.932   6.553  15.596  0.0075 -0.0257 -0.0368
31390W        W44804   3.397   5.506   1.004  0.0025  0.0336  0.1310
31391W        W44805  14.085   6.424   2.864  0.1134  0.2861  0.0489
31392W        W44806  15.625   9.126  15.876 -0.0017  0.1280  0.1342
31393W        W44807  15.271  12.135  14.293 -0.1078  0.0367  0.1924
31394W        W44808   3.289   6.930   5.101  0.1969  0.0273  0.0754
31395W        W44809   2.746  14.548   3.350 -0.1367 -0.0065 -0.0700
31396W        W44810  14.059   0.809  10.222 -0.2028  0.2110  0.0825
31397W        W44811   6.114   3.528  12.041  0.2154  0.0771  0.0468
31398W        W44812  17.507   3.274  14.343 -0.2863  0.2226 -0.5333
31399W        W44813  11.505  13.993   2.407 -0.0031  0.0335  0.0763
31400W        W44814   9.899   1.248   5.815  0.1086  0.0584  0.0994
31401W        W44815   0.755   4.398  15.717  0.2168  0.0030  0.1814
31402W        W44816  14.343   7.347  13.417 -0.0700  0.2110 -0.0457
31403W        W44817  13.928   4.595  16.524 -0.1044 -0.0925  0.1497
31404W        W44818   8.994  11.263  16.635 -0.0183  0.1074  0.2751
31405W        W44819  14.551   8.332  13.322  0.1981  0.2954 -0.0106
31406W        W44820  17.282  17.673  15.699  0.2609  0.0989  0.1280
31407W        W44821   8.900   7.872   3.195 -0.0219  0.0536  0.2474
31408W        W44822   7.643  10.861   0.109  0.0515 -0.1607 -0.0027
31409W        W44823  17.976   3.688  11.118  0.0217  0.1350 -0.2212
31410W        W44824  15.419   3.917  15.933  0.0022  0.0502  0.0866
31411W        W44825  14.243   2.116   2.519  0.0074  0.1004  0.0082
31412W        W44826  14.396   2.337   0.364  0.0538  0.1302 -0.1078
31413W        W44827  13.817   3.592   2.146 -0.0620 -0.0750 -0.0439
31414W        W44828   1.760   9.515   1.081  0.1194  0.0782  0.1055
31415W        W44829  12.981  16.449   0.430  0.1690 -0.2487  0.1007
31416W        W44830   9.014   7.752   2.503  0.4756 -0.2680 -0.1347
31417W        W44831   0.984   0.533  16.334 -0.0681  0.3132  0.3097
31418W        W44832   6.542  16.806   4.598 -0.1401  0.3679 -0.3076
31419W        W44833   8.390   7.127   6.768  0.2322  0.4174  0.0074
31420W        W44834   5.553  12.607   1.817  0.0454 -0.2693  0.0637
31421W        W44835  11.707  17.449  12.909 -0.0208  0.1182 -0.1804
31422W        W44836   6.857   5.838   2.012 -0.1311 -0.1102 -0.2554
31423W        W44837   6.683   0.246   4.041  0.1944  0.2295 -0.1115
31424W        W44838  10.148   3.262   2.253 -0.2355  0.0476 -0.0215
31425W        W44839  10.430   3.709  12.665  0.4045  0.0609 -0.0105
31426W        W44840  14.102   5.896   2.187 -0.3940 -0.0024  0.1817
31427W        W44841   8.798  16.112   4.323  0.0506  0.3680 -0.1151
31428W        W44842   5.613  13.992  11.052  0.0670  0.1740  0.2120
31429W        W44843  10.557  12.014  11.439 -0.0449  0.2917  0.0809
31430W        W44844   1.423  17.897   1.400  0.0514 -0.1560  0.2012
31431W        W44845   7.509   1.961  13.094 -0.0442  0.1022  0.1744
31432W        W44846   4.452   8.392   2.845 -0.1773  0.4283 -0.0013
31433W        W44847   3.691   8.171  14.220  0.3741  0.1679  0.1126
31434W        W44848  10.900   7.686   0.594 -0.2576 -0.0880 -0.0449
31435W        W44849  14.856   5.007  13.638  0.1880 -0.0153 -0.3020
31436W        W44850   0.768   0.177   1.895 -0.0316 -0.0528  0.0170
31437W        W44851  11.287   8.789  16.576  0.2840  0.2273  0.0764
31438W        W44852  17.825   3.136  11.011 -0.4518  0.4613 -0.0723
31439W        W44853   3.844  16.500  14.943 -0.1929 -0.0344 -0.3546
31440W        W44854   1.740   0.333   3.137  0.4133  0.1971  0.1369
31441W        W44855   2.253   2.367   4.598 -0.1184  0.2044 -0.0039
31442W        W44856   8.185   8.660  13.988 -0.5300  0.2063  0.1971
31443W        W44857  11.381   6.141   4.313  0.1362 -0.0366 -0.1047
31444W        W44858  13.385  14.432   6.220  0.1909 -0.0639 -0.0395
31445W        W44859  17.147   0.932   1.592  0.1056 -0.2753  0.0988
31446W        W44860   8.292   6.148   5.067  0.3177  0.0876  0.0818
31447W        W44861   5.272   3.765  14.667  0.0854  0.0223 -0.0864
31448W        W44862  14.339   8.145  12.852  0.0566 -0.0159 -0.2222
31449W        W44863  14.768  11.855   0.903 -0.0770 -0.1023 -0.1429
31450W        W44864  16.669   2.389  14.265  0.2529 -0.2017 -0.1396
31451W        W44865  14.140  16.573  12.956 -0.1308  0.1102  0.3184
31452W        W44866   4.071  12.748  12.374  0.1103  0.4404 -0.1056
31453W        W44867   7.808   5.921  13.014 -0.0666  0.1240 -0.0233
31454W        W44868  14.658  10.171   3.247  0.0290  0.1881  0.1193
31455W        W44869   3.382   1.255  14.948  0.0736  0.0002 -0.1227
31456W        W44870   2.541  16.350   4.676  0.2166  0.2192 -0.1896
31457W        W44871   5.061   2.608   9.998  0.0617  0.2622 -0.0871
31458W        W44872   3.617  15.307  10.498  0.0943 -0.0951  0.0204
31459W        W44873   5.979   7.651   3.368 -0.2766 -0.0272 -0.1276
31460W        W44874   2.316  11.953   4.748 -0.3480  0.2104  0.3009
31461W        W44875  16.699   3.761   0.078  0.0765 -0.1836 -0.3320
31462W        W44876  14.734  13.836  11.476  0.1750  0.0421 -0.2550
31463W        W44877   3.816  17.039  16.577  0.0303  0.1528 -0.0629
31464W        W44878   1.527  13.983   5.493  0.0624 -0.0001  0.2302
31465W        W44879  10.166   4.009  14.698 -0.0021  0.0925  0.0385
31466W        W44880  11.866  10.490  13.167 -0.0426 -0.3243 -0.1028
31467W        W44881  14.833  17.784   2.308  0.0875 -0.0481 -0.0817
31468W        W44882  15.389  10.932  13.791 -0.1677 -0.0277  0.0644
31469W        W44883   4.136  10.983   5.154  0.0365 -0.2320 -0.3205
31470W        W44884  14.658   4.996  11.915 -0.0604  0.1320 -0.4278
31471W        W44885  16.147   3.829   1.881 -0.0197 -0.1003 -0.1975
31472W        W44886   1.106   1.899   5.128  0.0136 -0.1904 -0.0302
31473W        W44887  12.142  13.776   3.084 -0.1499  0.1666  0.1990
31474W        W44888   3.811   8.740  14.270  0.0677 -0.1318 -0.3077
31475W        W44889   7.260   0.925   5.917 -0.0041  0.2002 -0.0191
31476W        W44890  15.434   7.399   5.928  0.0238  0.0348  0.1460
31477W        W44891  13.675   2.338  14.106  0.1377  0.1224 -0.0967
31478W        W44892  15.069  16.921  13.544  0.0038  0.1216 -0.2091
31479W        W44893   6.205  10.158  11.380  0.1325 -0.2321 -0.2648
31480W        W44894  16.045  13.542  12.951 -0.2640  0.1418 -0.1149
31481W        W44895  14.364   8.762   0.928  0.2112  0.1225 -0.1087
31482W        W44896   4.423  14.353   9.899 -0.0540 -0.3413  0.1287
31483W        W44897  11.553   1.234  12.759  0.0780  0.0930 -0.1195
31484W        W44898   0.130   1.321  11.354  0.0213  0.0496 -0.2385
31485W        W44899   2.744   2.597   5.895 -0.0982  0.1463  0.2381
31486W        W44900  13.260  13.383  13.521  0.0143 -0.1119 -0.0935
31487W        W44901   6.950  17.441   4.349  0.0676  0.0096 -0.4403
31488W        W44902   3.361   3.805  11.741 -0.1979 -0.1757 -0.0118
31489W        W44903  10.674  12.126  15.032  0.1130 -0.2487 -0.3124
31490W        W44904   9.824   9.104  15.585 -0.0467  0.0537 -0.1852
31491W        W44905   1.136  12.594  14.460 -0.0693  0.0467 -0.1182
31492W        W44906  12.156  16.199   5.323 -0.1479 -0.2593 -0.0856
31493W        W44907   9.078   6.883  15.555 -0.2212 -0.2914 -0.2970
31494W        W44908  13.971  17.103   4.204  0.0148  0.3345 -0.1228
31495W        W44909   4.249  10.683  14.060 -0.1568  0.0768 -0.2801
31496W        W44910   9.339  12.461  14.325 -0.3387 -0.0443  0.0922
31497W        W44911   5.543   8.682   6.876  0.0699  0.0470  0.2098
31498W        W44912  17.403   4.311   0.514 -0.0718  0.0585 -0.0790
31499W        W44913   1.543   5.412   5.418 -0.0439  0.0741  0.0153
31500W        W44914   0.655   0.410   2.381  0.0310  0.1618 -0.1910
31501W        W44915  10.231  10.665   6.458 -0.0587 -0.0777  0.4856
31502W        W44916  16.913   3.970  10.607 -0.2994 -0.0948  0.1919
31503W        W44917   3.740   0.777   5.754  0.1394  0.0517 -0.1858
31504W        W44918  15.398  11.329   0.390 -0.1362 -0.1609  0.0513
31505W        W44919   1.477  17.555  14.379 -0.0732  0.0072  0.0367
31506W        W44920   9.504   9.165   0.126 -0.3359 -0.1700  0.2912
31507W        W44921  17.662   1.188  16.748  0.1137 -0.1814 -0.4311
31508W        W44922   2.504  10.989  15.113  0.3471 -0.0443  0.0816
31509W        W44923   3.346  13.718  10.291 -0.1822  0.2598 -0.0546
31510W        W44924   0.496  15.723  11.142 -0.0663  0.0535 -0.1241
31511W        W44925  11.743   2.100  14.141 -0.3643  0.0418  0.1731
31512W        W44926   3.833  15.312  14.970  0.1298  0.2355 -0.0197
31513W        W44927   7.591  10.894  10.766 -0.2328  0.0453 -0.0901
31514W        W44928   8.622  12.459   6.129  0.0069 -0.0397 -0.0846
31515W        W44929  17.041  13.830   5.390  0.2163 -0.1743 -0.1421
31516W        W44930   8.243   5.966   2.800  0.4111 -0.1749 -0.2088
31517W        W44931   5.395  17.913   3.534  0.1368 -0.2082 -0.3204
31518W        W44932  17.667   0.473  13.302  0.2369 -0.0229 -0.2338
31519W        W44933  14.808   2.432   3.274 -0.3225 -0.1245  0.1897
31520W        W44934   5.893   4.317   2.793 -0.0138 -0.2183 -0.1484
31521W        W44935  14.464  12.990  16.313  0.3765 -0.2292 -0.1628
31522W        W44936   4.181   8.840  15.924 -0.0938 -0.0891  0.3892
31523W        W44937   7.918   0.292  13.642 -0.1050 -0.2348 -0.4013
31524W        W44938  10.984   9.321  13.129 -0.5410  0.0860  0.3302
31525W        W44939  15.362   1.203   3.382 -0.0866 -0.0682  0.0201
31526W        W44940   3.713  11.900  12.412 -0.3726  0.1663 -0.0838
31527W        W44941  10.090   9.097  11.274 -0.0830 -0.4384 -0.1473
31528W        W44942   4.222   1.619  15.240 -0.0190  0.1216  0.1153
31529W        W44943   7.523  17.055  12.755 -0.3065  0.1967 -0.0450
31530W        W44944  11.270  10.756   5.702 -0.0931 -0.0424  0.0224
31531W        W44945  17.264   8.552  14.869 -0.3813  0.3354  0.0694
31532W        W44946   6.637   5.670  13.133 -0.2144  0.0243 -0.0180
31533W        W44947  10.926   5.794  13.562  0.4042 -0.0427  0.0186
31534W        W44948   4.972  10.387  13.715  0.1289  0.1099  0.1805
31535W        W44949  16.810  15.982   2.795 -0.2030  0.0327 -0.0795
31536W        W44950   2.346   5.679  14.954  0.1800  0.1944  0.0412
31537W        W44951   0.334   0.688  10.520 -0.0700  0.2054  0.1864
31538W        W44952  14.872   4.266   3.663 -0.3169 -0.0684  0.2491
31539W        W44953  16.261   3.071  16.245  0.1246 -0.0886  0.2825
31540W        W44954  16.075  10.569  12.576  0.2053  0.0724 -0.0138
31541W        W44955  17.817  11.079   4.378  0.3828 -0.0197  0.3771
31542W        W44956   8.212   8.303   3.849 -0.0903 -0.0467  0.1669
31543W        W44957   5.629   9.338   2.951 -0.0203 -0.0471  0.1352
31544W        W44958  14.144  17.764  16.380 -0.1037 -0.0366 -0.2859
31545W        W44959   9.351   1.797  14.263  0.3375 -0.1638 -0.0609
31546W        W44960   8.416  17.831  16.329  0.1387  0.0017  0.0490
31547W        W44961  13.697   9.475  16.357  0.3180 -0.3091  0.0794
31548W        W44962   6.522   4.095  10.783  0.1108 -0.0371  0.0770
31549W        W44963   6.357  12.772   2.123  0.1904 -0.0779 -0.2160
31550W        W44964   3.632  13.473   0.130 -0.0834  0.0274 -0.0416
31551W        W44965   7.332  14.225  15.043 -0.0626  0.3448 -0.0930
31552W        W44966  17.200  11.441  13.280 -0.3221  0.2054  0.1570
31553W        W44967   8.027  15.858  15.831 -0.1412 -0.0978 -0.2214
31554W        W44968  12.713  10.950   2.472 -0.1435  0.4494  0.2583
31555W        W44969   8.503  17.025  14.039  0.2982  0.2907  0.0023
31556W        W44970  16.302  14.049   4.422  0.1431  0.0372  0.0839
31557W        W44971   3.058   2.716  14.722 -0.2852  0.0835  0.2177
31558W        W44972  11.067  17.673   5.046 -0.1704 -0.0592  0.2694
31559W        W44973  15.789  14.792  13.751  0.2401  0.1963 -0.0495
31560W        W44974  11.782  16.047  13.315  0.1268 -0.1661 -0.0260
31561W        W44975   3.110  14.768   9.721  0.2173 -0.3612  0.0762
31562W        W44976   8.624   5.491  15.307  0.1905 -0.0366 -0.0245
31563W        W44977  16.178   6.071   2.635  0.1781 -0.0796 -0.3081
31564W        W44978  16.607  17.569   4.814 -0.3231  0.0163  0.0763
31565W        W44979   1.535   1.840  10.177  0.2310 -0.2105  0.0562
31566W        W44980   9.280   7.808   4.695  0.0759  0.0558  0.2834
31567W        W44981   3.852   4.108  15.060  0.0818  0.0544 -0.1467
31568W        W44982  16.646   4.469  15.936 -0.0776 -0.0487 -0.0080
31569W        W44983  13.932   2.306   5.427  0.2431 -0.2681 -0.1844
31570W        W44984  12.287   0.943   5.424  0.1943  0.0767 -0.0637
31571W        W44985  12.922   6.805   0.408  0.0926  0.3300  0.5854
31572W        W44986  17.537   7.385  15.381 -0.0098 -0.2394  0.1882
31573W        W44987   0.584   0.038   1.362  0.4958 -0.3873  0.1522
31574W        W44988   5.053   5.570  11.698 -0.0406 -0.1325 -0.0180
31575W        W44989   6.540   3.479   5.222 -0.2007  0.2968  0.1884
31576W        W44990  14.602   2.564  15.245 -0.2310 -0.0087  0.1101
31577W        W44991  16.225   9.797  11.996  0.1559  0.0762 -0.0230
31578W        W44992   7.092   2.267  10.958  0.3790 -0.0596  0.0436
31579W        W44993  11.209   0.232   0.701  0.1067  0.1096  0.2351
31580W        W44994   0.176   0.389  16.314 -0.4034  0.1919  0.1918
31581W        W44995  11.598   5.717   1.262  0.3492  0.1539 -0.2258
31582W        W44996   4.045  15.344  13.529 -0.0120 -0.0268  0.3960
31583W        W44997   6.158   7.990   6.093 -0.0552 -0.2054  0.1796
31584W        W44998  13.072  11.847   5.030 -0.0452  0.0239 -0.0720
31585W        W44999  11.741   9.577   1.976 -0.0633  0.1068 -0.0418
31586W        W45000   2.732  17.410  13.276  0.0676  0.0315 -0.1016
31587W        W45001  15.435   4.414  12.848  0.3119  0.2356 -0.1297
31588W        W45002   1.097  13.782   2.875 -0.0727  0.1052  0.1874
31589W        W45003  16.382   2.000  13.603  0.0679 -0.1524 -0.0781
31590W        W45004  12.402   4.708  16.113  0.2674 -0.1989  0.1733
31591W        W45005   2.023  12.147  14.915 -0.0966 -0.1202 -0.1904
31592W        W45006   0.075  12.987  14.497  0.1544  0.3137  0.0399
31593W        W45007   1.043   5.173   1.789 -0.0950  0.2163  0.1286
31594W        W45008  13.326   1.121  16.001  0.1082 -0.3793 -0.1532
31595W        W45009   5.825   0.581   4.386  0.0471  0.1706 -0.1700
31596W        W45010   6.985   9.506   2.466 -0.0394  0.2627  0.2479
31597W        W45011   2.458  17.394   2.485 -0.0632 -0.2213  0.0274
31598W        W45012  13.563   1.339  15.228 -0.1642  0.0378  0.0212
31599W        W45013  11.684  10.207   2.778  0.0329  0.0680  0.1177
31600W        W45014  16.707   2.436  10.711 -0.2415  0.4754 -0.2209
31601W        W45015   6.770  14.561  16.250 -0.1180 -0.5269 -0.0335
31602W        W45016   2.302   8.502   5.565  0.0144 -0.2946 -0.0522
31603W        W45017  17.825   7.303  15.821  0.1831 -0.1036  0.2880
31604W        W45018  16.867   0.401   3.974  0.1439  0.1817  0.2402
31605W        W45019  16.336   0.031   3.276 -0.0042  0.3481  0.0982
31606W        W45020  11.914   9.573  11.618 -0.0115 -0.4282 -0.3087
31607W        W45021   8.795  11.191   5.854 -0.2070  0.1503 -0.1540
31608W        W45022   2.354   3.812  15.600  0.0363  0.0791  0.1973
31609W        W45023  16.780  10.894  12.613 -0.0383  0.0107  0.1049
31610W        W45024  14.216  16.445  11.492  0.1157  0.0377 -0.2033
31611W        W45025  15.225  11.228   4.304 -0.0224  0.0207 -0.0808
31612W        W45026  13.392  10.654  12.162  0.1012 -0.2419 -0.1243
31613W        W45027   8.445  11.899  16.693 -0.4563  0.0896 -0.3366
31614W        W45028  12.690   6.726   2.784  0.3788  0.1939  0.2681
31615W        W45029   0.758  16.421   3.574  0.3313  0.0699 -0.0155
31616W        W45030  11.120   2.257   5.358  0.0956  0.0463 -0.0940
31617W        W45031   4.368   2.819  12.760  0.2254 -0.0723 -0.0879
31618W        W45032  14.681   1.485  16.683  0.1287 -0.0884 -0.2248
31619W        W45033   6.200  11.794  15.615 -0.0755  0.0017 -0.0170
31620W        W45034  17.260  10.633   2.132  0.0579  0.0830  0.2221
31621W        W45035   9.435  14.589   5.266  0.1030  0.1959  0.0480
31622W        W45036   6.963  11.548   2.386 -0.0373 -0.0667  0.1129
31623W        W45037   9.243  14.578  16.285 -0.0514 -0.3117  0.0837
31624W        W45038  13.652   7.726   6.446  0.1067 -0.0123 -0.3727
31625W        W45039   4.343   0.317   2.217  0.1756  0.2364  0.0392
31626W        W45040   1.295  12.175  13.672 -0.0025  0.2094 -0.1975
31627W        W45041  16.861   6.481   1.155  0.1668 -0.2716 -0.2405
31628W        W45042   1.000  11.627   1.035 -0.1275 -0.2377  0.6741
31629W        W45043   0.294  16.847  13.120 -0.1691 -0.1594  0.1034
31630W        W45044  13.719  14.789  11.829  0.0854  0.0757  0.2304
31631W        W45045  14.223   3.530  15.105  0.0800 -0.1612  0.2371
31632W        W45046   1.778  14.862  12.017  0.1239 -0.0159  0.1579
31633W        W45047   7.234   5.122   2.536  0.3748 -0.2118  0.2238
31634W        W45048  15.740   5.824   3.121  0.0063 -0.2044 -0.0886
31635W        W45049  10.152   6.211   4.538  0.1938 -0.2369 -0.0119
31636W        W45050   6.478   4.358   3.396  0.1780  0.0433  0.1274
31637W        W45051   2.163   4.509  11.516 -0.0041 -0.1796 -0.0523
31638W        W45052   9.838   9.212   5.282 -0.2435 -0.0517  0.1280
31639W        W45053  16.967   4.934   4.215 -0.0009 -0.0457  0.1744
31640W        W45054  12.052   0.117  15.232  0.0734 -0.0968 -0.0300
31641W        W45055   6.199   5.061  13.437  0.2329  0.1197  0.0683
31642W        W45056  14.678   1.498  11.873 -0.1272  0.0478 -0.1453
31643W        W45057   7.029  13.445  15.795 -0.1359 -0.2686 -0.0378
31644W        W45058  10.728  12.848   4.588  0.0219 -0.0676  0.1254
31645W        W45059   3.409   8.321  16.641  0.2333 -0.0487 -0.1605
31646W        W45060  10.193  13.840  13.840 -0.1003  0.1366  0.0568
31647W        W45061   6.466   2.248  14.175  0.2194  0.1632  0.1466
31648W        W45062   7.029  10.404   2.010 -0.1352  0.0366 -0.0327
31649W        W45063   1.657   7.521  12.568 -0.0081  0.0504  0.0261
31650W        W45064   6.015  17.308   1.779 -0.2944 -0.1487  0.3270
31651W        W45065  17.433  13.412   4.331 -0.1746  0.2641 -0.1845
31652W        W45066   2.432  11.112  12.079  0.0701 -0.1217  0.2481
31653W        W45067   6.952   1.059  13.073  0.1317  0.0812  0.1158
31654W        W45068   1.765   0.464  15.497  0.1881  0.2857 -0.2134
31655W        W45069  12.647  10.547  14.260  0.1992  0.0077  0.1165
31656W        W45070  17.026   0.143  10.164  0.0453  0.1221  0.3566
31657W        W45071  17.725   1.382   4.637 -0.1026  0.5514 -0.2465
31658W        W45072   3.659  12.588  11.965 -0.0102  0.2468 -0.1377
31659W        W45073   7.123   2.777   0.433 -0.0753 -0.2030  0.0704
31660W        W45074  11.036  17.901   2.173  0.0748 -0.0839 -0.1019
31661W        W45075  10.949   6.281   5.155 -0.1086  0.2139  0.2659
31662W        W45076  11.730   1.895  14.725  0.0858 -0.0758 -0.1832
31663W        W45077   6.471   3.887   3.574 -0.2227 -0.0898  0.1397
31664W        W45078   1.378  15.773   5.130  0.0535 -0.5973  0.1201
31665W        W45079   7.866  17.953  10.802  0.3285  0.1480 -0.0951
31666W        W45080  17.087  17.300  11.001 -0.0340  0.0592  0.0763
31667W        W45081   8.021   4.369   1.742  0.0431  0.0797 -0.0429
31668W        W45082   3.033   0.832  15.682  0.2978 -0.2693  0.2652
31669W        W45083  13.266  15.980   3.296  0.0027  0.1470 -0.1638
31670W        W45084  17.205  13.546  12.169  0.3416  0.0217  0.4324
31671W        W45085   5.000  17.109  11.809  0.3146 -0.2573  0.0138
31672W        W45086  14.416  14.397  12.637  0.1989  0.2438 -0.2131
31673W        W45087   2.940   1.716  14.488  0.0770  0.0442 -0.1510
31674W        W45088   2.461  13.918  16.585 -0.2933 -0.1919 -0.0051
31675W        W45089   9.971   9.660  11.639  0.2779  0.1623 -0.2612
31676W        W45090   9.200  15.056   1.983 -0.1299 -0.0613  0.0732
31677W        W45091   6.587   4.336   5.010  0.2204 -0.3165 -0.1277
31678W        W45092  15.755   2.454  14.632  0.3572  0.0853 -0.2657
31679W        W45093  11.172   6.238  12.491  0.0312 -0.0311 -0.2764
31680W        W45094   3.104   5.222   1.981 -0.1196 -0.0506 -0.0729
31681W        W45095  14.812  15.257  12.646  0.2250 -0.1772 -0.0988
31682W        W45096  16.908   8.823  10.348 -0.0710  0.2632  0.0963
31683W        W45097   8.186  17.278   2.900  0.1771  0.2344  0.1832
31684W        W45098  12.881   4.461  13.784 -0.2591  0.0099 -0.2364
31685W        W45099   1.208   7.094  11.747 -0.0283  0.1959 -0.0346
31686W        W45100  13.098  17.785  15.989 -0.2070 -0.2393 -0.2446
31687W        W45101  12.325   6.939  14.348 -0.0336  0.0877 -0.1009
31688W        W45102   4.005   7.155   5.123  0.2767  0.2339 -0.1042
31689W        W45103   5.766  11.413  11.751  0.1401  0.0720 -0.2126
31690W        W45104  12.255  12.521  11.976  0.2615 -0.0928 -0.2186
31691W        W45105  12.889   3.959   1.119 -0.1415  0.0169 -0.1969
31692W        W45106   5.418   3.147   3.946  0.2877  0.0541 -0.3574
31693W        W45107  17.208  16.256  15.535  0.0627  0.1608 -0.1618
31694W        W45108  14.509   5.707   1.265 -0.1752 -0.0761 -0.1176
31695W        W45109  17.864  13.028   3.621  0.1241 -0.1257 -0.1714
31696W        W45110  17.485   4.670   5.365 -0.1478 -0.0013  0.1093
31697W        W45111  17.813  14.905  14.907  0.1444  0.1955  0.2063
31698W        W45112  11.087  10.944   4.321  0.2821  0.2189 -0.1092
31699W        W45113   9.989   9.223   0.178 -0.2946  0.0114 -0.1523
31700W        W45114   6.276   6.460   4.310 -0.0646  0.2259 -0.0584
31701W        W45115   6.280   6.097  13.059  0.0321  0.0889  0.3609
31702W        W45116  16.830   2.870  12.525  0.1700  0.2280  0.0532
31703W        W45117   9.624   9.542  15.380 -0.1756  0.2177 -0.1182
31704W        W45118   7.818   7.625  10.264 -0.0005  0.3295 -0.2990
31705W        W45119  10.723  14.437  14.970 -0.4557 -0.1102 -0.3662
31706W        W45120   1.136  16.766  16.303  0.3446 -0.0601  0.1027
31707W        W45121   4.081  11.695  13.222 -0.4556 -0.1721  0.1004
31708W        W45122  13.985   8.833   0.123 -0.2037  0.0052 -0.0354
31709W        W45123  12.082  13.788   4.454 -0.2700  0.0220 -0.1126
31710W        W45124   8.047   8.257  14.437 -0.1975  0.1114  0.0001
31711W        W45125  15.128  11.952   0.565 -0.3719  0.1409  0.2770
31712W        W45126  12.408   4.898  16.609  0.0588 -0.0639 -0.0771
31713W        W45127  17.076  12.492   3.686 -0.0070 -0.0416  0.0966
31714W        W45128   9.107   2.348   2.648  0.2584  0.0676  0.1524
31715W        W45129  17.617   8.787   3.693 -0.0574 -0.0328  0.0160
31716W        W45130  13.431   4.606   4.831  0.1908 -0.0857 -0.1862
31717W        W45131   2.168   6.139  14.005  0.2454 -0.0469 -0.1504
31718W        W45132  15.506   9.999   0.341 -0.0483 -0.2907 -0.3088
31719W        W45133   0.808   4.489   5.672 -0.4696  0.2496 -0.2643
31720W        W45134  17.496  15.522  13.950  0.0640 -0.2763  0.3797
31721W        W45135   4.684   8.225  13.798  0.1080  0.0273  0.2873
31722W        W45136   9.921   1.571  15.979 -0.0866  0.1813  0.1448
31723W        W45137   6.761   3.858  13.571  0.2024  0.3090  0.1155
31724W        W45138   1.384   7.251  10.743 -0.1875 -0.3003 -0.3748
31725W        W45139   3.549  15.388   3.432 -0.0529  0.0149 -0.1726
31726W        W45140  12.592   4.755   2.461  0.0000  0.2712 -0.1694
31727W        W45141  14.296   6.176  14.041 -0.2594  0.1371  0.0919
31728W        W45142   9.561   3.238  10.079 -0.3512 -0.0742  0.0126
31729W        W45143  14.623   5.332   3.729  0.0717  0.0512  0.1228
31730W        W45144   0.965  12.585  16.330 -0.1108 -0.1113 -0.2120
31731W        W45145  10.695  12.952  14.811  0.1859  0.1402  0.0468
31732W        W45146   8.851   1.842  14.273  0.0614  0.0367  0.0643
31733W        W45147   6.233   0.865   1.855 -0.0060 -0.4226  0.0784
31734W        W45148   8.614  14.763   6.410  0.2335  0.0338  0.0841
31735W        W45149   2.296   7.966   4.738 -0.1275  0.0412  0.0229
31736W        W45150   9.652   0.894   4.236  0.1247  0.1894  0.2378
31737W        W45151   2.183   8.660  13.485 -0.0862 -0.0564 -0.2515
31738W        W45152  15.541   5.284  16.562  0.2327 -0.2427 -0.2013
31739W        W45153  14.949   9.557   4.359 -0.3021  0.2490  0.1859
31740W        W45154  11.296   2.257   4.728  0.2183 -0.0420  0.1655
31741W        W45155  15.093  16.001   2.718  0.1073 -0.0193 -0.0797
31742W        W45156  11.010  12.288   2.973  0.0674  0.4126 -0.3178
31743W        W45157  10.979   4.290  13.231 -0.1255 -0.0434  0.0603
31744W        W45158  15.965   0.527   1.449 -0.0756  0.0060  0.0856
31745W        W45159  17.347  12.891   2.733  0.2586  0.2401 -0.1813
31746W        W45160  11.838  14.359  16.035  0.1835  0.0041 -0.1086
31747W        W45161  14.952  10.976  14.932 -0.0681  0.0722 -0.0201
31748W        W45162  15.098  11.382   0.764 -0.0238 -0.1179 -0.2804
31749W        W45163   4.865  11.633   4.709 -0.1471  0.0562  0.1630
31750W        W45164   5.425   6.871  15.739 -0.2499 -0.0259 -0.3125
31751W        W45165   1.542  12.541  15.737 -0.1606  0.0953  0.0836
31752W        W45166   6.453   5.328  16.044  0.0774  0.1537 -0.0457
31753W        W45167  14.524  12.510   3.085  0.0477 -0.3570 -0.0002
31754W        W45168  14.671   6.955   2.101  0.2391 -0.0553  0.3203
31755W        W45169  17.292  14.797  14.921 -0.0926 -0.1523 -0.1300
31756W        W45170  12.722   9.512   2.070  0.0702  0.3542  0.0824
31757W        W45171   9.704   3.122  12.804  0.1414  0.0601  0.3127
31758W        W45172  11.952  17.417   1.178  0.1219 -0.2243  0.0363
31759W        W45173  14.484  12.894  11.390  0.1018  0.0031 -0.0834
31760W        W45174  10.775  17.817  12.646 -0.0686 -0.1616  0.1046
31761W        W45175   1.975  14.247   5.245  0.1232  0.0570 -0.1408
31762W        W45176   4.669   3.838   2.490 -0.0215  0.2026  0.0285
31763W        W45177  13.541   2.471  13.635  0.3223 -0.0770  0.0108
31764W        W45178   8.473   3.555   0.576  0.2868  0.1959  0.2632
31765W        W45179  11.312  10.202   5.510  0.0830 -0.1884 -0.1554
31766W        W45180  13.693  13.025  12.260  0.1111  0.2191 -0.0032
31767W        W45181   5.775   9.057   5.026  0.2150 -0.0362  0.1345
31768W        W45182   6.768   3.442   2.373  0.6170 -0.2423  0.0117
31769W        W45183   5.313   8.711   2.428  0.0709 -0.1061 -0.1083
31770W        W45184  11.654   2.642   2.928 -0.1330  0.1238  0.1542
31771W        W45185   4.287  17.891   0.050 -0.1332  0.1044 -0.2114
31772W        W45186   4.616  15.837   6.169 -0.0934 -0.0383  0.3081
31773W        W45187  13.774   3.390   0.791 -0.2323  0.1346  0.2017
31774W        W45188  15.488   0.539  11.457  0.0392  0.0468 -0.1929
31775W        W45189   8.831   2.443  14.829  0.0779  0.1537 -0.0088
31776W        W45190  15.717   7.925   1.407 -0.1035 -0.1184 -0.1872
31777W        W45191   1.997   6.680   0.855 -0.0262  0.5048 -0.1102
31778W        W45192   4.852   9.189  11.795 -0.3384  0.1071 -0.1954
31779W        W45193  17.471   3.698  14.821  0.0822 -0.1912 -0.1108
31780W        W45194  12.605  15.074  14.842 -0.3341 -0.1582  0.0122
31781W        W45195  16.799   6.761   0.405 -0.3445 -0.0714  0.0737
31782W        W45196   7.980   5.589   3.909  0.4271 -0.1060  0.2812
31783W        W45197  14.843   4.571  12.266  0.1417  0.1902 -0.0298
31784W        W45198  13.277  10.398  16.696 -0.3044 -0.2981 -0.1699
31785W        W45199   5.158   5.283  11.290  0.0935  0.0921 -0.1346
31786W        W45200   1.020  14.388   3.710 -0.1964 -0.2440 -0.0662
31787W        W45201   4.438   2.617  14.095 -0.3903  0.2550 -0.2102
31788W        W45202   8.814   5.579  15.848  0.1766  0.0984 -0.2027
31789W        W45203   8.348   6.535   2.837 -0.1574  0.1258 -0.3424
31790W        W45204  17.391   9.870  16.219  0.2568  0.1237 -0.1168
31791W        W45205  16.707  11.427  12.524  0.0551 -0.2555  0.1107
31792W        W45206   4.880  10.399  11.755 -0.0709  0.1466 -0.0052
31793W        W45207  12.959   8.415  11.496  0.0768  0.0800  0.2439
31794W        W45208  14.543  12.182  11.381 -0.1272 -0.0356  0.0470
31795W        W45209  15.377   8.957  16.249 -0.0296  0.0673  0.1394
31796W        W45210  11.860   0.924  15.514  0.2371 -0.0172 -0.3389
31797W        W45211   3.087   9.746   0.185  0.0513  0.2208 -0.0647
31798W        W45212   3.869  16.850   3.476  0.1583 -0.0569  0.0428
31799W        W45213   0.338   7.231   3.204  0.2213 -0.2849 -0.1096
31800W        W45214   6.627   3.822  12.138 -0.1213  0.0963 -0.0027
31801W        W45215   9.746   5.857  13.504  0.1132 -0.0778  0.0344
31802W        W45216  13.188   4.128   1.580 -0.1059  0.0342 -0.2175
31803W        W45217   0.417  15.355   3.005 -0.2820  0.0671 -0.4619
31804W        W45218   7.912  13.975  13.873 -0.0929 -0.0275  0.0562
31805W        W45219   3.963  17.239   2.048  0.1690 -0.1802  0.1746
31806W        W45220  10.444  10.648  11.816  0.2137 -0.1451  0.1104
31807W        W45221  17.764   7.870  10.870 -0.0380 -0.2566 -0.2224
31808W        W45222  15.483  14.807  15.868 -0.0759 -0.0168 -0.1808
31809W        W45223   0.341   8.977   1.195 -0.1723 -0.0360  0.1400
31810W        W45224   8.442   9.820  11.254 -0.2798 -0.2835 -0.0207
31811W        W45225   8.310   2.348   1.244  0.1641  0.0166  0.0998
31812W        W45226  17.170   3.839  13.735  0.1829 -0.1289  0.0362
31813W        W45227   4.028   1.077   1.958 -0.3639  0.4254  0.0734
31814W        W45228   0.502   1.000   1.053  0.1458 -0.1673  0.2114
31815W        W45229   1.363  12.649  10.536  0.2747 -0.0315  0.1128
31816W        W45230   1.260   0.496  15.372 -0.0475  0.2012  0.1447
31817W        W45231   5.732  11.922  13.753  0.0581  0.2302  0.1061
31818W        W45232  14.986  11.286   1.605  0.4258 -0.2753  0.0919
31819W        W45233  13.963   0.629  15.728  0.0444  0.1092 -0.0461
31820W        W45234   4.366  16.962   0.580 -0.3325  0.1125  0.0606
31821W        W45235   8.428   0.867  13.206 -0.3681  0.0136  0.1194
31822W        W45236  13.732  10.985   5.210 -0.0105 -0.2726  0.2352
31823W        W45237  12.428   1.900  15.396 -0.2280 -0.0933  0.1649
31824W        W45238   3.044   6.776  13.220  0.0242 -0.1227  0.1109
31825W        W45239  12.204   4.734  10.956 -0.0141 -0.1031  0.1551
31826W        W45240  10.599   9.617  14.601  0.0207  0.1770 -0.1650
31827W        W45241   1.283   9.932   5.537  0.2021  0.0192 -0.1446
31828W        W45242  13.405   3.666  15.806 -0.0694  0.0337  0.0127
31829W        W45243   4.243   4.587   0.235 -0.0390  0.1473  0.0239
31830W        W45244  16.281   5.536  10.003 -0.2187 -0.2719  0.3801
31831W        W45245  10.226   4.677  13.621  0.4173 -0.1125 -0.4107
31832W        W45246   0.622  12.706   4.168 -0.1858 -0.1759  0.2569
31833W        W45247  16.504  17.507  16.067 -0.0933 -0.0613  0.2159
31834W        W45248   6.875  16.531  12.572 -0.0365  0.2332 -0.0192
31835W        W45249  10.202   6.830   3.831  0.0224  0.0848  0.1611
31836W        W45250  13.770  11.680  13.611  0.3988  0.0305  0.0874
31837W        W45251  15.622   5.777   5.806  0.2088  0.1564  0.4113
31838W        W45252  13.426   4.437   3.583 -0.1158 -0.1553  0.3055
31839W        W45253  12.638   0.299   4.776 -0.2472  0.0963  0.0501
31840W        W45254   6.999  12.143   1.726 -0.0553  0.0004  0.0234
31841W        W45255   6.249   2.844   2.858 -0.2389  0.0077  0.1670
31842W        W45256  16.066   3.207   4.345 -0.0451 -0.0871  0.0993
31843W        W45257  11.792  16.104   5.627 -0.0285  0.1540  0.3049
31844W        W45258   5.633  15.140  16.569 -0.0405 -0.1061  0.2177
31845W        W45259   1.961   8.427   3.739  0.1235  0.0083  0.1937
31846W        W45260   8.607  10.896   0.138  0.1162 -0.2005 -0.1954
31847W        W45261  17.087  17.451  10.383 -0.0354  0.0226  0.2248
31848W        W45262   7.946  17.878  16.706  0.3027  0.5119  0.0162
31849W        W45263  10.570   3.893  15.027  0.3730 -0.1613  0.2648
31850W        W45264   2.723  13.811  15.224 -0.0011 -0.1431  0.4151
31851W        W45265  12.388   3.198  12.725  0.0277 -0.1228 -0.0853
31852W        W45266  16.232  11.128   0.028  0.1933  0.3564 -0.0860
31853W        W45267   9.827   0.672  13.192  0.3029 -0.1921  0.0579
31854W        W45268   7.499   1.649  13.571  0.0773  0.2958 -0.0032
31855W        W45269   6.371   1.194   5.698  0.1944 -0.0020 -0.0216
31856W        W45270  10.315   0.951   4.229 -0.0252  0.0909  0.1425
31857W        W45271  14.086  17.430  15.654  0.0385 -0.0471 -0.0470
31858W        W45272   2.307   3.169  11.304  0.1694  0.0843 -0.0777
31859W        W45273  12.575   1.800  14.366 -0.1089 -0.0836  0.3731
31860W        W45274  11.732   5.147   3.991  0.0121 -0.4283  0.1423
31861W        W45275   6.448  11.135   4.954 -0.1975  0.2060  0.0808
31862W        W45276  15.212   4.308  11.388  0.1389  0.2717  0.0947
31863W        W45277  11.143   7.511   3.187 -0.1804  0.2057  0.0729
31864W        W45278   8.678   3.346  11.116  0.1532 -0.1699 -0.0724
31865W        W45279  11.633   9.034   2.035 -0.2460  0.1371 -0.1394
31866W        W45280   2.782  10.474   0.678 -0.0048 -0.2139  0.0194
31867W        W45281  11.905   5.779   0.703  0.1799 -0.0114 -0.1841
31868W        W45282   9.312   3.348   3.306  0.2304  0.0697 -0.1203
31869W        W45283   8.536  15.194  15.396  0.0320 -0.2806  0.1508
31870W        W45284  12.440  15.442   2.220  0.1471  0.0924  0.1727
31871W        W45285   5.693   5.845   3.911 -0.0510 -0.1394 -0.0247
31872W        W45286  10.771   6.537   2.442  0.2158  0.0934 -0.0598
31873W        W45287  16.041  15.068   6.527 -0.0818  0.0621 -0.0663
31874W        W45288  15.502   2.696   0.458 -0.2654 -0.0577 -0.1550
31875W        W45289   3.935  14.536  14.103 -0.2793 -0.0289 -0.0677
31876W        W45290   0.497   4.393   1.030  0.0232 -0.0522 -0.0380
31877W        W45291   3.247   6.386   6.605 -0.0978  0.0352  0.0621
31878W        W45292   5.591   1.191  11.226 -0.0280 -0.2888  0.2887
31879W        W45293  17.706  16.871   5.393 -0.1598  0.1000 -0.1631
31880W        W45294   8.839   1.369   5.271 -0.2732  0.1935  0.0477
31881W        W45295  17.072  17.429   2.915  0.1426  0.1715  0.2215
31882W        W45296  15.686   4.964   5.663 -0.1036 -0.1752  0.1080
31883W        W45297  17.746   6.256  13.082 -0.0860  0.0419  0.0835
31884W        W45298  15.644   1.249  13.481 -0.0691  0.1509 -0.0648
31885W        W45299   7.907  15.752   0.738  0.4309 -0.0388  0.0939
31886W        W45300   5.867  14.278  14.680 -0.1357 -0.0579  0.0918
31887W        W45301   3.347  16.318  14.832 -0.2742  0.2379 -0.1268
31888W        W45302   3.354  16.297  14.070 -0.1967  0.1972 -0.0254
31889W        W45303   6.350   5.942  14.415 -0.0287 -0.0463  0.3143
31890W        W45304   8.141  11.611  12.914  0.1285 -0.1166  0.1354
31891W        W45305   2.636  13.533  13.373 -0.3496 -0.0477 -0.0734
31892W        W45306  15.650  16.175   4.758  0.1625  0.0760 -0.0520
31893W        W45307  15.122   7.898  15.981 -0.2393  0.0267 -0.2033
31894W        W45308  10.569  16.779  13.394  0.1630 -0.0172  0.1418
31895W        W45309  10.446  15.837   0.382 -0.0837  0.2266 -0.3830
31896W        W45310  11.840   4.177  16.779  0.2068 -0.2169  0.0321
31897W        W45311  10.784   8.379   2.313 -0.1461 -0.3831  0.1088
31898W        W45312   1.716   1.276  16.196 -0.1504 -0.2606 -0.1888
31899W        W45313  12.027   8.555  10.187 -0.0327 -0.1048  0.1524
31900W        W45314   8.039   2.155  13.272  0.2470  0.0689  0.2526
31901W        W45315  14.205   5.200  11.856  0.4321  0.1138 -0.0483
31902W        W45316   0.366   1.898   0.277  0.0397  0.2415 -0.0112
31903W        W45317  12.234   1.053   3.689 -0.1804  0.0519  0.0799
31904W        W45318  12.665   5.141  15.199  0.0985 -0.4598  0.1208
31905W        W45319   6.121  13.179  14.762  0.0971 -0.1868  0.2375
31906W        W45320   9.181   5.540  13.452 -0.2616  0.0506  0.0472
31907W        W45321   3.761   2.783  15.289 -0.2012 -0.3339 -0.0501
31908W        W45322  10.983  13.701  16.072  0.2074  0.0092 -0.1317
31909W        W45323   8.348   1.418   5.127  0.0866  0.0992 -0.2595
31910W        W45324   7.578   3.317   3.399 -0.0399 -0.0144  0.1051
31911W        W45325  14.947   7.904   6.171  0.0696 -0.1419  0.2155
31912W        W45326   8.356  11.768  14.475  0.1493  0.3121  0.1915
31913W        W45327   6.160   7.584  10.434 -0.0831  0.0212 -0.0900
31914W        W45328   7.244   5.260   5.802 -0.0738  0.1274 -0.2382
31915W        W45329   7.797   1.291  10.948 -0.1396  0.0292  0.1465
31916W        W45330  12.919   3.551   0.876 -0.5070  0.1131 -0.2469
31917W        W45331   6.223   3.539  16.564 -0.3932  0.0645 -0.2616
31918W        W45332   9.626  14.794  11.404  0.2038 -0.0309  0.0584
31919W        W45333   1.840  17.335  15.533  0.0121  0.0678  0.2502
31920W        W45334  16.584  16.917  11.536  0.0770 -0.0256 -0.0775
31921W        W45335   0.386  11.473   0.500  0.3062 -0.0610 -0.0364
31922W        W45336   6.598   6.491   2.925 -0.0905  0.0070  0.5452
31923W        W45337  17.065   7.488  15.507 -0.1248 -0.1478  0.0077
31924W        W45338  14.849   9.263   0.278 -0.0579 -0.0895  0.1155
31925W        W45339  13.147   4.276   5.202 -0.2649  0.1401 -0.4903
31926W        W45340   8.550   9.991   6.052  0.2641  0.1892  0.2736
31927W        W45341  14.946  11.745  12.115  0.3744  0.0264 -0.0598
31928W        W45342   1.512   3.736  14.757 -0.0081 -0.0136 -0.2080
31929W        W45343  15.531   2.364  11.238 -0.3641 -0.0619 -0.2379
31930W        W45344  16.054   0.645   3.845 -0.0352 -0.1495 -0.0540
31931W        W45345  16.645   6.565   4.963 -0.0622 -0.2244 -0.2974
31932W        W45346  11.767   6.496   6.822  0.1125  0.1455  0.0393
31933W        W45347   5.249   2.355  15.864 -0.1012  0.0966 -0.1476
31934W        W45348   7.311  10.267  11.361 -0.0797 -0.0819 -0.2502
31935W        W45349  14.856   3.007  11.018  0.0465 -0.3116  0.1573
31936W        W45350   8.725   0.324   2.339  0.4283 -0.0924  0.1927
31937W        W45351   0.476   5.070  13.937  0.0774  0.1207 -0.0034
31938W        W45352  14.634   9.249  11.836 -0.3174  0.1348  0.0500
31939W        W45353   9.268   0.137  16.501 -0.0864  0.1544  0.0474
31940W        W45354   4.755   8.985   0.846 -0.1514  0.3547  0.1939
31941W        W45355  16.097  12.286  16.358 -0.1199 -0.3969 -0.0216
31942W        W45356   0.404  14.162  10.248 -0.0266  0.1017  0.0595
31943W        W45357  13.499   4.064   3.949 -0.1949 -0.2436 -0.0674
31944W        W45358  15.242   4.022   4.725  0.2687  0.0486  0.0457
31945W        W45359   0.582  12.892  14.266  0.2649  0.0847 -0.0827
31946W        W45360   4.257  11.573   1.428  0.1976  0.0495  0.1622
31947W        W45361   7.866  15.442  14.344  0.0004  0.1089  0.0024
31948W        W45362  14.297  11.475  12.596  0.1067  0.0395 -0.1400
31949W        W45363   4.416  11.900   5.734  0.1350  0.0193  0.2759
31950W        W45364   0.249   8.579  13.695  0.0147 -0.0624 -0.0397
31951W        W45365   2.481  16.715   1.292 -0.1351 -0.2623 -0.1371
31952W        W45366  11.146  17.185  12.006 -0.1271  0.0778 -0.1299
31953W        W45367  13.732   6.103   2.000  0.0457 -0.1477  0.2115
31954W        W45368  17.164   9.564  16.555 -0.2076  0.0198  0.2650
31955W        W45369   5.605  14.271   0.398  0.0413  0.3621 -0.0302
31956W        W45370  14.082  17.780   0.105 -0.1685  0.0303  0.0731
31957W        W45371   1.315   5.362  14.755  0.0129 -0.3944 -0.0357
31958W        W45372   9.010  12.161   5.883 -0.4661 -0.1643 -0.2375
31959W        W45373   9.385   4.478  12.204 -0.1174 -0.0815 -0.0003
31960W        W45374  13.228   2.380  12.905 -0.1741 -0.0828 -0.0354
31961W        W45375   0.165   5.654   4.973  0.3471 -0.0295 -0.4884
31962W        W45376   7.625   0.492  15.966  0.1273  0.0463  0.1064
31963W        W45377   2.200   5.380  12.631  0.1998 -0.1779 -0.0898
31964W        W45378  10.719  13.709   2.891  0.2886 -0.2426  0.1962
31965W        W45379  17.928   2.471  11.037 -0.0410  0.2406 -0.1198
31966W        W45380  17.042   6.690  15.697 -0.2296  0.0239 -0.1837
31967W        W45381   0.695  15.216  14.613  0.1129  0.0674 -0.2275
31968W        W45382   7.616  15.606   4.876 -0.2080  0.0529 -0.3593
31969W        W45383  12.817   5.444  11.831  0.1134 -0.0380 -0.3045
31970W        W45384  10.136  15.689  14.037 -0.1061  0.0641  0.0681
31971W        W45385   6.979   6.160  10.469  0.1457  0.1965  0.3522
31972W        W45386   7.759   3.146   5.459 -0.0223 -0.0060  0.2561
31973W        W45387   2.810   9.179  15.045  0.2281 -0.0445  0.0610
31974W        W45388   7.655  10.358   3.383 -0.3361 -0.3105 -0.0022
31975W        W45389   6.977  10.830   1.129 -0.0058 -0.1287  0.0285
31976W        W45390   1.376   4.779   1.930 -0.2587 -0.0147 -0.1669
31977W        W45391   3.043   7.959   6.825 -0.0737 -0.0005 -0.1074
31978W        W45392  15.377   0.709  11.886 -0.1343 -0.2899 -0.1173
31979W        W45393  14.130  17.780  12.657 -0.4196 -0.0649 -0.0867
31980W        W45394   9.464   8.760   2.212 -0.2564  0.1294  0.2005
31981W        W45395  11.674   8.858   0.540  0.2804 -0.0084 -0.0763
31982W        W45396  12.961   1.298   2.645  0.0273 -0.1136  0.1737
31983W        W45397   6.111  16.097  13.724 -0.0351 -0.0128  0.0691
31984W        W45398   4.955   1.376  16.353  0.0019 -0.3729  0.4991
31985W        W45399   5.109   3.711  11.343 -0.0256  0.1358  0.0102
31986W        W45400   1.671  17.371   2.067  0.0873  0.1987  0.3419
31987W        W45401  11.468  15.356  14.007  0.0274  0.0583 -0.2651
31988W        W45402   0.731   1.726  11.013  0.0967  0.2594 -0.2229
31989W        W45403   0.638  17.555   3.489 -0.2247  0.1441 -0.1047
31990W        W45404  12.120  17.894   4.880 -0.1544  0.0487  0.0345
31991W        W45405  12.069  15.264  16.084  0.1919 -0.1372  0.0541
31992W        W45406   3.680  13.252   6.041 -0.1418  0.1512 -0.0698
31993W        W45407  17.820   8.876  11.104  0.0654 -0.0340 -0.0186
31994W        W45408  14.187  11.986  13.354 -0.3285  0.1745  0.2578
31995W        W45409   2.350  11.400   0.695  0.0630  0.3420 -0.0097
31996W        W45410   2.090   6.512  14.852  0.1212  0.0300  0.0534
31997W        W45411   7.827  10.217   5.484 -0.1887 -0.0737 -0.1271
31998W        W45412  13.592   8.890   5.709  0.1457  0.1701  0.1511
31999W        W45413   5.436   9.809  11.106 -0.1157 -0.0020  0.0641
32000W        W45414   5.256  16.819  10.073  0.1714  0.1391  0.0442
32001W        W45415   0.823   8.094  13.338  0.2515 -0.2554 -0.1252
32002W        W45416  14.619   3.534  15.485 -0.2347 -0.1592  0.0265
32003W        W45417   5.102   9.414   3.064  0.0159  0.0359  0.1379
32004W        W45418  12.141   7.709  16.670 -0.1348 -0.1962  0.0185
32005W        W45419   7.295   6.859   3.443 -0.0390  0.3932  0.2532
32006W        W45420  11.869  14.143   5.314 -0.1902 -0.1198  0.1129
32007W        W45421   9.974   5.795  11.061 -0.1816 -0.2381 -0.0271
32008W        W45422  12.172   4.277  11.728  0.0598 -0.1280  0.1883
32009W        W45423   8.011   3.581  11.856  0.0666  0.1545 -0.1038
32010W        W45424   8.586  13.723  15.354 -0.2461  0.1689  0.1116
32011W        W45425   4.184  10.033  12.321 -0.2868  0.1306 -0.0295
32012W        W45426   7.156   0.493   3.352 -0.0034 -0.3415  0.0193
32013W        W45427  10.937   9.895  13.407  0.0087  0.1564  0.1785
32014W        W45428   0.157  12.841  13.979 -0.1096 -0.1924 -0.1738
32015W        W45429  17.240  14.778  13.042  0.0948  0.2633 -0.1198
32016W        W45430  15.155   7.808   5.028 -0.1185 -0.1101  0.0883
32017W        W45431  17.346  15.460  11.793  0.0184  0.3929  0.0348
32018W        W45432  13.381   0.574   3.061  0.1747 -0.1750 -0.0614
32019W        W45433   9.528   6.433   0.684  0.1167  0.0526 -0.0646
32020W        W45434  10.331   7.849   4.445  0.1084  0.1428 -0.0694
32021W        W45435  11.541   9.593  14.127  0.1074  0.0602  0.1737
32022W        W45436   1.913   1.151  11.848  0.2318 -0.0918  0.0837
32023W        W45437   3.359   4.331  10.590 -0.0214  0.0090 -0.2175
32024W        W45438   4.669   8.541   4.350 -0.1078 -0.2323 -0.0360
32025W        W45439  13.107  13.993   4.537  0.0293 -0.1458  0.3986
32026W        W45440  16.972  13.415  13.902  0.0708 -0.0634  0.1663
32027W        W45441  10.784   8.201   4.022  0.0754  0.1320 -0.2541
32028W        W45442  10.731   3.228   3.664 -0.0697  0.1324 -0.1599
32029W        W45443   9.131   0.538  15.261 -0.1009 -0.2047  0.0105
32030W        W45444   1.986  14.175   3.250  0.2507 -0.0824  0.0746
32031W        W45445   1.577  10.808  10.270  0.2211  0.1516 -0.2061
32032W        W45446   8.853  13.704  15.820 -0.0041  0.2706  0.0601
32033W        W45447  17.853   8.278   0.819 -0.1753  0.0061 -0.0597
32034W        W45448  14.358  17.498  14.000 -0.0124  0.1163  0.1744
32035W        W45449   3.598   2.308   0.949  0.0143 -0.0016  0.4356
32036W        W45450  10.053  15.516   1.222 -0.1057  0.2352 -0.1425
32037W        W45451  14.240   7.904   5.077 -0.1665 -0.2465  0.0452
32038W        W45452   2.348   8.209  12.132 -0.0965  0.1481  0.0813
32039W        W45453  14.386  16.448   5.948  0.0165  0.0656 -0.0874
32040W        W45454  14.206   3.118   3.651 -0.0603 -0.2226 -0.0250
32041W        W45455   2.296  16.720   5.016  0.1254 -0.0347  0.0994
32042W        W45456   8.624   9.996  16.201  0.1271  0.2525  0.1087
32043W        W45457  14.310  14.267  15.871 -0.1003 -0.3969 -0.4218
32044W        W45458   8.707  10.965  14.211  0.1574 -0.1897  0.1017
32045W        W45459   8.319  14.763  10.214 -0.0547 -0.2757 -0.2111
32046W        W45460   3.539  13.750   1.517 -0.1237 -0.0258  0.2764
32047W        W45461   1.329  17.394   0.384 -0.0206 -0.1129  0.0182
32048W        W45462   3.003   3.995  10.584 -0.2306  0.0707 -0.0219
32049W        W45463   0.401  13.985  11.100  0.0690  0.1955 -0.0852
32050W        W45464   0.153   5.474   0.312  0.4280  0.2614  0.0707
32051W        W45465  16.280  10.553   3.498 -0.2927 -0.1886  0.2917
32052W        W45466   5.245   9.594  14.520 -0.0346 -0.0498 -0.0472
32053W        W45467  11.517  14.504   3.452  0.0401  0.2053 -0.1346
32054W        W45468   0.436  12.171   5.385  0.1171  0.1684 -0.1794
32055W        W45469  12.922   1.706   0.463  0.1678  0.3239 -0.2744
32056W        W45470   3.896   5.092  14.744  0.1639  0.1745  0.3633
32057W        W45471   3.169  10.178   3.430 -0.0189  0.0127  0.1086
32058W        W45472  10.359  11.746   0.761  0.1075  0.0613  0.2142
32059W        W45473   0.184  10.591  13.614  0.0771 -0.3194 -0.1359
32060W        W45474  11.086   4.929  12.436  0.1555  0.2753 -0.0760
32061W        W45475   1.118   7.887   0.131  0.0812 -0.3494  0.1418
32062W        W45476  14.461   8.274   3.289 -0.2294  0.1807 -0.2240
32063W        W45477   5.908  12.468  15.062 -0.2079 -0.1199 -0.0133
32064W        W45478  17.438  16.889  13.848 -0.1650 -0.0066 -0.0152
32065W        W45479   7.207   1.575  12.220  0.1733  0.2092 -0.1779
32066W        W45480   2.824   6.385  13.903  0.0409 -0.0084 -0.0920
32067W        W45481   3.912  13.760   4.322  0.1620  0.0247  0.1377
32068W        W45482   3.753  12.396  12.595  0.3539 -0.0586  0.1944
32069W        W45483   3.535   3.861   5.735  0.0243  0.0253 -0.1284
32070W        W45484   7.880  11.660   2.573 -0.0696  0.0204 -0.1442
32071W        W45485   7.152  14.919   6.104 -0.0072 -0.0983 -0.0068
32072W        W45486   7.720  12.825   4.808  0.0473 -0.0670  0.2718
32073W        W45487   1.261  13.712  12.865  0.1893 -0.1138  0.0467
32074W        W45488   3.938  11.197  11.602 -0.1652  0.0886  0.4256
32075W        W45489   7.261  17.780   3.013  0.3783 -0.3908  0.0379
32076W        W45490   5.708   0.006  15.090  0.0683 -0.1765 -0.1473
32077W        W45491   9.022  10.287   0.596 -0.0412  0.0782 -0.0112
32078W        W45492  17.593   3.407  13.469 -0.4523  0.0047  0.0480
32079W        W45493   7.699   7.133  14.644 -0.0939  0.0539  0.1369
32080W        W45494   7.920   6.419  11.204 -0.2199  0.1566  0.0279
32081W        W45495  15.064   0.052   0.176 -0.1537  0.0872 -0.0552
32082W        W45496   5.257  17.437   3.321  0.0716 -0.1318 -0.2580
32083W        W45497   1.600   9.098  16.514  0.0788  0.1125  0.1289
32084W        W45498  17.037   6.199  15.852  0.0393  0.0615 -0.0446
32085W        W45499  16.380   5.827  11.744  0.0144 -0.0615 -0.2790
32086W        W45500  16.564  17.132   5.515 -0.3101  0.0847 -0.2799
32087W        W45501   9.909  17.861  16.592  0.1270  0.0962 -0.2271
32088W        W45502   3.656   4.569   0.297  0.1014  0.1161 -0.1041
32089W        W45503   2.666   6.155  15.546  0.1698  0.0482  0.1136
32090W        W45504  12.726   8.207   5.047  0.1002 -0.0169 -0.0462
32091W        W45505   1.660   6.882   5.656 -0.1379 -0.0666  0.0642
32092W        W45506   7.039  11.006   3.303 -0.1796  0.1509 -0.0301
32093W        W45507   3.104   6.111  11.777 -0.1685  0.0591  0.1209
32094W        W45508   0.417   6.731  15.783  0.1289 -0.1885 -0.0868
32095W        W45509  12.345   8.850  12.294 -0.0608 -0.0370  0.3860
32096W        W45510   0.787  14.238  15.991  0.1505 -0.0429 -0.1278
32097W        W45511  17.429  17.143  16.296 -0.2605  0.0509  0.2463
32098W        W45512  13.180  10.836   2.791 -0.0617 -0.1397 -0.2753
32099W        W45513  11.002  14.039   5.669 -0.1303  0.1686  0.1118
32100W        W45514  16.162  12.234   2.076 -0.1524  0.0326  0.1149
32101W        W45515   6.964  15.720   1.988  0.2644  0.0157 -0.2728
32102W        W45516  10.128  10.364   2.069 -0.0819  0.2591 -0.0477
32103W        W45517   3.769   9.586  15.880 -0.0241  0.3171 -0.0890
32104W        W45518  12.313  10.193   2.383 -0.3572  0.0649 -0.1236
32105W        W45519   2.645  13.015  13.272  0.1420 -0.1382 -0.0655
32106W        W45520  14.115  10.614  12.253 -0.4498  0.1059  0.1145
32107W        W45521  13.376   5.703  15.311  0.0244 -0.1500  0.2445
32108W        W45522   2.530   7.560   2.616  0.0160  0.3831 -0.0759
32109W        W45523  15.087   6.949  13.137 -0.0018 -0.0423  0.0163
32110W        W45524   2.149   4.568  16.230  0.0207  0.1666  0.0920
32111W        W45525  16.399   8.771   2.381  0.1352 -0.1567 -0.0344
32112W        W45526   4.951  13.288  11.164  0.0698  0.0492  0.0256
32113W        W45527   2.301   5.064  16.173  0.0282 -0.1942 -0.2700
32114W        W45528  14.873  17.426   3.275  0.0107 -0.1547 -0.0326
32115W        W45529  16.540   5.791   1.895 -0.1585  0.3103  0.1344
32116W        W45530  10.901   6.387   0.324 -0.2250 -0.0246 -0.0554
32117W        W45531   0.712  13.083   4.584  0.0122 -0.0526  0.2473
32118W        W45532   0.357   2.933   1.344 -0.1172 -0.2906 -0.1444
32119W        W45533  14.875   4.378  13.487  0.0102  0.1918 -0.0985
32120W        W45534  15.001   5.641   0.201  0.5425  0.2762  0.0789
32121W        W45535   7.591  13.878  14.211 -0.3146  0.1833  0.1164
32122W        W45536   2.461  10.346  11.128  0.2673 -0.0823 -0.3349
32123W        W45537   1.218   8.002  11.624  0.1604  0.1719  0.0211
32124W        W45538  14.628   6.148  14.429 -0.3351  0.0031 -0.3082
32125W        W45539   9.759   3.320   0.665 -0.2433 -0.3753 -0.0646
32126W        W45540  14.683  11.360   0.997  0.2379  0.1703  0.0654
32127W        W45541   3.191   8.719  12.472  0.1703 -0.3162 -0.3577
32128W        W45542   6.278  10.050   5.854  0.1122 -0.3794 -0.1327
32129W        W45543  13.040   7.944  13.042 -0.0746  0.2142  0.1134
32130W        W45544   6.732   0.484  15.792  0.2905 -0.0422 -0.0684
32131W        W45545   8.544   9.470  16.130 -0.0181 -0.0145 -0.1089
32132W        W45546   6.168   6.805  12.498  0.2037  0.2264 -0.0469
32133W        W45547   4.711  16.620  15.382  0.2549  0.1932 -0.2028
32134W        W45548   3.011   3.042   0.417  0.0371 -0.1665  0.1021
32135W        W45549   4.207   8.016  15.379  0.0583 -0.1674 -0.1356
32136W        W45550   1.080  14.328   4.181  0.1435 -0.0271  0.0413
32137W        W45551   9.837  17.124  14.190 -0.1902 -0.0840 -0.2185
32138W        W45552   7.565  13.351  13.512  0.1357 -0.1927 -0.0507
32139W        W45553   2.341   5.400   2.470 -0.0877  0.2540  0.1995
32140W        W45554  13.526   2.615  14.967 -0.3063 -0.1372  0.3628
32141W        W45555  16.983   4.468  12.459  0.2820  0.4194  0.0415
32142W        W45556  13.910   7.173  15.195 -0.0088  0.0094 -0.2357
32143W        W45557   1.620  13.784   5.032 -0.0283  0.3065 -0.2892
32144W        W45558   4.938   3.824  15.391  0.2209 -0.2181  0.0741
32145W        W45559   5.347   2.563   1.339 -0.1037 -0.0921  0.1883
32146W        W45560  11.460  16.352   2.469  0.0290  0.0739 -0.0538
32147W        W45561  11.339   1.981   0.608  0.1401 -0.0121 -0.2054
32148W        W45562  14.669   9.284   3.590  0.1360  0.1612  0.1584
32149W        W45563   2.425  12.052  12.151 -0.0253 -0.2285  0.1335
32150W        W45564   6.732  16.251   2.970  0.0698  0.0685  0.1329
32151W        W45565  15.993   2.740   1.089 -0.2407 -0.0005 -0.0894
32152W        W45566  10.349   5.226  11.557  0.3151  0.0277  0.3687
32153W        W45567   1.497   2.338   3.588 -0.0139 -0.1797  0.0373
32154W        W45568  15.195   0.125  16.491 -0.3551 -0.0133  0.0888
32155W        W45569   3.493   9.809   5.508 -0.0850  0.2475  0.2797
32156W        W45570   3.887   8.452   1.072 -0.0133  0.1143  0.0702
32157W        W45571   5.198  10.889   2.912  0.0723  0.2757 -0.1698
32158W        W45572   6.285   6.749   0.155 -0.0983  0.0537  0.2211
32159W        W45573  10.438   6.265   0.615 -0.4092  0.1152 -0.0261
32160W        W45574  17.755  10.316  11.862  0.0855  0.1841 -0.0375
32161W        W45575   0.216  12.262  15.689 -0.1430 -0.0766 -0.1449
32162W        W45576   6.265  10.527   6.789  0.0359 -0.4676 -0.3974
32163W        W45577   2.826  11.594   6.575  0.0474 -0.2187 -0.0513
32164W        W45578   8.620  11.101  16.285  0.4018 -0.0604  0.3930
32165W        W45579  11.868  14.519   1.061 -0.0198  0.4149 -0.0108
32166W        W45580   5.745  14.448   1.253 -0.1448 -0.1549  0.0763
32167W        W45581   8.737  15.236  11.679  0.0932 -0.1040  0.1006
32168W        W45582   2.995  17.263   4.131  0.1511  0.0661  0.1882
32169W        W45583   0.636  15.748   2.826 -0.0163  0.2805 -0.2181
32170W        W45584  11.561  14.441   2.032  0.0900 -0.3943 -0.0066
32171W        W45585   9.653   7.533  14.270 -0.0929  0.1702 -0.0196
32172W        W45586  12.039  10.702   5.082 -0.1190  0.1836 -0.0554
32173W        W45587  10.435  15.370   1.662 -0.1419 -0.0463  0.3887
32174W        W45588  12.203   2.590  11.453  0.0223  0.0647  0.2577
32175W        W45589  14.860   4.332   4.959  0.1161  0.1675  0.1312
32176W        W45590  13.708  10.812  13.392 -0.2923 -0.2458 -0.2107
32177W        W45591   7.767   1.845  15.912  0.2748  0.1871 -0.3491
32178W        W45592  13.510   1.821  15.384 -0.1959 -0.0750 -0.0224
32179W        W45593   8.125  17.649   5.946  0.0311 -0.3190  0.0035
32180W        W45594   5.792  14.833  10.776 -0.1227  0.0182  0.0506
32181W        W45595   1.955  11.233   1.870 -0.0159  0.1239  0.0824
32182W        W45596  12.801   2.377   2.287 -0.0446 -0.0382  0.0926
32183W        W45597   9.011   6.868   2.516  0.0892 -0.2211 -0.0420
32184W        W45598   6.453   1.681   3.929 -0.0819 -0.1492  0.1201
32185W        W45599  16.537  17.930   2.765  0.2785 -0.0140 -0.2253
32186W        W45600   4.032   9.687   4.045 -0.4117 -0.0163 -0.1268
32187W        W45601  16.355   8.793   3.401  0.0703 -0.1875 -0.0207
32188W        W45602  15.097   2.554   4.635  0.0440  0.2962  0.0465
32189W        W45603  16.307   1.242  16.475 -0.0283 -0.0842  0.0842
32190W        W45604  16.988  11.808  12.514 -0.1131 -0.1318  0.0606
32191W        W45605  12.012   9.106  15.682  0.0470 -0.1244  0.1546
32192W        W45606   7.968   6.051  13.818  0.3098  0.1489 -0.3107
32193W        W45607   7.255   8.233   2.020 -0.2921  0.0630 -0.1463
32194W        W45608  13.661  15.814  12.498  0.1862  0.0835  0.0569
32195W        W45609   3.623  14.714   1.788 -0.1604 -0.0106 -0.0744
32196W        W45610   5.624  10.977  11.634 -0.0433  0.0400 -0.1094
32197W        W45611   1.288   0.545   2.843  0.0872  0.2985  0.2462
32198W        W45612  16.929  10.112   1.451  0.0616 -0.1070  0.0048
32199W        W45613  11.932   1.377   0.358 -0.1726  0.2568  0.0574
32200W        W45614  10.955   4.965   1.760  0.0780 -0.2045  0.2822
32201W        W45615   8.145  12.574   0.648  0.0702  0.0725 -0.3280
32202W        W45616   0.640  11.486  11.768  0.4737  0.1601 -0.1378
32203W        W45617  11.107   6.749  13.632 -0.0801 -0.0717 -0.0674
32204W        W45618  11.202  16.834  16.491  0.1708  0.2791 -0.1545
32205W        W45619  10.826  17.560  14.227 -0.3916 -0.1404 -0.0160
32206W        W45620   1.669   6.448  12.304  0.0203  0.3307  0.2929
32207W        W45621   0.393  16.426  15.768 -0.1142  0.0726  0.0934
32208W        W45622   7.125  17.728   3.554  0.3258  0.1724 -0.1091
32209W        W45623  11.186   1.790   1.769  0.0314  0.1059 -0.1238
32210W        W45624  12.668   0.277   0.543  0.0293  0.0475 -0.1143
32211W        W45625  14.937  10.626  15.887 -0.1218  0.1648 -0.2248
32212W        W45626  11.427   1.938   1.321 -0.3131  0.1377  0.3235
32213W        W45627   1.650  11.542   5.222 -0.0557 -0.1992 -0.0826
32214W        W45628  16.468   4.765  12.095 -0.0866  0.0524 -0.1359
32215W        W45629   2.818  13.166   2.796  0.0242  0.3625 -0.1590
32216W        W45630  10.807   7.451  16.098 -0.1277 -0.1280 -0.0338
32217W        W45631   4.318  15.014  11.061 -0.2463  0.0260  0.1442
32218W        W45632   0.864   3.614  11.245  0.1113 -0.1802  0.1442
32219W        W45633   5.234  13.413  12.721  0.2100 -0.0983  0.3486
32220W        W45634   6.738   3.180  16.623  0.1356  0.1429  0.3478
32221W        W45635   9.360   3.980  12.134 -0.1076  0.4124  0.1872
32222W        W45636  13.917   5.978   4.621  0.1072  0.2391  0.0686
32223W        W45637  11.578   7.284   1.808 -0.2243 -0.2693 -0.0248
32224W        W45638   3.506   9.908  14.279  0.2855  0.1172  0.0860
32225W        W45639  12.042  15.405   1.082  0.1459 -0.2667  0.1765
32226W        W45640   4.663  13.352  14.826 -0.0478 -0.0103  0.1505
32227W        W45641   2.795  15.822  12.627  0.0796 -0.1155  0.1688
32228W        W45642  10.373  12.939  15.872 -0.1428 -0.1566  0.2932
32229W        W45643   3.296  11.538   0.541  0.2099 -0.0754 -0.0138
32230W        W45644   7.106  12.873   4.500  0.1036  0.0918 -0.2621
32231W        W45645   2.053  15.519  11.474 -0.1434 -0.0522 -0.4498
32232W        W45646   9.181  17.552   0.736  0.0189  0.1652 -0.0261
32233W        W45647  16.355   3.886   5.574  0.0817  0.1664  0.0310
32234W        W45648  16.943  16.775   5.480 -0.1023 -0.0757  0.0354
32235W        W45649   1.286   5.677  16.062  0.0144  0.2394  0.1491
32236W        W45650  17.888   7.441  11.932 -0.2456  0.1669 -0.0682
32237W        W45651   2.011   6.077   1.774 -0.0080 -0.0444 -0.0344
32238W        W45652   9.994  15.640  16.096 -0.0154  0.1245  0.0621
32239W        W45653  11.270   0.834   5.933 -0.2374  0.1829  0.1140
32240W        W45654   2.927  13.439   1.956 -0.1111  0.1914  0.2873
32241W        W45655  15.600  15.292   0.264 -0.1700 -0.1240 -0.1843
32242W        W45656   0.138  14.861  11.873 -0.2994 -0.3386 -0.0095
32243W        W45657   6.087   1.641   0.907  0.1613 -0.2433  0.0240
32244W        W45658   6.840  14.764   0.487  0.0707 -0.1243 -0.3103
32245W        W45659  15.617  15.432  12.201 -0.2322 -0.4514  0.2781
32246W        W45660   8.608   5.954  10.572  0.0498  0.2382  0.1043
32247W        W45661   5.346   0.478   4.198  0.0677 -0.2910 -0.1164
32248W        W45662  14.092   3.377   0.023 -0.1136  0.0782 -0.2717
32249W        W45663   8.377   1.035   0.534 -0.1194 -0.2023 -0.1915
32250W        W45664   9.672   8.995   0.557  0.0386 -0.1242 -0.0683
32251W        W45665   9.972   9.856  15.060 -0.3459  0.0122  0.1164
32252W        W45666  13.554  17.101  10.586  0.0631  0.3053  0.1996
32253W        W45667  13.359  16.193   0.709 -0.4749 -0.0294  0.0923
32254W        W45668   7.096  16.135  11.626 -0.2462  0.0254 -0.0374
32255W        W45669   7.592  10.638   4.340 -0.4773 -0.0026 -0.0368
32256W        W45670   0.008   8.662   5.763 -0.3052  0.1513 -0.1828
32257W        W45671  15.377   6.042  15.277 -0.3163  0.0213 -0.1050
32258W        W45672   4.437   9.699   0.494  0.2922 -0.1464 -0.0917
32259W        W45673  10.194  16.184   6.589 -0.0054 -0.0740 -0.0949
32260W        W45674   9.573   9.402   6.671 -0.2317 -0.0542 -0.1089
32261W        W45675  16.170   5.248   2.614 -0.3340 -0.3182  0.1796
32262W        W45676  15.445   4.324  16.236 -0.2719  0.2267 -0.1314
32263W        W45677  17.060   9.676  11.396  0.0539 -0.2433  0.2027
32264W        W45678  13.576   5.703  11.502 -0.1266 -0.2938 -0.3084
32265W        W45679  15.481   8.430  15.454  0.0391  0.4358  0.0437
32266W        W45680   5.211  11.817  16.409  0.0868 -0.0221 -0.0730
32267W        W45681   4.823  17.117  15.240  0.4201  0.0516 -0.0457
32268W        W45682   2.651   8.694  13.328  0.1492  0.0663 -0.0997
32269W        W45683  14.107   7.658   6.234 -0.0505 -0.1990 -0.0943
32270W        W45684   2.788   0.737  16.581 -0.1086 -0.0314  0.0977
32271W        W45685   3.867   5.330   5.631 -0.1026  0.1068 -0.0178
32272W        W45686  11.873   7.579  13.261  0.1639  0.1143 -0.1891
32273W        W45687  11.309   3.499  14.134  0.0888 -0.0885  0.2880
32274W        W45688  11.383  12.475   1.163 -0.1146 -0.1129 -0.0935
32275W        W45689   5.248   6.617   3.349 -0.0618  0.1880  0.0040
32276W        W45690   3.371   5.252   2.492  0.1561  0.0481 -0.1716
32277W        W45691   6.496   9.318   4.303  0.1260 -0.0760  0.2872
32278W        W45692   2.225   7.179  12.928 -0.1402  0.3877 -0.1817
32279W        W45693  16.848  14.593   0.597 -0.0007 -0.1301 -0.0945
32280W        W45694  17.203  10.163  11.112 -0.1178 -0.2941  0.1196
32281W        W45695   0.446  17.028   2.433  0.2409  0.2510  0.1982
32282W        W45696   7.346   2.778   0.889 -0.3313 -0.3157 -0.2113
32283W        W45697  14.759   8.238   4.348 -0.1114  0.1499  0.2250
32284W        W45698   0.429  10.370  15.907 -0.2773 -0.1914  0.1199
32285W        W45699   1.672   9.223  11.235  0.0771 -0.0517 -0.1565
32286W        W45700  15.161  12.053   6.672  0.1793 -0.0599  0.4049
32287W        W45701  14.666   4.303  13.047  0.2027  0.1766  0.3571
32288W        W45702   2.142   5.381  15.813 -0.1013  0.5440  0.3277
32289W        W45703   0.607   3.399   3.685 -0.0698  0.3826 -0.1892
32290W        W45704   7.926   2.688  15.149 -0.0412 -0.0173  0.1938
32291W        W45705   8.510   9.825   0.439 -0.2041  0.0397 -0.0723
32292W        W45706  16.041  16.328  16.363 -0.3682 -0.1416 -0.0757
32293W        W45707  11.681  13.771   7.248 -0.0476 -0.1869  0.0530
32294W        W45708  15.196  12.493   0.520 -0.0726  0.0845  0.1503
32295W        W45709   7.287   4.062  11.304  0.3192 -0.2865 -0.0096
32296W        W45710   3.438   6.016   0.981 -0.1418 -0.0601  0.2201
32297W        W45711   8.634   0.196  14.545  0.0409  0.0257  0.1920
32298W        W45712   8.199  15.876  12.035 -0.2206  0.0306 -0.1697
32299W        W45713   4.792  12.073  15.673 -0.0747 -0.2283 -0.0709
32300W        W45714   9.925   6.573   2.919 -0.0901 -0.5021 -0.2728
32301W        W45715  11.547  13.412   4.415  0.1608 -0.0955 -0.1064
32302W        W45716   6.410  16.369   5.581 -0.1214 -0.2072  0.0680
32303W        W45717  15.978   1.454  11.174  0.3296  0.0794  0.0018
32304W        W45718  13.119  10.612  14.626 -0.2454 -0.0133 -0.0651
32305W        W45719  10.613   4.825   4.596 -0.1067  0.2565 -0.1887
32306W        W45720   9.343   2.098  11.300  0.2805 -0.1935  0.0122
32307W        W45721   9.816  12.065  12.472  0.0941  0.0976  0.0573
32308W        W45722  14.383   1.301   0.222  0.0792  0.3304 -0.1824
32309W        W45723  12.630   0.474   2.341  0.0826  0.1039 -0.2913
32310W        W45724  14.564   7.821   5.882  0.0018 -0.0743  0.5535
32311W        W45725   2.935   6.588  14.335 -0.1808  0.0027  0.0099
32312W        W45726  13.278   6.605   3.466 -0.3331  0.1122 -0.1481
32313W        W45727   1.866   4.790   1.925  0.1628 -0.2278  0.1124
32314W        W45728   9.215  14.523  11.626 -0.0140 -0.1075  0.1785
32315W        W45729  13.536   9.808   4.690  0.1601 -0.0579  0.1369
32316W        W45730  13.903   7.829   3.896  0.0789 -0.2518  0.1383
32317W        W45731   7.327  10.982  12.070  0.1604  0.1380  0.1281
32318W        W45732  16.161   9.959  14.000 -0.2923  0.1014 -0.1200
32319W        W45733  12.896   0.854   2.984 -0.0937 -0.0471 -0.1119
32320W        W45734   2.060  16.013   3.032  0.1780  0.1263  0.2206
32321W        W45735  13.908   0.695  16.515 -0.1826  0.1141 -0.1016
32322W        W45736  10.863  10.042   6.297  0.0169  0.0437 -0.3812
32323W        W45737   2.567   2.934  14.766 -0.1347 -0.0033  0.0876
32324W        W45738   7.633  16.291   4.091 -0.4727  0.2693 -0.2255
32325W        W45739   5.762  11.111   3.621  0.0078 -0.0190 -0.0263
32326W        W45740   3.503   0.229   0.101  0.1820 -0.2457  0.0704
32327W        W45741   1.705   1.697  16.478 -0.0015 -0.1268 -0.0975
32328W        W45742  13.240   6.828  13.924 -0.1123  0.0636  0.0574
32329W        W45743  14.467  12.088  11.912  0.2209 -0.0122  0.2861
32330W        W45744   7.595   5.888   6.343  0.1188  0.0618 -0.0780
32331W        W45745  16.118  10.898  12.079 -0.1673  0.1702  0.0595
32332W        W45746  11.239   5.931   0.330  0.1480  0.0110 -0.2285
32333W        W45747   1.331   0.012   3.751 -0.1494  0.3991 -0.1624
32334W        W45748  13.646  11.942   3.843 -0.1612  0.0171 -0.0234
32335W        W45749  14.092  12.757  14.411 -0.0014  0.0891 -0.0162
32336W        W45750  17.481  10.454   1.643  0.2835 -0.2144 -0.2364
32337W        W45751  17.642  11.406  16.660 -0.2020  0.0803 -0.0174
32338W        W45752  14.996   6.542   4.135  0.0290 -0.1784  0.2886
32339W        W45753  13.717   6.581   3.165 -0.0615 -0.2151 -0.0724
32340W        W45754   7.503   8.066   1.568 -0.0087 -0.3722  0.0443
32341W        W45755  15.449  16.237  12.713 -0.1748  0.1557 -0.1398
32342W        W45756   4.071   2.185  16.552  0.0855 -0.1494  0.1150
32343W        W45757   4.703   3.663  16.276 -0.4964  0.0166  0.1216
32344W        W45758  14.045  17.887   4.763  0.2032 -0.2565 -0.1321
32345W        W45759   2.863  15.065   1.466 -0.1164  0.1710 -0.0748
32346W        W45760   7.994  14.356   1.541  0.1312  0.0613 -0.0967
32347W        W45761   4.792  16.779   0.196 -0.0503 -0.0262  0.0946
32348W        W45762   0.448   2.540  15.034 -0.0580  0.0810  0.2224
32349W        W45763  17.043   4.541   2.761  0.0049 -0.1700 -0.0826
32350W        W45764   7.807   1.220  14.439  0.3207 -0.0377 -0.2129
32351W        W45765  13.894   3.456   4.412  0.1046 -0.1148  0.3510
32352W        W45766  10.710   1.192   0.508  0.2264 -0.4825  0.2628
32353W        W45767  12.526   7.495   3.148 -0.0354 -0.0589  0.1323
32354W        W45768   7.210   0.634   3.917 -0.1251  0.0091 -0.0034
32355W        W45769  11.949   3.046  12.992  0.3399 -0.2713 -0.2025
32356W        W45770  11.409   7.673  13.490  0.2674 -0.4128 -0.0973
32357W        W45771   5.521  11.446   4.039  0.0104 -0.2719  0.1595
32358W        W45772   0.880  12.906   5.030  0.1013 -0.0834  0.3900
32359W        W45773  16.913  14.437  14.881  0.2300  0.0571  0.1201
32360W        W45774   5.836   2.498  14.013 -0.1053 -0.2763  0.0410
32361W        W45775   3.214   4.833  16.225 -0.0313 -0.3292  0.0097
32362W        W45776  10.912  10.308   3.193 -0.1257 -0.1911 -0.0511
32363W        W45777   0.117  16.252   5.923  0.3490  0.0618 -0.0664
32364W        W45778   5.705  13.599  16.019  0.2104 -0.4332 -0.1103
32365W        W45779   4.217  10.625  10.504 -0.2129  0.0989  0.0821
32366W        W45780  11.670   5.076  15.142  0.2509  0.0562  0.1068
32367W        W45781  16.088   4.826   5.345  0.1868  0.0318 -0.0957
32368W        W45782   9.149   8.447   4.653  0.2507  0.1396  0.0790
32369W        W45783   2.956   4.542   2.785 -0.2124 -0.0083  0.1538
32370W        W45784  14.443  11.949  14.306 -0.2410 -0.1059  0.0805
32371W        W45785  10.650   3.600   2.898  0.1199 -0.1089 -0.0413
32372W        W45786   9.005   5.588  12.214 -0.1440  0.1451  0.1771
32373W        W45787   0.999   2.397   3.767 -0.3953  0.0020 -0.0441
32374W        W45788   1.021   0.985  11.505 -0.3270  0.1756 -0.0724
32375W        W45789  17.610  16.376  13.719 -0.1499 -0.1985 -0.1709
32376W        W45790  13.339   4.902  10.319  0.2051  0.3717 -0.0599
32377W        W45791   4.948  13.009  13.299  0.1277 -0.1628 -0.1751
32378W        W45792   3.648  11.472  13.539  0.2614  0.0340 -0.0070
32379W        W45793   5.159   6.921  11.058  0.0100  0.0176  0.1027
32380W        W45794   9.204   2.926  15.192 -0.1857  0.0420 -0.0365
32381W        W45795  16.153  15.311   0.350 -0.1161  0.0828  0.0179
32382W        W45796  12.383  11.164  16.162  0.2823 -0.3373 -0.0417
32383W        W45797  12.143  15.460   6.185 -0.0791 -0.0554 -0.3257
32384W        W45798   0.583  15.446   1.824  0.0525  0.2200 -0.0969
32385W        W45799  15.761  14.940  12.854  0.1239 -0.1890 -0.0978
32386W        W45800   2.903  13.511  12.433  0.3150 -0.0222  0.2051
32387W        W45801  12.987   8.272   0.889 -0.2998 -0.0051  0.2568
32388W        W45802   7.487  17.053   1.059  0.0580 -0.0961  0.1230
32389W        W45803   3.733   2.074   0.125  0.1641  0.0505 -0.0346
32390W        W45804   6.442   5.035   0.381  0.1598 -0.0411  0.0787
32391W        W45805   7.337   0.750  13.106 -0.2506 -0.1992 -0.1552
32392W        W45806   0.757   0.711   2.025 -0.0769  0.2577  0.0125
32393W        W45807  11.547  15.737  14.301  0.0995  0.0780 -0.1710
32394W        W45808   6.275   6.049   1.880  0.2086  0.0706  0.2751
32395W        W45809   4.799  14.969  14.159  0.0886  0.0418 -0.0158
32396W        W45810  12.635  17.426   4.103  0.0644 -0.1880 -0.1988
32397W        W45811  11.191   2.781   4.485  0.0288  0.3372 -0.0184
32398W        W45812   0.734  14.147   2.866 -0.1802  0.0485 -0.0462
32399W        W45813  13.455   8.061  12.561  0.1382  0.0439 -0.0538
32400W        W45814  17.530   2.835  14.686 -0.1153 -0.0398 -0.1237
32401W        W45815   5.338   9.340  10.854 -0.2410 -0.3794 -0.1686
32402W        W45816   4.971  10.913   2.086  0.0878 -0.0921  0.3434
32403W        W45817   5.515   3.639  15.809  0.1229 -0.0639 -0.2065
32404W        W45818   4.746  17.631   4.618 -0.1059 -0.3469  0.3114
32405W        W45819  11.756   1.632  11.472 -0.0765  0.2946  0.1137
32406W        W45820  12.282   1.209  13.708  0.0808 -0.3289 -0.6125
32407W        W45821  10.777   1.601   5.217 -0.1981 -0.1135  0.0603
32408W        W45822  14.509   5.979  15.472  0.4400 -0.1769  0.0713
32409W        W45823  10.785   0.256  12.331  0.1237 -0.3337 -0.2304
32410W        W45824  15.611   9.849  14.673  0.0923  0.0771 -0.2243
32411W        W45825  15.155   1.660  14.893 -0.1699  0.3289  0.0683
32412W        W45826  13.609  12.167  13.810 -0.1720  0.0365  0.1874
32413W        W45827   0.090  14.130   5.949 -0.2241  0.1020 -0.2512
32414W        W45828   7.476  15.267   0.816  0.3100 -0.0654 -0.0694
32415W        W45829  16.485  12.269  15.248 -0.2355 -0.0027  0.0253
32416W        W45830   7.350   7.863   2.949  0.2188 -0.0798  0.1200
32417W        W45831   7.670   4.038  12.482 -0.0079  0.1168  0.1965
32418W        W45832  11.741  17.112  14.637  0.0332  0.0136  0.0808
32419W        W45833  10.993   1.693  15.206 -0.0913  0.1935 -0.1295
32420W        W45834   7.655   4.362   9.912  0.1204 -0.1097  0.3968
32421W        W45835   7.523   1.981  14.064 -0.0811  0.0130 -0.0837
32422W        W45836  12.784   0.566   4.238  0.0416 -0.0508  0.0107
32423W        W45837  14.256   0.964  14.564  0.0041  0.0780  0.2440
32424W        W45838  12.411   2.353  11.959  0.1860 -0.1387 -0.1833
32425W        W45839   5.810  14.350  15.457  0.0375  0.0762 -0.1219
32426W        W45840   9.279  11.206   6.092  0.2433  0.2957 -0.1135
32427W        W45841  10.426   3.460  12.033  0.2050 -0.0715  0.0084
32428W        W45842  12.260   0.576  14.596  0.1218 -0.3392 -0.0590
32429W        W45843  16.669   2.634   1.825 -0.1690  0.1347  0.3325
32430W        W45844   5.037  12.216  16.097 -0.1236 -0.3789 -0.3091
32431W        W45845  15.341  16.616   2.445  0.0051 -0.0034 -0.2444
32432W        W45846  10.186  13.767  11.996  0.2091  0.0818  0.4613
32433W        W45847   5.394   2.888  11.578 -0.0358  0.0323  0.1609
32434W        W45848  15.507  17.588   1.512 -0.1914 -0.1225  0.2499
32435W        W45849   0.120   4.444  11.532  0.1791 -0.0377 -0.4703
32436W        W45850  13.568  12.909   6.228 -0.0314  0.2240  0.2156
32437W        W45851   5.335  14.686   0.463  0.1459  0.0008  0.1393
32438W        W45852  16.579  15.270  10.587 -0.2702  0.0424  0.1412
32439W        W45853  11.122  10.778   0.976  0.2362  0.3468  0.1629
32440W        W45854   3.698  10.164  12.155  0.0927 -0.1212 -0.2833
32441W        W45855   4.010  12.124   4.398 -0.0054  0.1526 -0.1401
32442W        W45856   3.651   7.759  10.377 -0.0305  0.0856 -0.0180
32443W        W45857  14.632   0.325   5.643  0.0436 -0.0898  0.0514
32444W        W45858  12.776  13.875  15.000 -0.0700 -0.1666 -0.3239
32445W        W45859   9.223   4.265  11.623 -0.0774 -0.1969 -0.0362
32446W        W45860  14.153   8.463   3.700 -0.1988  0.1730 -0.1290
32447W        W45861   3.462   8.416  13.209 -0.0973  0.1827  0.0183
32448W        W45862  13.606  13.274  13.174  0.0764  0.0647 -0.0523
32449W        W45863  16.041   1.546  16.224  0.0077 -0.2105  0.3351
32450W        W45864   5.611   3.268  13.890  0.0362 -0.0744  0.1490
32451W        W45865   4.937   8.297  12.045  0.4329  0.0796 -0.0151
32452W        W45866   0.677   7.603  12.984 -0.1133 -0.1269 -0.0889
32453W        W45867  17.921   7.434   3.440  0.0814  0.1628 -0.1928
32454W        W45868   8.846   0.209  11.571  0.2873  0.1058 -0.0115
32455W        W45869   5.718  16.189   3.246 -0.1748  0.1771 -0.2606
32456W        W45870   1.954  12.118   1.646 -0.1002 -0.2460 -0.0505
32457W        W45871  16.990  16.414   1.404 -0.3482 -0.0276 -0.0164
32458W        W45872   7.753   3.068  14.890 -0.0643 -0.1627  0.0704
32459W        W45873   0.811   0.958  13.544 -0.0128  0.1131 -0.0646
32460W        W45874  14.893   1.240  12.440 -0.1398 -0.0897  0.0103
32461W        W45875  16.333   1.092  10.952 -0.0361 -0.0252  0.3901
32462W        W45876   7.114  13.606   3.210 -0.2423  0.1244 -0.0410
32463W        W45877  11.764   7.791  15.829 -0.0511  0.0588  0.0184
32464W        W45878  12.595   8.543   3.783 -0.0313 -0.1086 -0.1335
32465W        W45879  14.134   9.375  15.072 -0.0716 -0.2342 -0.2032
32466W        W45880   4.891   3.584   0.831 -0.0802 -0.0054  0.0858
32467W        W45881  17.635   2.958  11.839 -0.1780  0.2099  0.0363
32468W        W45882   5.449  17.250   5.672 -0.1422 -0.0755 -0.1318
32469W        W45883   9.089  12.270   4.099 -0.0253  0.0455 -0.1865
32470W        W45884  11.156   5.763  16.224 -0.1322 -0.2088  0.1277
32471W        W45885   9.974   3.048  15.861  0.0035  0.2293 -0.0440
32472W        W45886   5.226  17.644   2.029  0.1521  0.0935 -0.3739
32473W        W45887   5.235  17.934  15.184 -0.0371  0.1144 -0.0826
32474W        W45888  16.378   3.226  13.017  0.1657  0.2576  0.0107
32475W        W45889  12.066   1.270  11.331  0.0911 -0.1416  0.1187
32476W        W45890  10.364   1.345   5.012 -0.1269 -0.0824 -0.0845
32477W        W45891   1.661   7.908  15.171 -0.0464  0.0379 -0.2121
32478W        W45892   8.634   6.108   2.995  0.0745  0.0838 -0.4412
32479W        W45893  14.822  13.095   5.090  0.0801 -0.2390 -0.0738
32480W        W45894   4.938  11.843   5.748  0.0969 -0.1134 -0.0233
32481W        W45895  12.667   6.765   5.973  0.1230  0.0064  0.0656
32482W        W45896   2.085  13.392  15.687 -0.0454  0.1503  0.2784
32483W        W45897   5.256  15.329   4.332 -0.1930  0.2325 -0.1510
32484W        W45898  16.743   3.047   5.580  0.1060 -0.1080 -0.2060
32485W        W45899   2.432  17.948  13.449  0.0702 -0.2412 -0.5661
32486W        W45900  11.953  13.044  14.079 -0.1149  0.1734 -0.5164
32487W        W45901   3.407   9.705  11.960  0.0157 -0.0084 -0.0997
32488W        W45902   7.092  15.911  13.775  0.1543  0.1128 -0.2620
32489W        W45903   6.812  10.616   0.697  0.1838  0.1325  0.2121
32490W        W45904  17.620   7.322  14.377  0.1255 -0.1204  0.0437
32491W        W45905  15.666   3.971   2.519 -0.0024  0.1030 -0.1749
32492W        W45906  17.825   6.872  14.628 -0.2446 -0.2706 -0.2784
32493W        W45907   0.473   5.909   3.809 -0.2158  0.0480  0.0256
32494W        W45908  15.127  13.411   4.845 -0.1979  0.0782 -0.1581
32495W        W45909  17.523  12.311  14.355 -0.1441  0.0246 -0.1726
32496W        W45910   3.876   7.683   5.073  0.1427  0.2110  0.3309
32497W        W45911   0.239   1.251   4.334 -0.0119  0.2433  0.1174
32498W        W45912   5.760   9.140   3.421  0.3402 -0.0980  0.1490
32499W        W45913   1.169  13.691  11.905 -0.0046  0.0475 -0.1530
32500W        W45914   3.137  11.683  16.382 -0.0709  0.2436 -0.0842
32501W        W45915  10.963   3.192  14.242 -0.3366 -0.1230  0.0966
32502W        W45916  15.685   5.268   4.597 -0.1741  0.0010  0.2000
32503W        W45917   8.742  13.511   6.462 -0.0013  0.1029  0.0833
32504W        W45918  17.217   8.078   5.180  0.1420 -0.1833  0.2333
32505W        W45919   6.939   3.536  13.182  0.1652  0.0025 -0.1302
32506W        W45920   4.388   1.219  15.502 -0.2998 -0.0015  0.1188
32507W        W45921   5.415  12.663  15.133  0.0675  0.0146 -0.1455
32508W        W45922   9.559  13.408  16.711  0.0968  0.0646 -0.0250
32509W        W45923   9.823  15.113  15.808  0.2769 -0.0714 -0.1432
32510W        W45924  14.453  15.376   0.893  0.0927 -0.1521 -0.1472
32511W        W45925   0.982  12.085   2.650 -0.1044  0.0670 -0.0343
32512W        W45926  16.297  17.776  14.350 -0.0851 -0.2432  0.0333
32513W        W45927   4.782   7.363   0.700  0.1556  0.0593  0.0313
32514W        W45928  16.247  16.159   0.183 -0.0269 -0.0596 -0.1446
32515W        W45929   9.496   1.124   1.706 -0.0970 -0.2290 -0.1332
32516W        W45930  16.730  17.964   1.934  0.0235 -0.0254  0.0577
32517W        W45931  13.926   8.729   6.069  0.4592 -0.1021  0.3345
32518W        W45932   5.241  10.328   2.146  0.2637 -0.1025 -0.0395
32519W        W45933   8.363   8.792   4.025  0.0673 -0.0668  0.0155
32520W        W45934  15.569   0.597  16.539  0.0676 -0.0746  0.1812
32521W        W45935   0.186   9.189  13.576  0.2379 -0.2259 -0.4087
32522W        W45936  16.553   6.855  16.534 -0.3158  0.1890  0.1276
32523W        W45937  16.600   3.921   0.529  0.1885 -0.2676  0.4098
32524W        W45938  16.367  17.216  16.488  0.1133  0.3915 -0.0439
32525W        W45939   4.542  10.740  16.220  0.4267  0.0001  0.0267
32526W        W45940   7.031   3.795   2.661 -0.0663  0.0032  0.1832
32527W        W45941  15.601   4.867   5.131 -0.0471  0.3318  0.0168
32528W        W45942  15.283  14.778  16.683 -0.0555  0.3237 -0.1544
32529W        W45943   2.324   5.479   3.484 -0.0255 -0.3759 -0.1242
32530W        W45944   3.713   5.995  14.495 -0.1632 -0.1085  0.1195
32531W        W45945   7.937   9.760  11.966  0.1557 -0.1660  0.2012
32532W        W45946  17.500   0.867  16.387  0.1837 -0.3582 -0.1709
32533W        W45947   5.117   9.562   2.588 -0.1951  0.2839 -0.0812
32534W        W45948  12.191   9.820  12.752 -0.0620  0.0653  0.2461
32535W        W45949  12.671   8.426  13.818  0.1899 -0.0598 -0.2570
32536W        W45950  14.881  14.269   6.316 -0.0524 -0.1327  0.3170
32537W        W45951  10.293  12.222   4.664  0.0978  0.1989 -0.1078
32538W        W45952   8.720   1.126  16.472  0.0102  0.0048 -0.1681
32539W        W45953   8.443   3.688   1.309 -0.1565 -0.1771 -0.0158
32540W        W45954  10.163  12.938  13.459 -0.2691  0.0357 -0.0647
32541W        W45955   4.249   8.355  16.118  0.1514  0.0732 -0.2442
32542W        W45956   8.337   9.898   4.978 -0.0391  0.2780 -0.0994
32543W        W45957   6.203   3.077  11.716  0.0518 -0.0738  0.1974
32544W        W45958   0.042   2.330  14.167  0.1138  0.0745 -0.1850
32545W        W45959  17.348  11.534   4.555  0.1016 -0.0439 -0.2638
32546W        W45960  16.750   9.925   1.879  0.1275  0.0106  0.3791
32547W        W45961  12.716  16.887  15.865 -0.0934 -0.1089 -0.3166
32548W        W45962   9.369   5.584   3.931  0.2356 -0.2481  0.2330
32549W        W45963   6.792   9.026  11.973  0.1699  0.1028  0.1372
32550W        W45964   6.090   7.249  15.256  0.1618  0.3360 -0.1740
32551W        W45965  16.097   2.416  12.503 -0.1864  0.1017 -0.0724
32552W        W45966   4.083  14.964  15.874  0.1355  0.0107  0.0666
32553W        W45967   5.139   9.157   2.245  0.2348  0.3082  0.0115
32554W        W45968   6.453  11.811   2.423  0.0328 -0.3099  0.2371
32555W        W45969   2.772  13.853  13.021 -0.1833  0.1971 -0.3099
32556W        W45970  14.362   3.251  16.323  0.0898  0.0904 -0.0103
32557W        W45971   1.382  16.971  10.738 -0.2259  0.1364 -0.2541
32558W        W45972   2.094  14.734   5.314  0.0078  0.1001 -0.0442
32559W        W45973   1.430   2.697  14.458 -0.0319  0.1209 -0.0180
32560W        W45974   6.846   0.119   2.125 -0.3637  0.0775 -0.0769
32561W        W45975  13.412   5.832  14.035 -0.0860  0.1790  0.1613
32562W        W45976   3.821   2.695   2.695 -0.0203 -0.0938 -0.1466
32563W        W45977  17.178  16.814   3.014 -0.1771 -0.1057  0.1090
32564W        W45978   8.022   4.591  13.294  0.0203  0.1559 -0.2307
32565W        W45979   1.973   4.057  13.606 -0.1330 -0.3169 -0.3231
32566W        W45980   6.239  11.976   3.731 -0.0428  0.3635  0.0652
32567W        W45981  16.653   8.651   3.782 -0.2799  0.0428 -0.0942
32568W        W45982  14.639  12.633   4.457  0.0034 -0.0959  0.0201
32569W        W45983  15.872  11.200  11.383  0.1505 -0.0192  0.1381
32570W        W45984  12.671  12.059   1.596  0.1141 -0.0514  0.0829
32571W        W45985  16.639  12.019   5.402 -0.0871  0.0991  0.1263
32572W        W45986   0.203  11.840  16.033  0.1376  0.0621 -0.1304
32573W        W45987  15.947   3.434  16.333 -0.1663 -0.0634  0.0983
32574W        W45988   7.215  10.059   5.943  0.0111  0.0329  0.0225
32575W        W45989   8.197  12.186   1.015  0.1345 -0.0230 -0.2981
32576W        W45990   2.587  11.479  15.286 -0.0056 -0.0099  0.1477
32577W        W45991   7.243  16.047   1.041  0.0876 -0.0781 -0.1051
32578W        W45992   2.482  13.411   1.765  0.2402  0.2034  0.0827
32579W        W45993  15.160  11.944   4.842 -0.2742  0.0297 -0.0788
32580W        W45994   0.383   6.126   5.176 -0.1923  0.0480  0.1802
32581W        W45995   1.741   0.762   2.521  0.1175 -0.1141 -0.3718
32582W        W45996   0.214   1.636   4.803  0.0465  0.0292 -0.0449
32583W        W45997  13.131  16.017  13.676  0.1664 -0.2315  0.1430
32584W        W45998   8.874  10.818   5.487  0.0312 -0.0851 -0.2362
32585W        W45999   6.515  11.708   0.522  0.0888  0.0187 -0.2107
32586W        W46000  12.232   1.881  14.858 -0.0613  0.1887  0.1732
32587W        W46001   8.962   6.933   1.533 -0.0503 -0.2404  0.0497
32588W        W46002  17.080   3.071  11.823 -0.3430 -0.1072 -0.2993
32589W        W46003   6.971   8.133   1.312 -0.1443  0.1107 -0.0391
32590W        W46004  15.443  11.602   3.924  0.1965  0.0324 -0.2150
32591W        W46005  12.165   0.401  12.295 -0.1040 -0.1430 -0.0345
32592W        W46006   0.559  10.525  11.848 -0.1202 -0.0987  0.0749
32593W        W46007  15.322  15.985   0.914  0.0254 -0.1961 -0.1894
32594W        W46008   5.067  16.831  16.224 -0.1797  0.0413 -0.5272
32595W        W46009  11.062   2.776   3.510  0.0929 -0.2202  0.1748
32596W        W46010  17.506   9.929   1.494  0.2875 -0.0963 -0.1568
32597W        W46011   0.754  10.138   0.412 -0.1659  0.2983 -0.0845
32598W        W46012   2.424   0.575   0.814 -0.1940 -0.1601 -0.1576
32599W        W46013   6.763   9.829  15.551  0.2026  0.0635 -0.0351
32600W        W46014  12.312   8.210   2.987  0.1030 -0.2610 -0.3589
32601W        W46015  10.723   5.276  12.414  0.0207  0.0217  0.2713
32602W        W46016   9.023   7.317  13.858  0.2222 -0.0152 -0.1023
32603W        W46017  17.751   6.805   5.772 -0.2571  0.2099  0.0753
32604W        W46018  11.547   4.890  11.355 -0.0684  0.1176 -0.1605
32605W        W46019  12.355  17.425  15.814 -0.1350  0.0436 -0.4280
32606W        W46020   8.718   3.005  15.329 -0.0147  0.0021 -0.1596
32607W        W46021   5.171  17.376   6.116 -0.0416  0.1717 -0.1511
32608W        W46022  13.798  16.460  14.663  0.0826 -0.1540 -0.1582
32609W        W46023  11.472   7.329  14.531  0.4191 -0.2014  0.2735
32610W        W46024   7.417  10.697   2.431  0.3761 -0.2813  0.1013
32611W        W46025  17.952   2.925  11.412 -0.3832 -0.1449  0.0748
32612W        W46026   4.903   3.467  14.974  0.1504  0.0676  0.2218
32613W        W46027  17.215   6.858   4.204 -0.3080  0.0703  0.1439
32614W        W46028  16.271  12.447  10.952  0.1014  0.0492 -0.0150
32615W        W46029   6.821  13.494   5.689  0.1571  0.0790  0.0132
32616W        W46030  16.277   2.235  16.574  0.3403  0.0272  0.1512
32617W        W46031  15.227   4.227  11.925 -0.0993  0.1874 -0.1004
32618W        W46032  14.214   3.867  15.507 -0.1302  0.2972 -0.3660
32619W        W46033   2.274  17.675  13.917 -0.1828 -0.1512 -0.1979
32620W        W46034  16.436   2.439   3.686  0.2994 -0.0014  0.0046
32621W        W46035  11.724  14.706  13.972 -0.4707 -0.0096  0.0804
32622W        W46036   9.891   4.340  12.335  0.1457 -0.2595 -0.2921
32623W        W46037   5.665   7.432   6.720  0.0976  0.2913 -0.0435
32624W        W46038  15.329  11.927   7.290 -0.1530 -0.0414 -0.1210
32625W        W46039  17.773   1.355  15.353  0.1625  0.4692 -0.2019
32626W        W46040   7.560   1.808  14.884  0.1566  0.2251 -0.0786
32627W        W46041   9.259  11.065   0.772  0.3296  0.1014 -0.0404
32628W        W46042   1.173   1.611   2.455  0.1638 -0.0585 -0.1371
32629W        W46043   7.418   9.684  11.904 -0.1649 -0.0555  0.1162
32630W        W46044   7.099   9.860   2.105 -0.2178  0.2768  0.1183
32631W        W46045  16.583  14.634  11.864 -0.0333  0.3636 -0.1052
32632W        W46046  12.868   6.066   6.292 -0.2307 -0.1059 -0.0506
32633W        W46047   6.037  15.909   2.314  0.1605  0.1781  0.0919
32634W        W46048   3.922  16.968   4.448 -0.1182  0.2491 -0.0717
32635W        W46049  12.726   8.935   5.396 -0.0405 -0.2687  0.0291
32636W        W46050   1.462  17.828  13.881 -0.1218  0.1765 -0.0895
32637W        W46051  11.688   8.107   5.817 -0.2272 -0.1074 -0.1352
32638W        W46052  14.078   9.407  13.671  0.0058 -0.1397  0.1280
32639W        W46053   2.373  12.897   0.532 -0.1190 -0.0938 -0.0520
32640W        W46054   2.219   8.691  12.289 -0.4911  0.2167  0.0321
32641W        W46055  14.931  12.423  14.533 -0.1990  0.0449 -0.2749
32642W        W46056  15.397   6.462  14.141  0.2474  0.0932  0.0419
32643W        W46057   3.512   5.845  13.514 -0.1257 -0.0561  0.2784
32644W        W46058  16.747   6.787  13.933 -0.1651  0.3560  0.0617
32645W        W46059   0.363  14.621  10.476 -0.0389  0.1065  0.1979
32646W        W46060   5.474  10.086   1.104 -0.1778 -0.1098 -0.0719
32647W        W46061  10.963   0.702   0.492 -0.1108  0.1213 -0.2562
32648W        W46062   6.714  11.921   3.687  0.0503  0.0315 -0.1908
32649W        W46063   2.885   9.748   3.475  0.0811  0.0631 -0.0763
32650W        W46064   5.565  11.867   1.029 -0.1747  0.1114 -0.2406
32651W        W46065   3.985   4.465   4.432  0.0392 -0.2392  0.4652
32652W        W46066   3.325  16.500  15.312 -0.2741  0.0009  0.0318
32653W        W46067   8.219   9.965   1.725  0.3673 -0.0957  0.0878
32654W        W46068  14.389  14.440   4.379  0.0285  0.1709 -0.1279
32655W        W46069   9.723   0.427   4.307  0.1541  0.0715 -0.1606
32656W        W46070  13.194   3.037   1.618 -0.2744  0.0311  0.2240
32657W        W46071   8.852  10.287  13.418 -0.1308 -0.2538 -0.0154
32658W        W46072  12.544   9.117  14.038 -0.2326 -0.0571 -0.0887
32659W        W46073   8.361  14.199   2.418 -0.1405 -0.0917 -0.1085
32660W        W46074   4.866   4.739   2.433  0.0196 -0.0289 -0.1328
32661W        W46075  16.097  13.800  13.863 -0.2864 -0.0188 -0.1336
32662W        W46076  11.349   8.115  14.810  0.1669 -0.0432 -0.1842
32663W        W46077  12.054  15.029  12.196  0.1993 -0.2017  0.0891
32664W        W46078   5.740  14.934  11.440  0.1320  0.0538 -0.0647
32665W        W46079   2.035  11.401   4.673 -0.0411 -0.5199  0.2147
32666W        W46080   6.408  16.715  12.785  0.2633 -0.0527  0.0807
32667W        W46081   0.465  12.193   4.748 -0.0444  0.0828  0.3428
32668W        W46082   7.609  11.355   3.550  0.0389 -0.0668  0.1699
32669W        W46083   4.149  12.398  15.705  0.1330  0.1159 -0.0401
32670W        W46084   4.406  13.040   3.805 -0.0470 -0.1345 -0.0991
32671W        W46085  13.290   8.514  15.322 -0.1126 -0.2969 -0.0742
32672W        W46086  17.465  16.184  12.597 -0.0753  0.0689  0.0813
32673W        W46087   0.053  13.140  16.701  0.1297 -0.0313  0.0499
32674W        W46088  11.303  14.009  13.541 -0.0772 -0.1986  0.0201
32675W        W46089   7.428  14.814  12.252 -0.0134 -0.0428 -0.0090
32676W        W46090  11.627   3.585   4.405  0.3332 -0.1274  0.1714
32677W        W46091  14.451   6.596   4.290 -0.0410  0.1630 -0.0780
32678W        W46092  13.835   1.974  16.419 -0.3391  0.0027 -0.0201
32679W        W46093   6.839   2.459   2.478  0.2831 -0.1791 -0.2036
32680W        W46094   4.038   2.838   0.112 -0.2119  0.0258 -0.1307
32681W        W46095  13.149  14.708   0.564  0.0765 -0.1582  0.3296
32682W        W46096  10.668   4.079  10.789  0.0308  0.3470 -0.1372
32683W        W46097   6.841   1.164  12.229 -0.3574  0.2653  0.0396
32684W        W46098   7.246   8.972   5.232  0.1821  0.4497 -0.1539
32685W        W46099   8.749   9.833  14.151  0.2725 -0.2302 -0.2179
32686W        W46100   7.832   2.971  13.292 -0.0490  0.2740  0.1651
32687W        W46101  12.012  10.503   0.050 -0.0354 -0.0036  0.1628
32688W        W46102   4.806  13.136   2.901 -0.0482  0.2283 -0.1907
32689W        W46103   1.998  17.903   4.610 -0.5882 -0.1479  0.0991
32690W        W46104   7.729   0.502  14.751 -0.0445  0.1365  0.2821
32691W        W46105  10.785  12.980  11.817 -0.0521  0.0761 -0.1178
32692W        W46106   2.280   3.050   1.038 -0.1081  0.0115 -0.1657
32693W        W46107  13.792   0.727   3.272  0.0419 -0.0202  0.0842
32694W        W46108  13.865  15.333  15.590  0.3079 -0.1919  0.2294
32695W        W46109  11.577  12.743   5.205  0.1356 -0.2639  0.3659
32696W        W46110   4.417  11.908  11.176 -0.2085  0.0936 -0.2145
32697W        W46111  17.201  14.560   5.894 -0.0747  0.2453 -0.1412
32698W        W46112   8.608   7.072  15.130 -0.2084 -0.1989 -0.0873
32699W        W46113   1.951   4.461   2.689  0.0560  0.0546 -0.0288
32700W        W46114  16.640  12.919  13.144 -0.2392 -0.1665  0.0924
32701W        W46115  11.540  11.892   2.214  0.0085 -0.1879 -0.0575
32702W        W46116  14.573   7.929   0.037 -0.1114 -0.0611  0.0595
32703W        W46117  17.741   2.974  16.135 -0.0371 -0.2026 -0.0509
32704W        W46118  13.042   0.815   6.052 -0.0339 -0.3091 -0.0610
32705W        W46119  13.207   8.117   6.271 -0.1150 -0.2019  0.0312
32706W        W46120  15.215  11.421   2.098 -0.1969 -0.4481  0.0862
32707W        W46121  17.866   8.288  13.615  0.1811 -0.1712  0.0272
32708W        W46122  12.147   2.794   2.822  0.0431 -0.1002 -0.0372
32709W        W46123   4.228  14.712   9.628  0.3705 -0.1711 -0.1118
32710W        W46124  13.743  16.174   6.573  0.0696 -0.0519  0.0368
32711W        W46125  12.127   8.782   2.511  0.1395  0.1757  0.1604
32712W        W46126   5.979   6.498   5.546 -0.0187 -0.1345  0.3530
32713W        W46127   0.257   1.414  11.972  0.1554 -0.0318 -0.1752
32714W        W46128   3.956   6.060   1.765  0.0075 -0.0660 -0.0017
32715W        W46129  14.975   5.235   2.982 -0.1292  0.2644 -0.1334
32716W        W46130   3.314  13.381   0.528 -0.1066 -0.3967  0.1773
32717W        W46131   7.489   0.976  16.081 -0.1868  0.0394 -0.2147
32718W        W46132   3.294   2.197  14.801  0.0337  0.1325  0.2015
32719W        W46133  11.316   2.069  12.802 -0.4472  0.0663  0.0666
32720W        W46134  16.943  13.911   0.035  0.3628  0.0860 -0.2315
32721W        W46135   7.613  17.711   5.907 -0.2689 -0.0790  0.0924
32722W        W46136   3.043  13.939   2.373  0.0814  0.0127  0.1788
32723W        W46137  16.667  16.211  13.651 -0.1020 -0.2057 -0.0235
32724W        W46138  12.193   3.834   1.545 -0.2014  0.1425  0.0831
32725W        W46139  16.596  12.455   2.091 -0.1668 -0.0389  0.1362
32726W        W46140  12.228  17.391  14.501 -0.3191  0.1241  0.0184
32727W        W46141  13.322  12.651   5.170  0.0997  0.0307 -0.1826
32728W        W46142   0.757  14.905  15.031 -0.0657 -0.0654 -0.1875
32729W        W46143  15.024  13.543  13.011 -0.2106  0.1861 -0.3904
32730W        W46144  17.773   1.452   0.392 -0.0489 -0.1404 -0.0301
32731W        W46145   2.742   7.866  14.837 -0.0462  0.0392 -0.1057
32732W        W46146  12.760   0.249  12.505  0.0818  0.1156  0.0057
32733W        W46147  10.654  11.222  14.857 -0.0860  0.0577 -0.3529
32734W        W46148   9.037  13.663   6.091 -0.2512 -0.0734 -0.0858
32735W        W46149   3.128  12.700   0.314 -0.2676 -0.2094 -0.0629
32736W        W46150   0.348  14.637  15.885  0.1449 -0.0106  0.3281
32737W        W46151  11.159  11.314   0.299  0.2724  0.0696 -0.1960
32738W        W46152  14.253   3.931   5.025 -0.3582  0.0473 -0.2420
32739W        W46153  17.061   9.307   4.937 -0.3335  0.0896 -0.1185
32740W        W46154   1.098   4.832  16.620  0.0119  0.3886 -0.2633
32741W        W46155  10.452   0.784   2.582  0.0115 -0.1254  0.1329
32742W        W46156   8.912  15.287   1.123 -0.0018 -0.0683 -0.0576
32743W        W46157   4.445  13.184  14.428 -0.0759  0.1886 -0.0191
32744W        W46158  15.481  17.223   1.999 -0.1104  0.1945 -0.3600
32745W        W46159   0.909  10.824  12.012 -0.1612  0.5822 -0.3749
32746W        W46160   3.864   4.991   4.227 -0.3095 -0.0605 -0.0071
32747W        W46161   1.778   5.511  11.711 -0.1877  0.0201 -0.1697
32748W        W46162   6.943  17.398  12.978 -0.0295  0.3912 -0.1953
32749W        W46163  16.405   3.449  16.552  0.1286 -0.0048 -0.1843
32750W        W46164   6.529   9.531   4.737 -0.0939  0.2757 -0.1680
32751W        W46165   7.090   2.560   3.287 -0.0241 -0.2358 -0.0907
32752W        W46166  11.027  15.621   2.136 -0.0624  0.0620  0.1266
32753W        W46167   0.100   3.858   0.168 -0.0465  0.2514  0.2272
32754W        W46168   3.527   9.326   4.823  0.1852 -0.1004  0.0289
32755W        W46169   6.603   4.118  12.540  0.0883  0.2447 -0.3431
32756W        W46170   5.097   2.227   5.075 -0.1608 -0.1866  0.0638
32757W        W46171  10.338   4.839   2.366 -0.1706  0.1802  0.2473
32758W        W46172   3.764  13.349  12.793  0.2315  0.0782  0.0505
32759W        W46173   9.161  13.123   0.102  0.1265  0.1408  0.1801
32760W        W46174   0.171   0.218  15.845 -0.1059  0.0376  0.3054
32761W        W46175  15.827  16.039   1.047  0.0542 -0.4450 -0.1614
32762W        W46176  16.692  11.841  14.911 -0.0906 -0.0379 -0.2099
32763W        W46177   1.562  11.332  10.943 -0.0307  0.0465  0.1040
32764W        W46178   6.549  11.556  11.077  0.1048  0.0363  0.1328
32765W        W46179  17.106   7.118  14.238  0.1373  0.2948  0.3782
32766W        W46180  13.993  12.791  15.027  0.3162 -0.2453  0.0298
32767W        W46181  14.103  13.456   2.295  0.1476  0.1550 -0.0139
32768W        W46182   5.308   8.216  16.171 -0.3891 -0.0565 -0.2590
32769W        W46183   6.856   3.579   3.956  0.0021 -0.0510 -0.0604
32770W        W46184   8.376   2.683   1.653 -0.1255 -0.1382  0.0395
32771W        W46185   4.028  14.644   3.915  0.4404  0.0869  0.1305
32772W        W46186  11.766   5.264   0.526  0.2373 -0.1876  0.0387
32773W        W46187   5.651   3.953   4.622  0.0465  0.2117 -0.0744
32774W        W46188   4.776   6.998   2.558  0.0257 -0.0047  0.0389
32775W        W46189  15.706  16.226  15.863  0.2450 -0.0283  0.1239
32776W        W46190   1.394  11.344  15.831 -0.2477 -0.0050 -0.1026
32777W        W46191  11.897   4.161  14.610  0.3495 -0.0220 -0.1817
32778W        W46192  11.123   6.605   2.729 -0.0750  0.3118 -0.2174
32779W        W46193  16.365   8.266  14.064 -0.0592 -0.2999  0.1695
32780W        W46194  12.712   1.015   2.233 -0.2060  0.0912 -0.0775
32781W        W46195   0.825  16.435   0.399 -0.0252 -0.1334  0.1589
32782W        W46196   6.486  14.720  14.833  0.1926  0.2051 -0.1977
32783W        W46197   1.148  16.208  14.629 -0.0307  0.1030  0.1571
32784W        W46198   0.777  15.477   5.323  0.2790 -0.1123 -0.1715
32785W        W46199  12.019   1.179   4.332  0.0210 -0.0426 -0.0968
32786W        W46200  13.881   8.300   0.197  0.3570 -0.2243  0.1907
32787W        W46201  12.199  15.815   2.427  0.1060 -0.1397 -0.1411
32788W        W46202   8.465   0.307   2.895 -0.0464 -0.0622  0.0113
32789W        W46203  16.339  16.374   5.166  0.0876  0.2189  0.1123
32790W        W46204  15.957  12.239   5.085 -0.1355  0.2622 -0.3158
32791W        W46205  15.559   7.029   0.131 -0.1359 -0.0754 -0.0124
32792W        W46206  17.370   4.678   3.586 -0.3688  0.2420  0.0095
32793W        W46207  11.370  10.458  14.582  0.1532 -0.4162 -0.2205
32794W        W46208   8.200   5.810  14.166  0.1068 -0.2752 -0.1786
32795W        W46209  15.714   6.364   3.199  0.0558  0.0625 -0.1713
32796W        W46210   7.395  16.787  10.421 -0.2668 -0.1256 -0.2377
32797W        W46211   9.306   9.942   5.350 -0.4019  0.1450  0.3625
32798W        W46212   2.882   8.382   3.724 -0.4054 -0.1895 -0.0189
32799W        W46213  17.858   7.165  12.826 -0.0884  0.0093  0.2223
32800W        W46214  15.769   4.674   1.275 -0.3236  0.2292  0.0361
32801W        W46215   1.260  17.858   2.939 -0.2850  0.1877  0.0908
32802W        W46216  17.960  13.683  11.458  0.0484 -0.1298 -0.1495
32803W        W46217  15.820   4.510  13.833  0.0328  0.1703 -0.1377
32804W        W46218   5.754   3.527   0.929  0.0788  0.0904 -0.1507
32805W        W46219   7.248   5.863   2.362  0.1431 -0.0132 -0.1487
32806W        W46220  16.680  17.200   0.173  0.0058  0.0605  0.2447
32807W        W46221   1.834   9.272  11.727  0.5272  0.1588 -0.2411
32808W        W46222   4.872  11.582  10.277  0.1346 -0.0701  0.1362
32809W        W46223  10.066  13.853   2.144  0.1373 -0.0875 -0.2067
32810W        W46224  16.486   2.332  10.198 -0.1723  0.1985  0.1687
32811W        W46225  15.058   9.488   3.868  0.0962  0.1181 -0.3617
32812W        W46226  17.790  12.476  15.596  0.2593  0.0764  0.0618
32813W        W46227   0.243  10.907  11.909 -0.1241  0.1829  0.1356
32814W        W46228  12.281  17.912  12.397  0.0323  0.3929 -0.3306
32815W        W46229   7.915   7.459  11.909  0.0935  0.3887 -0.1269
32816W        W46230   0.326   2.365   6.178  0.3062 -0.1514  0.2581
32817W        W46231  13.910   4.497  13.975 -0.0939  0.0281 -0.0850
32818W        W46232  11.298   2.394   2.607 -0.0300  0.1538  0.2528
32819W        W46233   2.437  15.410   4.925 -0.0853  0.0073  0.2221
32820W        W46234   2.222  15.941   4.719  0.2473 -0.1517 -0.0624
32821W        W46235  10.912  13.061  16.256 -0.0297  0.1788 -0.3422
32822W        W46236  14.160  17.025   3.291  0.1500 -0.3018  0.0128
32823W        W46237   4.563   6.424  14.095 -0.0064 -0.0177  0.2515
32824W        W46238   1.927  11.432  12.745 -0.1413  0.2438 -0.0732
32825W        W46239  10.793   2.151  13.726  0.0821 -0.3349  0.0719
32826W        W46240  16.666   3.318  11.201  0.1318 -0.3038 -0.0115
32827W        W46241   0.350  16.086  10.836 -0.1990 -0.1931 -0.0324
32828W        W46242  10.717  15.492  12.074 -0.2810  0.1475  0.0594
32829W        W46243  12.417   6.602   3.429  0.0457 -0.2304  0.2447
32830W        W46244  13.256  10.058   3.235  0.0575 -0.0231 -0.1977
32831W        W46245  11.953  17.783   6.002  0.0035 -0.1103 -0.0817
32832W        W46246  11.286  10.607   4.652  0.1606  0.0528  0.1454
32833W        W46247   4.434   4.079   2.908 -0.0265  0.2668 -0.0182
32834W        W46248   7.050   8.423  15.596 -0.0427 -0.1372 -0.2301
32835W        W46249  12.742   7.184  14.252 -0.0623  0.1324  0.3227
32836W        W46250   6.021   4.512   0.737  0.1095  0.0938 -0.0071
32837W        W46251   5.262   2.351   0.522  0.3333 -0.3335  0.0057
32838W        W46252   0.242   7.761  10.860  0.4331 -0.1026 -0.1936
32839W        W46253  11.653   6.537  15.422 -0.0652 -0.2832  0.1364
32840W        W46254  11.159  10.620  12.558 -0.0525  0.0273  0.0982
32841W        W46255   4.556  13.545   1.721  0.1635  0.2084  0.1572
32842W        W46256  12.210  10.852   2.257 -0.0366  0.0351 -0.0842
32843W        W46257  15.669  14.144   2.327 -0.2596 -0.1777  0.1366
32844W        W46258  15.449  12.958  16.111  0.0480  0.2007 -0.1965
32845W        W46259  12.573  14.913   0.427  0.1008 -0.3548  0.0951
32846W        W46260  17.928   9.164   5.586 -0.1182 -0.0543  0.3566
32847W        W46261   2.368   3.835   5.694  0.1469  0.0792 -0.1477
32848W        W46262   9.473   3.353  15.153  0.1554 -0.0627 -0.0158
32849W        W46263  14.329   8.173  14.869 -0.0057  0.1127  0.0821
32850W        W46264  13.712   8.383   6.357 -0.0747  0.1387 -0.2915
32851W        W46265  14.744   0.296  13.359  0.0814  0.0663  0.1140
32852W        W46266   9.438  15.245   0.003 -0.0002 -0.2475  0.1984
32853W        W46267  12.323   0.404   1.704  0.1554 -0.1284  0.0684
32854W        W46268  12.099  12.778   2.344  0.2344  0.0345 -0.0521
32855W        W46269  16.850   5.539  13.385  0.0140  0.0253 -0.1125
32856W        W46270   7.547   9.615  15.082 -0.0396 -0.1879 -0.1186
32857W        W46271  16.796  10.781   6.525  0.3636 -0.0599  0.4903
32858W        W46272   4.531   8.443   5.311  0.0809 -0.1527 -0.3513
32859W        W46273   1.851   3.338   1.224  0.0825  0.1236 -0.0037
32860W        W46274   7.165  14.888  16.511 -0.0215  0.2858 -0.1269
32861W        W46275   5.996  10.749   0.118  0.0953  0.2860 -0.3233
32862W        W46276  10.827   0.561   3.061  0.3231 -0.0826 -0.0148
32863W        W46277   8.129   1.935  10.386  0.0877 -0.2383 -0.0519
32864W        W46278   1.290   5.523   3.147 -0.0650  0.2943  0.2226
32865W        W46279   6.120  14.621  11.700  0.0900  0.1266 -0.0593
32866W        W46280  16.590  11.679   2.404  0.3043  0.2564  0.1229
32867W        W46281  13.784   3.045   0.406  0.1406 -0.0150  0.0070
32868W        W46282   1.515   4.645   0.824  0.0391  0.1986  0.0297
32869W        W46283   1.234   3.824  15.194 -0.2092  0.0904 -0.1165
32870W        W46284  13.833  16.650   6.688  0.2017 -0.1731 -0.2518
32871W        W46285   6.968  15.520   4.139 -0.2033  0.0519  0.0611
32872W        W46286   1.210   9.398   2.559 -0.0994  0.0393  0.2576
32873W        W46287  16.650   3.111  15.306 -0.4916  0.3417  0.0552
32874W        W46288   4.845   9.963  14.464 -0.2385 -0.0822  0.2983
32875W        W46289  11.884   3.362   1.807  0.0359  0.0794 -0.1009
32876W        W46290   8.001  10.822   3.250 -0.2766  0.1840  0.2111
32877W        W46291   2.290   3.193   0.575  0.0429  0.1397 -0.1338
32878W        W46292   6.992   0.191  12.449 -0.0008 -0.5202 -0.1148
32879W        W46293   5.861   9.564  16.575  0.2342  0.0690 -0.0548
32880W        W46294  13.201   6.915  12.715  0.0302  0.0142 -0.4706
32881W        W46295   6.998  11.037  14.037  0.1321  0.2716 -0.1868
32882W        W46296   4.356   7.011   0.754  0.1509  0.2212  0.0781
32883W        W46297  11.881  11.529   3.210  0.2007  0.0236  0.1067
32884W        W46298   3.815  10.112  13.416 -0.0143  0.1100  0.3897
32885W        W46299  11.813   6.730  16.285 -0.1416  0.0868 -0.0212
32886W        W46300   9.480  14.647   1.928  0.2154 -0.1052 -0.2032
32887W        W46301  10.214  11.591   3.930 -0.0389  0.4267 -0.0231
32888W        W46302   2.682   7.461  13.683 -0.0587 -0.0636 -0.2892
32889W        W46303  14.908  11.951  11.631  0.0608 -0.0620  0.0976
32890W        W46304   6.030   8.789   4.627 -0.0784 -0.0294  0.1385
32891W        W46305   4.466  14.565  10.347 -0.1052  0.0829 -0.0139
32892W        W46306  15.371  16.944   5.817  0.0698  0.2499  0.2052
32893W        W46307  16.286   3.575   0.780  0.0066  0.0581 -0.2343
32894W        W46308   5.553   1.077   0.063 -0.0474  0.1853  0.0925
32895W        W46309   4.891  10.419  16.000  0.2289  0.0124 -0.2949
32896W        W46310   8.099  11.230  11.620  0.2769 -0.0650 -0.1054
32897W        W46311  17.483  14.257  15.645 -0.2565  0.1078 -0.2435
32898W        W46312   3.602   5.794  11.701 -0.4444 -0.0121 -0.5692
32899W        W46313  12.743   9.082   3.008 -0.2304  0.1262  0.1452
32900W        W46314   3.810   0.027   2.532  0.0704  0.0720 -0.0001
32901W        W46315  14.477  14.802  16.134 -0.2090  0.1614 -0.0354
32902W        W46316  14.291  12.327   4.938 -0.2378 -0.1478  0.0652
32903W        W46317   8.864   7.609   4.639  0.0766 -0.1690  0.0663
32904W        W46318  17.103  16.586  15.206  0.1161  0.1156  0.0849
32905W        W46319   1.345   6.515  15.913  0.2648  0.0082  0.1637
32906W        W46320   6.541   8.215   2.792 -0.1457 -0.3020 -0.0258
32907W        W46321   6.135  13.772  13.147  0.1376  0.2949 -0.0727
32908W        W46322  14.236   5.382   2.333  0.0736  0.2236 -0.0009
32909W        W46323   0.886   7.774  14.911  0.2029 -0.1077 -0.1086
32910W        W46324   1.213  17.915   5.116 -0.3043  0.1229  0.1023
32911W        W46325   6.708   2.149   4.007 -0.1151  0.0943 -0.0063
32912W        W46326  15.255   2.154  15.965 -0.2592  0.0938  0.2710
32913W        W46327  14.703  17.516   0.746  0.1346  0.3286 -0.0978
32914W        W46328  15.454   0.559  13.645  0.0957  0.1909 -0.0113
32915W        W46329  14.336   6.655  11.026 -0.0221  0.3733  0.1932
32916W        W46330  12.096   2.868  16.001  0.1603 -0.1089  0.0297
32917W        W46331  11.603  16.621   3.886 -0.1161  0.3314 -0.1635
32918W        W46332  14.371   5.021  10.978  0.2198  0.4241 -0.0710
32919W        W46333  16.479  16.255  16.552  0.1441 -0.1651 -0.0702
32920W        W46334   4.238   2.106  13.192 -0.0907 -0.0586  0.1550
32921W        W46335   4.543  14.609  10.882 -0.2210  0.0039  0.2469
32922W        W46336   3.758  16.906   2.998  0.0906 -0.0832 -0.1686
32923W        W46337   7.560  15.125  16.730 -0.3158  0.1041 -0.1714
32924W        W46338  12.376   3.948   4.972 -0.0851  0.1807  0.2600
32925W        W46339   2.810   7.647   3.810  0.0817 -0.1006  0.0123
32926W        W46340   5.029   7.998  15.198  0.0757  0.0280 -0.4762
32927W        W46341   3.342  16.255   3.749  0.1257 -0.0493  0.1361
32928W        W46342   3.666  15.133   2.719 -0.4022 -0.1102  0.1817
32929W        W46343  14.691   8.907   5.653 -0.5293 -0.0093 -0.0063
32930W        W46344  14.033  17.599   4.147  0.0373  0.2461 -0.1124
32931W        W46345   0.847   8.055   0.588 -0.0341  0.1283  0.1200
32932W        W46346   6.670   0.305  15.323  0.0736  0.4788  0.0206
32933W        W46347  11.542  12.618  14.762 -0.3399 -0.4519  0.1351
32934W        W46348  11.862   7.324  16.500  0.0391 -0.1585  0.1989
32935W        W46349   0.045  11.329  10.262 -0.1771  0.0227 -0.3546
32936W        W46350   6.801   0.886   3.933 -0.1733  0.0016 -0.0336
32937W        W46351   2.679   2.525   4.382 -0.1422  0.1110  0.2678
32938W        W46352  10.421  12.620  12.721 -0.1575 -0.1459 -0.1310
32939W        W46353  12.951  14.727   2.346 -0.0059 -0.0373 -0.0721
32940W        W46354   3.963  11.129   3.518  0.0201  0.1209 -0.3917
32941W        W46355   2.996   8.700  12.943 -0.0945  0.1897 -0.0737
32942W        W46356  17.378   1.362   5.217 -0.3870 -0.0490 -0.3977
32943W        W46357  12.138  12.291   0.201 -0.0759  0.1287  0.3031
32944W        W46358  11.074  12.614  13.910 -0.0311  0.3074 -0.0697
32945W        W46359   1.030  15.820  16.500 -0.1499  0.0540 -0.0539
32946W        W46360   8.698   0.037   1.499 -0.0624  0.2722 -0.1057
32947W        W46361   4.860  11.691  14.512  0.2056 -0.2667 -0.0528
32948W        W46362  11.905  14.013   6.063 -0.0755 -0.0871 -0.1123
32949W        W46363  12.140  12.864   0.612 -0.1460  0.3496  0.1524
32950W        W46364  12.627  11.606  12.923  0.0780  0.3034 -0.0278
32951W        W46365  12.919   9.360   4.333  0.2484 -0.1148  0.0927
32952W        W46366  17.172   7.548  16.258  0.4037 -0.0959  0.0251
32953W        W46367   2.687   3.294   0.815  0.0857 -0.0435 -0.3157
32954W        W46368   4.021  12.783  11.243  0.0145 -0.0645 -0.0776
32955W        W46369  16.223  12.788   4.599  0.2255 -0.3615 -0.0152
32956W        W46370  10.094   5.498   1.740  0.1221 -0.1316  0.0303
32957W        W46371   5.163   4.966  15.981  0.1958  0.0291 -0.1923
32958W        W46372   9.665  10.144   2.269 -0.2178  0.0698  0.0238
32959W        W46373   1.982   8.730  16.640  0.0878 -0.0021  0.1811
32960W        W46374  17.155   3.866   3.971  0.2324 -0.2101 -0.0419
32961W        W46375  13.548  15.737   0.823 -0.0914 -0.0761 -0.2043
32962W        W46376   3.671   3.145   5.843  0.0400 -0.2401  0.3157
32963W        W46377  16.810  17.702  15.690 -0.0912  0.1109  0.0592
32964W        W46378  17.083  17.243  16.661 -0.0204  0.1672  0.1739
32965W        W46379  14.843   1.302  11.222  0.2218  0.1834  0.0986
32966W        W46380   5.323  12.241  15.619 -0.0578 -0.1989  0.0600
32967W        W46381  12.318  10.348   0.386 -0.4162 -0.3539  0.0249
32968W        W46382   7.302  10.300  16.332  0.0134 -0.1798 -0.1736
32969W        W46383  11.323   3.166   3.583  0.1290  0.0276  0.1282
32970W        W46384  10.224  17.957   5.084 -0.2618 -0.2805 -0.2847
32971W        W46385   7.457  11.725   4.055  0.1952 -0.0178 -0.1442
32972W        W46386   5.491  15.904   2.416  0.1826 -0.0068  0.0327
32973W        W46387   6.593  10.915   3.561 -0.2149  0.1677  0.0842
32974W        W46388  11.719   0.596   6.166 -0.1496  0.2247  0.0073
32975W        W46389   8.097  10.062   0.193  0.0425 -0.1508 -0.1049
32976W        W46390  11.715  10.287  12.110  0.3936 -0.0358 -0.2951
32977W        W46391  11.368   3.602  15.892 -0.0141  0.0581  0.1650
32978W        W46392  16.768   8.889  13.453  0.1250  0.0304  0.0898
32979W        W46393   2.027  11.072  13.933 -0.0346 -0.2722  0.0196
32980W        W46394   5.926   0.217   0.313 -0.0391 -0.2657 -0.1301
32981W        W46395  12.054  11.459  16.569  0.0464 -0.0118  0.1227
32982W        W46396  10.934  10.668   2.649 -0.1258 -0.0559 -0.1141
32983W        W46397  13.305  10.372   0.477  0.2182  0.3196 -0.1879
32984W        W46398   9.152  15.591   0.320 -0.1572  0.1473  0.0043
32985W        W46399   6.089   6.025   4.510 -0.3707  0.0447  0.1963
32986W        W46400  16.852   9.481   2.073 -0.0536  0.1264 -0.0681
32987W        W46401  15.289  15.146  14.389 -0.1171 -0.1887  0.1242
32988W        W46402   4.622   7.177  11.269  0.1157  0.1065 -0.0497
32989W        W46403   5.136  14.622  14.271 -0.0455 -0.0610 -0.4239
32990W        W46404  15.486  10.700   2.470 -0.1112  0.0494 -0.1446
32991W        W46405   4.400  12.804   5.849  0.2831  0.1448  0.3189
32992W        W46406   0.932  12.163   2.152 -0.0645 -0.2322 -0.0489
32993W        W46407  14.658  12.342   0.534 -0.1330 -0.0859 -0.1852
32994W        W46408  13.083  13.389   6.000  0.0602  0.3559  0.0628
32995W        W46409   6.476  12.271   5.978  0.0374  0.0291  0.2464
32996W        W46410  12.070  14.773  13.489  0.5020 -0.1817  0.0106
32997W        W46411  13.981   3.597   5.342 -0.3532  0.0208  0.2897
32998W        W46412   7.296   6.265   1.023  0.1822  0.0007  0.0351
32999W        W46413  11.778   5.409  12.684 -0.0006 -0.0587 -0.1859
33000W        W46414   1.159   1.357  14.913 -0.0173 -0.0134 -0.0683
33001W        W46415   4.407   9.220  12.766 -0.2238 -0.4908  0.0496
33002W        W46416   7.444  12.860   5.283 -0.1550  0.2159 -0.3242
33003W        W46417  12.957   7.182  15.729 -0.0689  0.1353  0.1054
33004W        W46418  11.640   8.412   0.786  0.0096  0.1887  0.0903
33005W        W46419  13.879   3.469   3.439 -0.1360 -0.0521  0.2775
33006W        W46420   0.790  14.176   2.369 -0.1532  0.0261 -0.2853
33007W        W46421   2.906  17.859  11.379  0.3666  0.1251  0.3398
33008W        W46422   8.647   8.280   1.061 -0.1898  0.0146 -0.1951
33009W        W46423   6.556   9.297  15.216  0.3092 -0.0938  0.3849
33010W        W46424   4.429   4.627  15.711 -0.0763 -0.1136 -0.0663
33011W        W46425  14.578   3.288   1.300  0.0350 -0.0735 -0.1237
33012W        W46426   6.070  17.364  15.370 -0.0254  0.1000  0.2054
33013W        W46427   5.566   0.706   3.764  0.2787  0.0509 -0.3791
33014W        W46428  13.241  16.765  13.980  0.3377 -0.2286 -0.1671
33015W        W46429   8.048  15.916  11.559  0.0370  0.2621 -0.1078
33016W        W46430  16.901   7.181  11.970  0.1411  0.0942 -0.0781
33017W        W46431   7.773   4.831   5.526  0.0290  0.1680  0.2845
33018W        W46432   7.915   0.804   0.577 -0.0330  0.1264  0.1090
33019W        W46433   3.663   7.127   5.934 -0.0037  0.1920 -0.0789
33020W        W46434  11.621  13.049   3.388 -0.2512  0.0131 -0.1429
33021W        W46435  14.768  15.057  16.628 -0.0019 -0.1679 -0.0965
33022W        W46436  11.797   8.251  14.522  0.1042 -0.0513  0.1230
33023W        W46437   5.527   8.235   2.573  0.0108  0.1122 -0.0289
33024W        W46438   8.987   9.469   1.688 -0.0625  0.3137 -0.0078
33025W        W46439   4.072  13.463   1.473 -0.0459  0.0893 -0.0314
33026W        W46440  14.267   2.481  14.837  0.0289 -0.0946 -0.0936
33027W        W46441  13.947   1.034   1.797  0.1174  0.1076  0.2305
33028W        W46442  17.771   0.061  13.050 -0.2546  0.1478  0.3118
33029W        W46443  13.483   5.758   2.836 -0.0306  0.0319  0.1008
33030W        W46444   2.199  12.566   2.352 -0.1455 -0.0151 -0.3429
33031W        W46445  14.868  17.403   7.067  0.1653  0.0492  0.2804
33032W        W46446   5.802   1.875   5.434 -0.1665  0.1148 -0.1712
33033W        W46447   2.903  11.996  11.996 -0.1994  0.2506  0.1205
33034W        W46448   4.555  14.743   2.841  0.1861 -0.1625 -0.0165
33035W        W46449   4.668  13.328  10.771  0.0717 -0.1280  0.0564
33036W        W46450   6.953   5.992  12.634  0.0211 -0.0691  0.3738
33037W        W46451   7.981   7.808   1.676  0.0845 -0.0280  0.0429
33038W        W46452  11.243   6.178  12.986  0.3043 -0.0627 -0.3388
33039W        W46453   7.111   5.594   0.291 -0.1538 -0.0344  0.2553
33040W        W46454  12.010   2.969   3.943  0.1951  0.1443 -0.4285
33041W        W46455  16.371  16.800  13.482  0.1924 -0.1694 -0.4515
33042W        W46456   5.361  17.888   1.190 -0.0586 -0.0726  0.2014
33043W        W46457   2.782  17.899  15.263  0.0619 -0.3567  0.0904
33044W        W46458  11.826   9.391   0.743  0.0416  0.1162 -0.1615
33045W        W46459   7.438   3.304  11.842 -0.2098 -0.0981 -0.3076
33046W        W46460   9.088  13.644  14.650 -0.0709  0.1705  0.1937
33047W        W46461  15.530  12.866   2.950  0.1237 -0.1242 -0.1732
33048W        W46462  13.973   2.718   4.870 -0.0422  0.3192  0.3172
33049W        W46463   7.817  12.692  14.369 -0.1619  0.1880 -0.0548
33050W        W46464   4.702   6.618   6.218  0.1001  0.1322 -0.4808
33051W        W46465   1.006   7.610  14.354 -0.0119  0.0235 -0.0349
33052W        W46466  15.119   2.562   1.015 -0.0936  0.1451 -0.3166
33053W        W46467  14.716   7.822   5.330  0.2012 -0.5062 -0.1126
33054W        W46468  15.232   6.904   5.909 -0.2688 -0.1928  0.2219
33055W        W46469   3.253   4.055  11.034  0.1706 -0.2810  0.0798
33056W        W46470   3.456  14.652   0.613  0.1077 -0.0877 -0.1415
33057W        W46471  11.801   9.446  12.592  0.1728  0.1219 -0.1217
33058W        W46472  12.318   0.165  16.178  0.2435 -0.0155  0.0473
33059W        W46473  11.889  10.519  14.728  0.2260 -0.2207  0.3056
33060W        W46474  17.518   4.641  15.191 -0.2112  0.0325 -0.0738
33061W        W46475  12.256   4.636  14.767 -0.2437 -0.0888  0.3139
33062W        W46476  10.429   0.736  14.194 -0.2362  0.0930  0.4395
33063W        W46477   7.084  10.227   1.020  0.0123  0.0374  0.0755
33064W        W46478  17.887   3.821  15.098 -0.0064 -0.0842  0.0141
33065W        W46479  10.179  10.063   2.446  0.1575  0.0358  0.2754
33066W        W46480  11.410  14.433   4.881 -0.1048 -0.1028  0.1136
33067W        W46481   8.910   8.866   4.867  0.1400  0.0770  0.0337
33068W        W46482   4.636  17.047   5.539  0.0939 -0.2994 -0.1501
33069W        W46483   7.289   7.675   4.325  0.0517 -0.0727  0.1005
33070W        W46484   6.691  17.896  15.794 -0.0301 -0.0007  0.0051
33071W        W46485  13.296  10.488   5.312 -0.0564 -0.0701  0.0442
33072W        W46486   7.804  11.412   6.398  0.2128  0.0474  0.1349
33073W        W46487  13.002   4.812  15.618 -0.1078  0.7275 -0.2564
33074W        W46488   3.733  17.611  13.041 -0.0215  0.2179  0.0691
33075W        W46489   1.757   3.621  11.396 -0.0499 -0.0312 -0.3556
33076W        W46490   1.241   8.075   4.544 -0.3377 -0.1416 -0.1686
33077W        W46491  10.795  17.007  14.321 -0.1940  0.0595  0.0470
33078W        W46492   9.565   0.917  15.314 -0.2394  0.0067  0.2711
33079W        W46493  13.074   9.342   1.705  0.0916  0.0684 -0.1030
33080W        W46494  13.304  11.187  14.023  0.0943 -0.2158 -0.1571
33081W        W46495   7.140  14.671  15.990  0.0797 -0.0140 -0.2197
33082W        W46496   3.196  13.897   3.676 -0.1339  0.1865 -0.0502
33083W        W46497  12.795  17.426   4.766  0.3860  0.1949 -0.2573
33084W        W46498  11.518   4.024   5.215  0.0378 -0.0532 -0.0706
33085W        W46499   1.551   2.627   0.630  0.1602  0.1386 -0.1578
33086W        W46500   9.900   8.158   3.928  0.0183  0.1817  0.0687
33087W        W46501   9.545  10.652  12.481 -0.0153 -0.1750 -0.3856
33088W        W46502   5.269  12.684  16.106 -0.1684  0.0942  0.1363
33089W        W46503  15.173  14.624  12.093 -0.0681  0.0194  0.1047
33090W        W46504   1.203   0.391  12.146 -0.2436  0.0145  0.0380
33091W        W46505   6.681  11.516  12.309 -0.0607  0.3157 -0.1716
33092W        W46506  16.106  11.508  15.505  0.0327 -0.0980  0.1166
33093W        W46507   3.004   3.683   1.652  0.0424  0.2519 -0.1476
33094W        W46508   3.097  17.024  10.149  0.2471  0.0436  0.0952
33095W        W46509  14.444   2.490  16.331 -0.0091  0.0494 -0.0490
33096W        W46510  12.116   1.221   2.242 -0.0176 -0.2888  0.0030
33097W        W46511   7.257   6.581  13.379  0.0687 -0.3748 -0.2630
33098W        W46512   6.191   8.292   1.764 -0.2116 -0.1981 -0.3745
33099W        W46513   6.022   9.559   3.505 -0.1574  0.0221 -0.0930
33100W        W46514  17.246   6.234  16.366  0.0145 -0.1001  0.1627
33101W        W46515   1.993   1.649   0.229  0.2340  0.0365  0.0450
33102W        W46516   5.232   0.389  12.103 -0.0967 -0.5153 -0.0027
33103W        W46517  13.582   0.732   5.362  0.1115  0.0654  0.0208
33104W        W46518   9.836   1.001  13.667 -0.0754 -0.0422 -0.1351
33105W        W46519   5.722   6.256   4.738  0.5565 -0.0291  0.3640
33106W        W46520   3.351  10.621   5.170 -0.1022 -0.3690  0.0369
33107W        W46521   0.681  15.153   2.582  0.0393  0.0782 -0.2775
33108W        W46522   1.195  15.244   5.238  0.1034  0.0518  0.0540
33109W        W46523   3.126   1.016   1.553 -0.1034  0.0683 -0.1149
33110W        W46524   9.852   5.981  15.985  0.1424 -0.0319 -0.0532
33111W        W46525  16.520   7.822  15.005 -0.0889 -0.3491 -0.2457
33112W        W46526  16.850   7.970  15.395 -0.2928  0.0065  0.0093
33113W        W46527  16.936   6.197   2.077  0.0321  0.0856  0.0223
33114W        W46528   1.106   1.579  12.138 -0.2621  0.0164  0.0338
33115W        W46529  17.478  17.340  11.691 -0.1168 -0.0117  0.1328
33116W        W46530   2.267  12.984   1.494  0.1115  0.5746 -0.0941
33117W        W46531   9.446  10.384   6.289 -0.2183 -0.1083 -0.0722
33118W        W46532   5.758  13.056   3.284  0.2547 -0.0440 -0.1250
33119W        W46533   9.783   0.701  12.200 -0.1789 -0.2569  0.0809
33120W        W46534   0.950   4.165   3.317 -0.2804  0.1308  0.1085
33121W        W46535  15.927   4.755  10.852 -0.1593  0.1169  0.1936
33122W        W46536   5.109   1.566   4.710 -0.2880 -0.4108  0.1798
33123W        W46537  10.724  12.304   2.021 -0.0952 -0.1724 -0.1777
33124W        W46538   5.603  10.266  14.408 -0.1549 -0.2115  0.0480
33125W        W46539  15.011   5.332  16.428 -0.1688  0.0422  0.0247
33126W        W46540   1.948  13.494  12.127  0.1917  0.1026 -0.0719
33127W        W46541   2.806   3.131  12.808  0.1349 -0.3341 -0.2077
33128W        W46542  12.816  14.035   1.753  0.2000  0.3022  0.0871
33129W        W46543  17.966   0.954  10.696 -0.1684 -0.3137  0.2330
33130W        W46544   7.841   9.035  14.858 -0.0925  0.1540  0.1465
33131W        W46545  17.626  11.277  13.536  0.1800  0.2818  0.1942
33132W        W46546  11.657  17.737   5.550 -0.1270  0.2507  0.0449
33133W        W46547  18.007   3.955  11.536  0.1698 -0.0949  0.0938
33134W        W46548   1.636  16.030  13.821  0.0687 -0.1309 -0.0675
33135W        W46549   7.546   5.497   2.525 -0.0516 -0.2494 -0.0857
33136W        W46550  16.835   0.792   0.364  0.2617  0.0401 -0.1704
33137W        W46551   1.898  17.415   3.334  0.0590  0.0976 -0.2072
33138W        W46552  10.322   6.671  16.421  0.3580 -0.1057 -0.2815
33139W        W46553  12.026   0.790   1.528 -0.0203 -0.0242  0.1684
33140W        W46554  11.121  13.986   3.936 -0.0336  0.0133  0.3210
33141W        W46555   7.907   5.229   1.562 -0.1281  0.2669  0.0563
33142W        W46556  15.888  14.300  11.125 -0.2261 -0.0284 -0.1100
33143W        W46557  17.040   0.791  12.583  0.1658 -0.1120  0.0860
33144W        W46558   4.087  10.609  12.257 -0.2230  0.5376  0.1201
33145W        W46559   0.104  17.171   4.695  0.0370 -0.2634  0.0640
33146W        W46560  14.673   0.436  10.635  0.0482 -0.2096 -0.0169
33147W        W46561  10.079  14.557   0.534  0.0334  0.0755  0.0331
33148W        W46562  17.922   3.596  13.102  0.0347 -0.1296 -0.0511
33149W        W46563  17.770   4.605  16.329  0.0169 -0.0442  0.1125
33150W        W46564   8.265   0.473   4.305 -0.1677 -0.1193  0.3060
33151W        W46565  13.122  15.880   5.743 -0.1151 -0.2150  0.1385
33152W        W46566  17.829  17.286   2.475  0.1497  0.0014 -0.0491
33153W        W46567  14.070  16.020  14.600 -0.1324 -0.1344  0.1486
33154W        W46568   5.776  15.877  11.414  0.2558  0.0741 -0.0019
33155W        W46569   7.482   0.208  13.956  0.0723 -0.1687 -0.0913
33156W        W46570  17.963  13.366  13.122  0.1608  0.0340  0.0213
33157W        W46571   2.299   1.295   4.012 -0.2179 -0.2361  0.0472
33158W        W46572   2.135   3.857   3.297  0.1720  0.1915 -0.1199
33159W        W46573  15.165  14.081   2.319 -0.0197 -0.1754 -0.0972
33160W        W46574   7.858   1.426  11.462  0.2981 -0.0882 -0.0214
33161W        W46575   5.915   8.772  15.886  0.3030 -0.2040 -0.2064
33162W        W46576  12.401   6.835   4.674  0.1631  0.1538 -0.2586
33163W        W46577  12.196   8.062  14.996 -0.1179 -0.2156 -0.2194
33164W        W46578   1.776  14.984   2.188 -0.0670  0.1184  0.0534
33165W        W46579   1.732   8.428  15.124  0.1118 -0.0858  0.2373
33166W        W46580  15.168   3.446  12.972  0.0383 -0.0191 -0.3134
33167W        W46581   7.740   4.002  13.004  0.1396  0.2129 -0.1861
33168W        W46582  13.128  17.666   4.419  0.3206 -0.2233 -0.1502
33169W        W46583   0.097  11.338  13.392  0.1649  0.0457 -0.0113
33170W        W46584  13.580   2.866  16.179  0.0650 -0.1612 -0.0824
33171W        W46585   7.717  12.660   5.670  0.1951 -0.0240 -0.1291
33172W        W46586  16.887   2.123  13.003  0.1415  0.2409  0.0109
33173W        W46587  17.749  14.452   3.578  0.1464 -0.0661  0.2944
33174W        W46588  14.060  11.385  11.663  0.1001  0.3595  0.0537
33175W        W46589  17.270  17.024   2.567  0.2094  0.0159  0.2904
33176W        W46590   2.921   1.166   5.195  0.3120  0.1817  0.0348
33177W        W46591  17.408  14.917  12.539  0.2299  0.0317 -0.0293
33178W        W46592  13.869   4.909   4.978  0.1058  0.1652 -0.2547
33179W        W46593   0.053   5.207  11.817 -0.0709 -0.1678 -0.0567
33180W        W46594   3.817   6.796  13.147  0.0693  0.0039 -0.1994
33181W        W46595  13.027  11.003   1.269 -0.2709  0.1854 -0.0784
33182W        W46596   0.998   4.636  12.690  0.0730  0.1446  0.0137
33183W        W46597   2.092  14.315  16.520  0.0377  0.2612 -0.2204
33184W        W46598  15.725   6.242   2.644 -0.1516  0.2349 -0.1986
33185W        W46599   1.453  17.177   3.350  0.1252  0.0833  0.1008
33186W        W46600  12.144   3.538   0.843  0.0732  0.2473  0.2569
33187W        W46601  16.024  13.326   0.620 -0.6383  0.0586 -0.1427
33188W        W46602   4.996   2.332  16.259  0.3232  0.2265  0.1472
33189W        W46603   8.397   8.556  13.240  0.0377 -0.0844 -0.0513
33190W        W46604  10.714   8.914   1.487  0.1204  0.2116 -0.2894
33191W        W46605  11.623   0.145   0.359  0.1066 -0.0114  0.3721
33192W        W46606   9.040  13.766  15.124 -0.0062  0.2847 -0.1745
33193W        W46607   4.423  14.707  12.749 -0.2050 -0.2624 -0.0618
33194W        W46608  17.000  12.422  14.332  0.0223  0.0480 -0.2524
33195W        W46609  16.816   0.019   4.343  0.1231  0.1955  0.2424
33196W        W46610   1.516   8.284  11.296  0.1146 -0.0452  0.1639
33197W        W46611   9.052   1.138   2.052  0.0665  0.1366  0.0272
33198W        W46612  16.470   7.151   0.124 -0.3345 -0.0885 -0.0905
33199W        W46613  16.590  10.804   3.834  0.0184  0.0813  0.1502
33200W        W46614   7.848   8.662   0.623 -0.0402 -0.0640  0.1545
33201W        W46615   9.839   3.811  12.266  0.4832  0.2033 -0.0089
33202W        W46616   1.650   5.079  10.953 -0.1741  0.1335 -0.0524
33203W        W46617  15.499   1.306  11.087  0.3241  0.0884  0.1788
33204W        W46618  17.914   0.935  15.584  0.2963 -0.2178 -0.0218
33205W        W46619   6.046   7.903   0.876 -0.1012  0.1260 -0.1987
33206W        W46620   4.547  15.083  10.401 -0.1589  0.0400  0.0100
33207W        W46621  11.612   1.865  16.253  0.0095  0.2190 -0.1102
33208W        W46622   7.017   2.103  16.747  0.0214 -0.4964 -0.3195
33209W        W46623   2.719   1.526   2.069 -0.0215  0.1595  0.4242
33210W        W46624   7.627   7.680   3.453  0.2706  0.2145 -0.0383
33211W        W46625   7.554  11.518  13.313 -0.2038 -0.2017 -0.0717
33212W        W46626   4.462  17.332   2.032 -0.1086  0.1800 -0.1293
33213W        W46627   7.450   5.787   1.193  0.1275 -0.2726  0.1984
33214W        W46628   5.098   3.363  16.676 -0.2817  0.0623  0.0068
33215W        W46629   9.332   6.627   2.904 -0.2609 -0.0392  0.1734
33216W        W46630   7.679   8.277   2.813 -0.1157 -0.0288  0.1263
33217W        W46631   6.523  15.017   4.898  0.2867  0.0523 -0.1655
33218W        W46632  11.101   5.872   5.456 -0.3341 -0.2305 -0.1345
33219W        W46633  14.475   2.989   1.723 -0.2358 -0.0233  0.3172
33220W        W46634   5.049  17.387   4.193 -0.0920 -0.1357 -0.0038
33221W        W46635   2.920   3.703  14.828 -0.0377  0.0547 -0.0708
33222W        W46636  12.414  14.500   0.079 -0.0629 -0.1519  0.0663
33223W        W46637  10.964   2.013   2.352 -0.1590  0.0457 -0.1486
33224W        W46638   4.893   1.283   0.675 -0.0773 -0.1809  0.1469
33225W        W46639   6.347  13.468  14.425  0.1727  0.2222 -0.1628
33226W        W46640   9.600  17.227   2.630 -0.1230 -0.0633  0.0768
33227W        W46641   6.715   8.369   5.279  0.1886 -0.2780 -0.1618
33228W        W46642   6.110   5.639   5.590  0.0068  0.1163  0.0293
33229W        W46643  14.327  10.994  14.037  0.2552  0.0075  0.0748
33230W        W46644  17.268  14.898   2.837 -0.1023 -0.0370  0.0185
33231W        W46645   2.945  17.726  11.922 -0.0366 -0.0659  0.0190
33232W        W46646   7.787   5.260  16.493 -0.2404  0.1118  0.0035
33233W        W46647  10.633  13.383   3.293 -0.0117  0.2681 -0.2960
33234W        W46648   1.724  11.818   2.035 -0.0194  0.0123  0.1494
33235W        W46649  15.233   9.799   5.781  0.3491  0.0746 -0.0184
33236W        W46650   1.012  13.026  16.577 -0.0305  0.0862 -0.0811
33237W        W46651  12.416   8.366  15.420  0.1408  0.2139 -0.3105
33238W        W46652  15.470   1.782  11.243 -0.0363  0.1242 -0.0659
33239W        W46653   3.940  14.265   2.682 -0.3170  0.0788 -0.0036
33240W        W46654  15.367   8.079  13.147  0.1062  0.1134 -0.1060
33241W        W46655  12.656   3.839  11.247 -0.2402 -0.3834 -0.1416
33242W        W46656   8.910   2.234  11.543 -0.0183  0.2366 -0.1918
33243W        W46657  17.488  11.270   3.885 -0.2477  0.2222 -0.0336
33244W        W46658   9.950  13.161   6.358 -0.0286  0.2585 -0.0791
33245W        W46659  13.847   2.561  14.551  0.0986 -0.1536  0.1180
33246W        W46660   2.354   9.829   4.590  0.0814 -0.0311 -0.0478
33247W        W46661   4.046  11.199   2.276  0.0241 -0.0666 -0.1386
33248W        W46662  13.521  17.394  12.263  0.0561  0.0298 -0.1929
33249W        W46663   7.339   2.764  12.668  0.0583  0.2460 -0.0883
33250W        W46664  14.770  12.933   5.567  0.1520 -0.0369 -0.1688
33251W        W46665  14.779  16.969  12.568  0.2663 -0.0217  0.1720
33252W        W46666   9.501  14.131  14.769  0.0001  0.1818  0.1203
33253W        W46667   8.120   7.238   6.118  0.1727 -0.1217 -0.0002
33254W        W46668  11.966   6.669   3.111  0.1354 -0.1368 -0.0068
33255W        W46669  12.728  10.416  15.453  0.2325  0.1510  0.2354
33256W        W46670   8.563  12.014   2.550 -0.0872 -0.0803 -0.1221
33257W        W46671  11.002   5.458   2.065  0.0718  0.2131 -0.2925
33258W        W46672  10.457  12.580  14.999 -0.0823 -0.1018  0.0010
33259W        W46673   4.201   7.678   3.568  0.1695  0.1041 -0.1699
33260W        W46674  16.283   5.634   2.982  0.0109  0.0767  0.2716
33261W        W46675   4.999  11.832   0.965 -0.0611 -0.0315 -0.0914
33262W        W46676   5.118  15.972  16.760  0.2580 -0.1079  0.0410
33263W        W46677  13.129  10.677  16.277  0.2989  0.0367 -0.0977
33264W        W46678   5.263  15.802   4.571  0.1923 -0.0212 -0.0803
33265W        W46679  12.206  14.172  12.318  0.0428 -0.2515  0.2804
33266W        W46680  14.016   2.432  13.716 -0.0288  0.1759 -0.1601
33267W        W46681  12.790   6.072  13.245 -0.1305 -0.1445  0.0061
33268W        W46682  14.419   4.750   4.329  0.0500 -0.1755 -0.2064
33269W        W46683   0.151   5.255   0.754 -0.2507 -0.0770  0.3141
33270W        W46684   0.935  14.017   0.398  0.0076  0.1372  0.0878
33271W        W46685   5.550  10.349  12.229  0.0077  0.0660 -0.0341
33272W        W46686  11.968   1.235   1.296 -0.2240  0.1235  0.0520
33273W        W46687   9.762  17.503   1.229 -0.2806  0.0401 -0.1558
33274W        W46688  17.552  11.979  11.514 -0.0657  0.3406 -0.2932
33275W        W46689  14.595   4.931  13.226  0.3425 -0.0415 -0.0252
33276W        W46690   7.028  16.263  16.455  0.0086  0.0025  0.0101
33277W        W46691   2.250  12.897  11.744  0.3135  0.0183  0.0303
33278W        W46692   6.334  12.753  14.902  0.0016 -0.1038 -0.2222
33279W        W46693  16.434  10.284   2.142 -0.1312 -0.1028 -0.1951
33280W        W46694   7.669   3.791   4.823  0.0362 -0.1464 -0.0393
33281W        W46695  14.476  17.452   0.289  0.1674  0.4726 -0.0839
33282W        W46696   1.938  11.651   1.538  0.1109 -0.1759  0.2091
33283W        W46697  13.406   2.246  11.059  0.0624 -0.0527  0.1794
33284W        W46698  16.990   4.386   2.146  0.0749 -0.2870 -0.0291
33285W        W46699  17.112  13.909  13.519  0.0978  0.1973 -0.1923
33286W        W46700  14.405   9.974   2.171 -0.3002 -0.0772 -0.1385
33287W        W46701  10.596   2.674   1.803 -0.0215  0.0960 -0.0522
33288W        W46702  15.342  14.415   2.022 -0.0864 -0.1449 -0.1303
33289W        W46703  13.652  17.840   4.456  0.2222 -0.2023  0.0229
33290W        W46704   3.705  10.799   4.756  0.1661  0.0115  0.2096
33291W        W46705  10.611   3.006   1.429 -0.1174 -0.1922  0.2975
33292W        W46706   3.495   8.691   1.341 -0.0757  0.0518 -0.1375
33293W        W46707   7.284   7.350  11.171 -0.1611  0.2427  0.0100
33294W        W46708   0.372  16.080  15.121 -0.0382 -0.4257  0.1019
33295W        W46709  15.221  10.238   6.188  0.1670 -0.0200  0.2716
33296W        W46710   7.330  17.933   2.121 -0.1972 -0.0892 -0.0035
33297W        W46711   5.769  14.447   4.525  0.0895 -0.0060 -0.1847
33298W        W46712   4.055   3.169   4.551  0.1962  0.1317 -0.2289
33299W        W46713  16.654   6.063   6.577 -0.0293  0.1105  0.2070
33300W        W46714  14.721   6.703  12.877 -0.0014 -0.0468  0.3461
33301W        W46715  16.653   4.029   0.946  0.0080 -0.0455 -0.2205
33302W        W46716   1.949   6.821  12.033 -0.0042 -0.2656 -0.0272
33303W        W46717   4.401   1.092  10.082 -0.2016  0.2971  0.0847
33304W        W46718  14.343  16.967   0.429  0.3074  0.1095  0.1448
33305W        W46719  13.571   0.567   1.888 -0.1975  0.4493  0.3636
33306W        W46720   7.028   0.783  11.277 -0.1085 -0.0796 -0.0373
33307W        W46721   0.209  13.085   4.829  0.0814 -0.0426 -0.1733
33308W        W46722  14.457   3.547  13.332 -0.0229 -0.2537  0.0923
33309W        W46723  12.480   7.060  13.347 -0.0706  0.2140 -0.0595
33310W        W46724   8.145   4.239  16.505 -0.0298 -0.1251 -0.0037
33311W        W46725   4.762  12.090   4.516 -0.0386  0.2776  0.0979
33312W        W46726  10.546  13.240   4.887 -0.2592  0.2108  0.2182
33313W        W46727  16.778   8.714  12.086 -0.1817 -0.0346 -0.1436
33314W        W46728   3.117  11.588  13.536 -0.1704 -0.0356  0.0456
33315W        W46729  10.824   2.140  15.002 -0.0254  0.1923 -0.1709
33316W        W46730  15.146   3.052   4.297 -0.1264  0.0803 -0.0985
33317W        W46731   7.557  10.739   6.253  0.2736  0.1770  0.0885
33318W        W46732  16.321   2.810   5.655  0.0777 -0.1280  0.1959
33319W        W46733   7.708  12.147   5.678 -0.0661 -0.2273  0.0488
33320W        W46734  10.209  10.856   2.163  0.3017 -0.1316 -0.2038
33321W        W46735  15.523   7.617   5.433  0.1831 -0.0948  0.1156
33322W        W46736  15.004   7.739   0.285  0.1463  0.2274 -0.1445
33323W        W46737  16.661   4.226   5.751  0.1253 -0.4276  0.0887
33324W        W46738   2.865   1.189  12.686 -0.0628 -0.0077  0.2663
33325W        W46739   5.236   0.673   0.175 -0.0242 -0.0660  0.0535
33326W        W46740   1.996  13.380   1.331  0.3659  0.2288  0.1750
33327W        W46741   5.501   6.343  16.238  0.0956 -0.0244 -0.0092
33328W        W46742   6.146   6.579  12.933  0.0814  0.1752  0.0209
33329W        W46743  13.588  16.731   1.438  0.1071  0.0157 -0.1128
33330W        W46744  13.420   4.961  12.654  0.2667  0.0323  0.0375
33331W        W46745   2.152   9.413  11.196  0.2447  0.1126 -0.1440
33332W        W46746  13.766   1.914   1.042 -0.1008  0.0422  0.2080
33333W        W46747  17.212   4.681   0.787  0.0381 -0.1029 -0.0693
33334W        W46748   8.404   8.248  13.690  0.0487 -0.1275 -0.2025
33335W        W46749  11.737  16.916  16.544 -0.0898  0.1785  0.0601
33336W        W46750  16.162   8.550  11.508 -0.4027  0.2165 -0.0957
33337W        W46751   5.910  12.482  16.031  0.1958  0.0892  0.0903
33338W        W46752  11.802  15.448   1.523  0.0235  0.1292 -0.0371
33339W        W46753  15.791  10.606   0.785 -0.1058 -0.1584 -0.0832
33340W        W46754   8.856  17.432  13.989 -0.0270 -0.0648 -0.2285
33341W        W46755  12.715   5.855   1.855 -0.1210  0.1402  0.0134
33342W        W46756   8.000   2.971   1.847  0.1391  0.1843 -0.1256
33343W        W46757   2.260   4.015   0.826 -0.0887  0.1836 -0.3779
33344W        W46758   5.866  15.016   0.527  0.1866  0.1796  0.1061
33345W        W46759  12.227   3.776   2.379 -0.2818  0.0032  0.0120
33346W        W46760  13.743  10.653   1.323  0.0963 -0.1722  0.0361
33347W        W46761   4.356  16.737   4.306  0.1242  0.0030  0.0237
33348W        W46762   7.144   4.109   4.011 -0.1545  0.1739 -0.0576
33349W        W46763  13.853   0.314   0.534 -0.0487  0.1670 -0.0878
33350W        W46764   7.432  11.096  13.621 -0.0144  0.0203  0.1681
33351W        W46765   5.956  13.645   0.897 -0.0608 -0.2245 -0.1390
33352W        W46766  13.134   0.553   1.569 -0.2389  0.0349 -0.1881
33353W        W46767   8.167  11.208  16.174  0.2752 -0.0066 -0.0503
33354W        W46768  15.010  15.518   5.277  0.2903  0.1823  0.1361
33355W        W46769   8.834   5.349  13.005 -0.1810 -0.3022 -0.1738
33356W        W46770  17.424   3.437  11.875  0.0933  0.2854  0.1951
33357W        W46771   9.114  15.564  16.094 -0.0566  0.0627  0.3356
33358W        W46772  12.991  16.832   5.891  0.1172 -0.0328 -0.1530
33359W        W46773   1.227   2.200  15.181 -0.2489  0.2375  0.2404
33360W        W46774   2.495   7.399  16.330  0.1831  0.2886  0.0555
33361W        W46775  12.097  11.659   0.994  0.0410  0.2463 -0.1383
33362W        W46776   4.346  15.895  14.140 -0.2267 -0.2975 -0.0948
33363W        W46777  14.211  12.567  16.367 -0.1177  0.0449  0.1039
33364W        W46778   4.738  11.759  16.101 -0.2762 -0.1988 -0.0856
33365W        W46779   1.311  15.445   4.113 -0.2246  0.1573 -0.1137
33366W        W46780  11.425   1.742  16.700  0.0681 -0.0752  0.2117
33367W        W46781   9.104   2.125   3.060  0.2826 -0.0793 -0.3445
33368W        W46782   9.925  15.288  14.777  0.0678  0.0998  0.0633
33369W        W46783   3.007   4.905  14.410  0.2148  0.2214 -0.3751
33370W        W46784   1.044  15.267  13.112  0.1629  0.2482 -0.0304
33371W        W46785   5.604   5.757   2.566  0.2081 -0.0718  0.0704
33372W        W46786  15.885   6.300   3.670  0.0458  0.1910  0.0212
33373W        W46787   6.837   5.187   0.618  0.1164  0.0094  0.0225
33374W        W46788   2.217   9.844  13.526  0.1016  0.2975  0.0206
33375W        W46789   2.802   7.904   0.701 -0.0529 -0.0336  0.1558
33376W        W46790   3.669  17.241   3.785  0.4488 -0.1083  0.1270
33377W        W46791   3.741   9.703  12.379 -0.1931 -0.4312  0.0258
33378W        W46792   4.196  12.764   4.898 -0.2816  0.0939  0.1654
33379W        W46793  11.770  11.228   5.939  0.0162 -0.0233 -0.1193
33380W        W46794   9.864   0.711   1.862  0.0038 -0.1317  0.2063
33381W        W46795   0.556   8.527  10.992  0.2349 -0.0585  0.0182
33382W        W46796  10.718  11.140  11.945  0.1657  0.0496  0.2855
33383W        W46797   0.463  11.806  15.325 -0.1605  0.2170 -0.0534
33384W        W46798  11.548  14.055   3.202 -0.4366 -0.1828 -0.1041
33385W        W46799  14.471   6.816   1.348 -0.2033  0.0985 -0.0748
33386W        W46800  14.641   7.917  12.586 -0.1380 -0.2509 -0.1383
33387W        W46801  12.451  17.477   1.257  0.0671  0.0388 -0.1429
33388W        W46802  13.538   8.073   1.836 -0.0070 -0.0930 -0.0972
33389W        W46803   2.756   5.822  15.161  0.0168 -0.1574  0.1814
33390W        W46804   8.106   1.655   2.549 -0.1145 -0.3562 -0.2138
33391W        W46805   3.365   1.042   2.614  0.0088 -0.0201 -0.2363
33392W        W46806  12.002  11.701  14.592 -0.0344 -0.0819  0.2391
33393W        W46807  10.057  14.747   3.562  0.3201 -0.5036 -0.1999
33394W        W46808   6.173   2.705   0.836 -0.1006  0.0176  0.0718
33395W        W46809  10.889   0.445   5.509  0.0516 -0.1228 -0.1141
33396W        W46810  15.364   1.828   5.258  0.1021  0.0067  0.0646
33397W        W46811  17.652   6.707  13.639 -0.0028  0.0467  0.1143
33398W        W46812   9.447   0.794  13.445  0.0828 -0.1653 -0.0868
33399W        W46813   0.720   0.218  11.840 -0.2561  0.0863 -0.0723
33400W        W46814   2.561  16.671  14.416  0.0896  0.1480 -0.3783
33401W        W46815  14.524   4.687   0.599  0.0337 -0.0340 -0.2321
33402W        W46816   6.338   4.076  16.543  0.0379 -0.1069 -0.1822
33403W        W46817   8.920   3.289   0.383 -0.2782 -0.1408 -0.3041
33404W        W46818   3.145  14.081   6.034  0.0094 -0.2093 -0.0059
33405W        W46819  12.950   5.236   1.071  0.1938 -0.0709 -0.1234
33406W        W46820   4.532  14.303   6.164  0.0242 -0.1370 -0.2457
33407W        W46821   8.754  14.275   4.837 -0.2157  0.1479  0.2836
33408W        W46822   6.699  16.077  12.465  0.0394  0.2162 -0.0911
33409W        W46823   9.078  11.987   6.770  0.0956  0.0130  0.0682
33410W        W46824   8.725  17.240   0.500 -0.4222 -0.2471 -0.1259
33411W        W46825  14.089   1.878  13.959  0.0034  0.0764  0.1726
33412W        W46826  10.468  10.523   1.257 -0.0282  0.2900 -0.1399
33413W        W46827   2.372  17.793  16.652 -0.1516  0.2046  0.3017
33414W        W46828  12.903  13.988   2.280 -0.2842  0.3528 -0.3096
33415W        W46829  17.660   7.513   2.922  0.0677  0.1735  0.2406
33416W        W46830  14.983  11.747  14.351 -0.0658  0.1977  0.1051
33417W        W46831   3.989  14.426  10.151 -0.1292  0.3133 -0.3085
33418W        W46832  13.848  10.839   4.692  0.4045  0.1495  0.3533
33419W        W46833   8.616  13.689   1.223  0.1294  0.0653 -0.0672
33420W        W46834  17.339  17.517   2.509  0.0017 -0.3078  0.0513
33421W        W46835   0.925   0.362  13.449 -0.0589  0.0714  0.0178
33422W        W46836   8.829  12.041   6.328  0.1768  0.1057  0.1697
33423W        W46837   0.793  12.629   2.342  0.0712  0.0852  0.2328
33424W        W46838  12.311   9.076  15.180  0.0811 -0.1853  0.4636
33425W        W46839   6.227   9.542  14.923  0.0809 -0.0862 -0.0273
33426W        W46840  16.039   6.682  16.550  0.0770 -0.0999  0.0211
33427W        W46841   4.083   8.715   5.313 -0.1092  0.2213 -0.1781
33428W        W46842   4.053   4.653  15.027 -0.2263  0.1401 -0.0473
33429W        W46843  11.522   1.691  14.272  0.0112  0.2258  0.1503
33430W        W46844   9.445   8.399  15.704 -0.0148  0.0987 -0.0043
33431W        W46845  15.042  10.280   2.405 -0.0324 -0.1015  0.1623
33432W        W46846   3.364  17.854  14.535 -0.0309 -0.2544  0.0757
33433W        W46847   1.235  10.659  16.724 -0.1556 -0.4836  0.0833
33434W        W46848   8.338  15.838  13.682  0.0884  0.1246  0.1789
33435W        W46849  13.870  15.808   6.931  0.0858 -0.0686 -0.1658
33436W        W46850   0.332  12.288  10.518  0.3483  0.3380 -0.0156
33437W        W46851   8.113  13.105   4.509  0.3282  0.0014  0.0163
33438W        W46852   6.616   8.692   2.967 -0.0581 -0.2945  0.2578
33439W        W46853   9.813  10.817  11.175 -0.0799  0.0330  0.2473
33440W        W46854  14.838   2.646  15.867 -0.0240  0.0827  0.0696
33441W        W46855   0.455  13.969   0.994 -0.0075  0.0044 -0.1414
33442W        W46856   2.160   8.217  13.189 -0.1113 -0.0298  0.0658
33443W        W46857   3.325  12.599  12.833 -0.2254 -0.3080  0.3544
33444W        W46858   7.548   0.887  15.559  0.2025  0.0253  0.0270
33445W        W46859   0.738   0.665  15.205  0.1147  0.1974 -0.2613
33446W        W46860   4.874   5.118   4.911  0.0908  0.0123  0.1173
33447W        W46861   1.845   6.055  14.930  0.2235 -0.1950  0.0426
33448W        W46862  11.341   0.958   2.189  0.0281 -0.1819 -0.0648
33449W        W46863  11.710  15.909  13.821 -0.2111  0.0315 -0.1771
33450W        W46864   9.979   8.356  13.056  0.1565  0.4179 -0.3270
33451W        W46865  10.220   2.085  15.925 -0.1784 -0.2610  0.2683
33452W        W46866  13.947  12.981   2.206  0.0309 -0.2126  0.2681
33453W        W46867  14.078   6.075  13.149  0.1632  0.2363 -0.1415
33454W        W46868  17.384   3.421   4.138 -0.3974 -0.0146 -0.2252
33455W        W46869   0.758   0.767  14.176 -0.1094  0.0004  0.0185
33456W        W46870  11.805   3.714  14.045  0.2909  0.3648 -0.3249
33457W        W46871   5.809   3.958   1.379 -0.1677 -0.0025 -0.1605
33458W        W46872   3.044  13.010  11.570  0.1088 -0.0525 -0.1551
33459W        W46873   7.206  16.784   2.163 -0.2937  0.1869  0.3468
33460W        W46874   5.914  12.203   3.042  0.1361  0.1100  0.1879
33461W        W46875  13.198   6.464  16.085 -0.2380 -0.1202 -0.3110
33462W        W46876  13.615   0.931   2.261  0.0760  0.1440  0.0983
33463W        W46877   6.263   3.105   0.521 -0.1839 -0.0018  0.0180
33464W        W46878  16.916  11.447   2.171 -0.2201 -0.3214  0.0445
33465W        W46879  11.123   5.465   1.548 -0.1063  0.0712  0.0052
33466W        W46880   0.967  10.568  15.823  0.1141  0.1215 -0.0873
33467W        W46881   7.628   7.368   5.952 -0.0683 -0.0366  0.0035
33468W        W46882   1.871  17.756   9.842 -0.0525 -0.0873  0.3149
33469W        W46883  14.241  15.963  11.591  0.0312 -0.1988 -0.0094
33470W        W46884  14.917   1.142   3.199  0.2763  0.0675 -0.0651
33471W        W46885   6.757   6.983  14.043  0.0984  0.0925  0.0867
33472W        W46886   3.930  14.519  16.090  0.1992  0.2319  0.0727
33473W        W46887  17.205   5.975  12.595 -0.2087  0.0754 -0.0660
33474W        W46888  12.661  16.532   5.694 -0.2783  0.2401  0.1400
33475W        W46889  10.526  13.796  13.530  0.0727  0.3430  0.2812
33476W        W46890  14.057  14.898   0.658  0.0360 -0.2060  0.1008
33477W        W46891  12.061   4.265   4.786 -0.0195 -0.4519 -0.0707
33478W        W46892  12.109  10.952  16.546 -0.3352  0.0094  0.2796
33479W        W46893   0.912   1.967   4.639 -0.2675 -0.1862 -0.0573
33480W        W46894   0.253   0.672   4.939  0.0330 -0.0018  0.0819
33481W        W46895   2.362  14.743  16.606 -0.1118  0.0378  0.0517
33482W        W46896  17.835   7.805  13.670 -0.3675  0.1619 -0.5165
33483W        W46897  15.865   8.332  13.992 -0.2426 -0.1924 -0.0230
33484W        W46898  13.327  14.024  15.608  0.1416 -0.0146  0.0847
33485W        W46899  16.135  11.393   1.763 -0.0017  0.2051  0.2373
33486W        W46900  15.091  10.617  15.265  0.0310 -0.0434 -0.0896
33487W        W46901  17.757   3.904  13.532 -0.0507 -0.0411 -0.2771
33488W        W46902   0.933   0.138   0.181 -0.0305 -0.0612 -0.2711
33489W        W46903   6.194   4.228   1.124 -0.0843  0.1197  0.1225
33490W        W46904   1.668  14.522  16.011  0.0239  0.0483  0.0110
33491W        W46905   5.108   8.485   1.636 -0.0094 -0.1221 -0.1263
33492W        W46906   3.384   1.084   9.911  0.0506 -0.1027  0.0873
33493W        W46907  17.997  10.491   0.247  0.0996  0.3002 -0.1009
33494W        W46908   7.776  14.300   3.486  0.2432 -0.2235  0.1053
33495W        W46909   2.743   8.261   5.360 -0.4174  0.1939 -0.1493
33496W        W46910   4.531   5.152  13.736  0.0644  0.1723  0.1503
33497W        W46911   8.138  10.853   1.065  0.0175 -0.2354 -0.0258
33498W        W46912   6.608   8.094  15.650 -0.0212  0.2505  0.0042
33499W        W46913   7.950   8.218  15.767 -0.0137  0.0304  0.3298
33500W        W46914   4.921  14.582  16.213  0.3107  0.1671 -0.2529
33501W        W46915  15.503   0.623  15.405  0.0588 -0.1463 -0.0456
33502W        W46916  11.746   9.445  13.705  0.0742 -0.0305  0.1168
33503W        W46917   7.884  17.104  14.472  0.1173  0.1636 -0.4013
33504W        W46918   0.260   2.450  13.181 -0.1546 -0.0089 -0.0167
33505W        W46919  12.917   9.702  13.080  0.0769 -0.0264 -0.0312
33506W        W46920   9.199  17.881  13.166  0.0661 -0.1332 -0.1772
33507W        W46921   4.501   9.207   6.087 -0.2187  0.1630  0.2259
33508W        W46922  11.712  17.044  12.049 -0.0524  0.2663  0.1684
33509W        W46923  11.957   8.969   3.585  0.1575 -0.0490  0.0008
33510W        W46924  17.666   6.255   1.518  0.1440 -0.1859  0.1667
33511W        W46925   1.291   1.498  11.147  0.0401 -0.0327  0.1850
33512W        W46926  15.732   3.575   0.709 -0.0374 -0.0704 -0.0471
33513W        W46927  16.080  16.589   1.788 -0.0057 -0.1658  0.2383
33514W        W46928   9.990   9.843  16.252  0.0537 -0.1453  0.0419
33515W        W46929  13.770   4.037  15.612 -0.2910 -0.0977  0.2745
33516W        W46930   2.645  15.848  15.878 -0.0520 -0.0674  0.0898
33517W        W46931   0.115  14.347  11.927  0.3489 -0.0955 -0.1957
33518W        W46932  17.700   3.941   1.948 -0.4553 -0.0958  0.1480
33519W        W46933   4.268  11.297   3.885  0.0046  0.3114  0.0941
33520W        W46934  15.570  14.184   5.619  0.0927 -0.0508 -0.1591
33521W        W46935  11.310   9.276  11.590  0.1146 -0.0213 -0.1263
33522W        W46936   4.190  13.558  14.761 -0.2250  0.0266 -0.3374
33523W        W46937  15.565  10.346  15.373  0.0773 -0.1046  0.1653
33524W        W46938   1.252   2.205  15.665  0.0065  0.1071 -0.1506
33525W        W46939   8.732   1.255   2.455 -0.1556 -0.0434  0.3434
33526W        W46940   8.851   2.713   1.910  0.0004  0.0495 -0.1172
33527W        W46941   4.966   9.615  14.055 -0.2093 -0.3272 -0.2415
33528W        W46942   5.825  10.982   0.612 -0.2183  0.0191  0.0807
33529W        W46943  10.221  13.880   1.199 -0.4234 -0.1138 -0.0335
33530W        W46944   8.062  12.200  14.493  0.1070 -0.1636  0.0277
33531W        W46945  16.635  16.295   5.583  0.0153 -0.0498  0.0806
33532W        W46946   4.167  15.083   2.591  0.1137  0.0385 -0.2758
33533W        W46947  11.032   9.337   1.381 -0.1153  0.3872 -0.0733
33534W        W46948   4.690  15.258   0.242 -0.1446  0.1261 -0.0267
33535W        W46949   9.458  14.026  15.973  0.1747  0.2225 -0.2481
33536W        W46950  10.267  11.771   6.008 -0.0077 -0.1991 -0.0503
33537W        W46951   0.982  17.723   2.073  0.0934 -0.1951 -0.2313
33538W        W46952  13.335  14.865   1.683 -0.1033 -0.0166 -0.2341
33539W        W46953   1.259   2.568   1.373 -0.0905  0.2008  0.0134
33540W        W46954   6.965   1.846   0.636 -0.3123  0.1497  0.3576
33541W        W46955   6.429  17.970  12.478 -0.0656  0.1102 -0.4532
33542W        W46956   2.991   9.318   4.007  0.2319  0.0105  0.0962
33543W        W46957  10.060  13.619  16.495 -0.0699 -0.0427  0.2644
33544W        W46958   5.689   9.837  13.577  0.2064  0.0694  0.0683
33545W        W46959   2.910  17.054   3.227 -0.1179 -0.2702  0.2854
33546W        W46960   5.779  16.913   1.516 -0.4017 -0.0752 -0.2031
33547W        W46961  16.008  13.579   2.476 -0.1744 -0.2286 -0.2024
33548W        W46962   5.581   6.616  12.292  0.4534 -0.0930  0.0466
33549W        W46963   6.521  11.102  12.539 -0.1235  0.0524  0.2139
33550W        W46964   1.033  15.754   1.205  0.3508  0.0417 -0.0036
33551W        W46965  16.011  16.739   1.314 -0.0270  0.2104 -0.1370
33552W        W46966   5.978   2.108   2.738 -0.0967  0.5011 -0.1058
33553W        W46967  10.044  15.997  15.483 -0.3638 -0.0612 -0.1130
33554W        W46968  14.809  16.167   5.835  0.0287  0.0005 -0.1326
33555W        W46969  14.485   3.873  12.931  0.2691  0.2182 -0.0104
33556W        W46970  17.785  10.409  12.735  0.1001  0.2834 -0.0182
33557W        W46971  11.530  10.079  11.689 -0.1629 -0.0485  0.1878
33558W        W46972  14.876   2.924  10.488  0.1192  0.1768  0.0564
33559W        W46973   0.416   2.062  10.140  0.3137 -0.1069  0.4028
33560W        W46974   6.537  16.399  16.452  0.1045 -0.0156 -0.1032
33561W        W46975  12.117   3.062  14.556 -0.1662 -0.3079 -0.1810
33562W        W46976  15.190  10.937  16.224  0.1638  0.0709  0.0009
33563W        W46977   2.782  17.960   0.104 -0.1479  0.4833  0.2684
33564W        W46978   2.493  17.589  11.634  0.0818  0.0340  0.0611
33565W        W46979   9.331   5.686   4.901  0.0154  0.1544  0.1575
33566W        W46980   9.709  13.126  13.224 -0.1225 -0.2965  0.2132
33567W        W46981  14.021  10.404   0.970 -0.2073  0.0837 -0.1109
33568W        W46982   6.828   8.354  13.173  0.0729  0.0646 -0.2928
33569W        W46983  12.923   2.821  12.645 -0.0963  0.2669 -0.0034
33570W        W46984   2.779   9.126  11.793  0.0070 -0.0629  0.2608
33571W        W46985  15.281   5.789  16.570  0.1164  0.1093 -0.0976
33572W        W46986  17.744  17.555  13.179 -0.0722 -0.2341  0.2872
33573W        W46987   1.033   3.746  12.123 -0.0499  0.1160  0.0172
33574W        W46988   7.368  17.355  14.557 -0.1424 -0.4747 -0.0121
33575W        W46989  17.671  11.365   1.713  0.0873 -0.0583 -0.1871
33576W        W46990   6.615   7.922   3.933 -0.0044  0.2492 -0.0622
33577W        W46991  11.128  14.546  12.222  0.2037 -0.1398  0.0852
33578W        W46992  10.827   2.617   1.301  0.0646 -0.1712  0.0691
33579W        W46993   4.810   4.469   5.747  0.1648 -0.0502  0.1026
33580W        W46994  14.262   1.973   1.995  0.0725  0.2598 -0.0762
33581W        W46995  13.078  13.015   5.596  0.1879  0.0604  0.1999
33582W        W46996  11.995   6.924   1.635 -0.1672  0.3664  0.0057
33583W        W46997   6.401   2.914   3.785  0.2098  0.1152  0.1387
33584W        W46998   8.413   5.216  10.758  0.2590 -0.1022  0.0880
33585W        W46999  15.533   7.368   4.571  0.3490 -0.2728 -0.3855
33586W        W47000   1.374  17.045   0.810  0.1147 -0.3093  0.0796
33587W        W47001   6.521  15.856   5.347  0.2508 -0.0202  0.1548
33588W        W47002  13.218   2.951  16.594 -0.0857 -0.0402 -0.1689
33589W        W47003   8.295  13.109  13.715 -0.1870  0.1518  0.0787
33590W        W47004   4.012  17.428   1.208 -0.2259 -0.0596 -0.3814
33591W        W47005  10.489  13.485   0.874  0.0468 -0.3050  0.1797
33592W        W47006   8.602   7.044   4.821  0.1898 -0.1349 -0.1143
33593W        W47007  16.580   9.356   0.772  0.1469  0.0205  0.1090
33594W        W47008  18.000   3.694   5.229  0.5990 -0.0967  0.0515
33595W        W47009   8.098  11.356   5.370  0.0512  0.0641  0.1805
33596W        W47010   0.106  14.819  13.944 -0.0193 -0.0438  0.0867
33597W        W47011  17.837   5.433   4.184  0.1787  0.2162  0.0435
33598W        W47012  14.749  12.241   1.867  0.2657  0.3565  0.3400
33599W        W47013  16.794  12.816  16.522  0.1128 -0.0510  0.0708
33600W        W47014  14.343  11.568   4.534 -0.0803 -0.1192 -0.0489
33601W        W47015  11.199   3.907   3.183 -0.1844 -0.0434 -0.0734
33602W        W47016  13.736   9.308  15.512 -0.0136  0.2228  0.2846
33603W        W47017  17.524  17.713   4.180  0.0780  0.0551 -0.1130
33604W        W47018   3.201  11.518   5.424  0.2417 -0.1572 -0.1055
33605W        W47019   8.752  15.924  11.295 -0.0522 -0.0424  0.1119
33606W        W47020   5.286   2.807  15.175 -0.0233  0.1245  0.1162
33607W        W47021  16.192   5.364   4.669 -0.1203 -0.0980  0.0831
33608W        W47022   4.937  14.613  12.372  0.0194  0.1134  0.0357
33609W        W47023   3.366  14.471   2.115  0.2464 -0.2062  0.0381
33610W        W47024   7.632   2.929   4.979  0.0017 -0.1849 -0.0714
33611W        W47025   3.494   2.256  15.678 -0.0313  0.2141  0.1452
33612W        W47026  14.162   5.306   4.875  0.0236  0.1782 -0.1146
33613W        W47027  16.464  12.894   2.835 -0.0241 -0.0214  0.0044
33614W        W47028  17.629   3.972   0.090 -0.4583  0.1825  0.1008
33615W        W47029   2.751  15.165  13.291  0.0776  0.3973 -0.0298
33616W        W47030  10.663   6.225   1.966  0.0623 -0.3151  0.4783
33617W        W47031  16.773   8.881   0.789  0.0329  0.0824 -0.0560
33618W        W47032  11.468   8.167   1.963 -0.0229 -0.0183 -0.0403
33619W        W47033   2.054   8.786  12.991  0.0401 -0.1122  0.2114
33620W        W47034   5.499   9.840   1.923  0.0011 -0.0644 -0.1742
33621W        W47035  14.362   0.186   6.069 -0.0848 -0.1121  0.2095
33622W        W47036  15.354   0.622   2.741 -0.4211 -0.1184 -0.1220
33623W        W47037  12.438  11.200  13.726  0.3917 -0.1564 -0.1408
33624W        W47038   8.165   7.303  12.787 -0.2235 -0.3876  0.1193
33625W        W47039   0.136  15.462  11.469 -0.1363 -0.1047  0.0523
33626W        W47040  17.916  11.993   1.028  0.0535  0.1544 -0.3657
33627W        W47041   8.986   3.793   5.348 -0.2766 -0.0685 -0.2268
33628W        W47042   8.425  13.501  14.040 -0.0706 -0.3160  0.1907
33629W        W47043  16.317  14.326   1.586 -0.2374  0.0913 -0.2508
33630W        W47044  15.276   8.925  13.184 -0.0486  0.1389  0.2259
33631W        W47045  14.027   9.887  12.242 -0.1353 -0.2851  0.2251
33632W        W47046   6.039  15.412   1.441  0.0500  0.0097 -0.0898
33633W        W47047   6.806  15.421   5.320 -0.0738 -0.0959  0.0699
33634W        W47048   3.917   1.890   5.041  0.1043 -0.2077  0.1027
33635W        W47049  16.757   5.539   3.010  0.1088  0.3192  0.0270
33636W        W47050   4.791  11.063  16.561 -0.0859  0.0520  0.0571
33637W        W47051   0.887   1.088   0.777  0.2091  0.0638 -0.0163
33638W        W47052   9.817  11.648  12.756 -0.4039  0.0181  0.2743
33639W        W47053  16.899   5.120   5.746  0.1808  0.3366 -0.1886
33640W        W47054  12.376   2.385   3.613 -0.0609 -0.2414  0.0687
33641W        W47055  10.748  16.376  15.165 -0.3749  0.2087 -0.3664
33642W        W47056   3.403   8.233  10.395 -0.0440  0.0027  0.0546
33643W        W47057   9.866  14.330   2.149 -0.1093 -0.0101  0.3071
33644W        W47058  16.865  14.924   3.699  0.3067 -0.1325 -0.2467
33645W        W47059   2.837   7.782  15.950  0.2303  0.2417  0.1114
33646W        W47060  17.985  15.674  11.010  0.1540  0.0605  0.1171
33647W        W47061  13.785  14.869   5.210  0.0866 -0.1025 -0.1313
33648W        W47062  17.094  11.455  15.868 -0.0130 -0.2271 -0.0785
33649W        W47063  13.455   7.436   1.775  0.1755  0.2050 -0.1240
33650W        W47064   4.335   2.511   3.397 -0.1603 -0.0142  0.1181
33651W        W47065  15.814   5.731  16.595 -0.0803 -0.0875 -0.0252
33652W        W47066   3.481   3.804  13.187 -0.0134  0.1496  0.4014
33653W        W47067   7.954  17.000  13.901  0.0535  0.2116  0.2384
33654W        W47068  16.237   1.342  11.689  0.0223  0.0519 -0.0074
33655W        W47069  14.911   6.569  14.094 -0.0636 -0.0428  0.1095
33656W        W47070  12.753  14.860   0.910  0.0855 -0.3161  0.0186
33657W        W47071   0.498  12.576  12.006 -0.2752 -0.1222 -0.3221
33658W        W47072   5.120   6.549   6.937 -0.2435  0.0284 -0.3209
33659W        W47073   1.267   8.297   6.120  0.1202 -0.1428  0.2067
33660W        W47074   1.213  10.404  15.437 -0.0018  0.1483 -0.0644
33661W        W47075  17.054   5.752   1.829 -0.0935  0.0897  0.0246
33662W        W47076  10.140  17.051  12.009 -0.1856  0.1303  0.2227
33663W        W47077   0.712   4.518   4.193  0.1408 -0.0763 -0.0354
33664W        W47078   1.220   9.961  14.912 -0.0895 -0.2637 -0.1321
33665W        W47079  17.011  14.515   5.336  0.0209 -0.0423 -0.1984
33666W        W47080  14.618   9.689   1.018 -0.4370  0.1951  0.1521
33667W        W47081   7.036   3.935  14.041  0.0577 -0.0018  0.0775
33668W        W47082   4.449   8.237  16.581 -0.0160 -0.1742 -0.1397
33669W        W47083  14.690  12.031   5.157  0.2435  0.0095 -0.1458
33670W        W47084  11.133   5.183  13.352  0.0858 -0.0620  0.1695
33671W        W47085  11.205  17.879   2.714 -0.2877 -0.0744 -0.0183
33672W        W47086   8.234   8.372  15.330  0.1261 -0.1796  0.1457
33673W        W47087  11.655  12.783   2.558 -0.1146 -0.1598  0.1905
33674W        W47088   5.909   0.595  10.747  0.3597 -0.3253  0.0414
33675W        W47089   4.858  14.277  11.664 -0.0680 -0.0370 -0.0221
33676W        W47090  16.382  10.582   0.151  0.0545  0.2109 -0.4302
33677W        W47091  10.699  15.710  13.210  0.2631 -0.1927  0.2605
33678W        W47092  15.848  15.983   3.784 -0.1528  0.2518  0.0947
33679W        W47093  14.057  14.030   3.446 -0.1315 -0.2497 -0.0008
33680W        W47094   2.027  13.027  13.729 -0.0918  0.2423 -0.0468
33681W        W47095  13.904  11.888  14.389 -0.1476 -0.0373  0.2182
33682W        W47096   7.983  12.553   1.558  0.0345  0.1438 -0.0018
33683W        W47097  12.585   6.361   0.496 -0.1228  0.3158 -0.2149
33684W        W47098   6.426  17.536   4.326 -0.0594 -0.0727  0.1570
33685W        W47099   3.015   0.666   1.897  0.3370 -0.0657 -0.1484
33686W        W47100  11.893   9.324   5.410 -0.2218 -0.1462 -0.1847
33687W        W47101   5.913   1.980  10.270 -0.2522  0.3226  0.2290
33688W        W47102   5.581  13.467  10.913 -0.0306  0.3221 -0.0164
33689W        W47103   1.156  10.132   0.948  0.2789 -0.0858  0.0822
33690W        W47104  13.897   9.997  11.779  0.1406 -0.0852 -0.2637
33691W        W47105   4.070   7.612  15.143 -0.0050 -0.0566 -0.0864
33692W        W47106   1.138   5.630   2.018  0.1787  0.0987  0.4192
33693W        W47107  17.361  14.308  11.460  0.2477 -0.0633  0.0299
33694W        W47108  15.228   3.562   3.393  0.2428  0.1084 -0.1639
33695W        W47109  14.589  12.426   2.455  0.2526 -0.1342  0.1395
33696W        W47110   9.855   4.382   5.058 -0.1200  0.0021 -0.0344
33697W        W47111   4.470   7.172  13.273 -0.0103 -0.2021  0.0936
33698W        W47112  10.852   0.922   6.237  0.0361  0.0633 -0.1076
33699W        W47113   8.902  11.424   3.234  0.1629  0.0436  0.0670
33700W        W47114  13.576  13.319  15.907 -0.1815 -0.2578  0.1418
33701W        W47115   1.813   1.226  13.688  0.1954 -0.1021  0.0716
33702W        W47116   1.579  14.721   2.543  0.1185  0.0689 -0.3003
33703W        W47117  17.930  17.190  10.738 -0.0342  0.1534  0.0533
33704W        W47118   6.246  11.327   0.703 -0.0663 -0.1073 -0.0662
33705W        W47119   5.586   6.455   1.413  0.3685 -0.0566  0.3124
33706W        W47120   1.064   8.448  16.750  0.2211 -0.2972 -0.0084
33707W        W47121  13.985   9.590   0.573  0.1692 -0.1547  0.3701
33708W        W47122  12.707   8.871   6.258 -0.0375  0.0453  0.3253
33709W        W47123  15.140   6.768  14.483 -0.4065  0.0431  0.0748
33710W        W47124   0.805  10.611   0.178  0.2247  0.0110  0.3349
33711W        W47125  17.674  16.781   0.529  0.0006 -0.0053  0.0000
33712W        W47126   5.381  14.808  13.011 -0.1574 -0.0586  0.0590
33713W        W47127   9.593   0.556  14.933  0.0748  0.0435  0.0500
33714W        W47128   2.558   8.507   4.055  0.2177  0.2164 -0.4462
33715W        W47129  11.881   8.088   6.245  0.0519  0.1310 -0.2069
33716W        W47130   3.735   0.878  11.450 -0.2442 -0.1445 -0.2135
33717W        W47131   8.751   9.402   0.212  0.0526 -0.0775 -0.1505
33718W        W47132   4.580   8.381  14.696 -0.1145 -0.0110  0.0196
33719W        W47133   5.988   1.195  13.236  0.0868  0.0705  0.1464
33720W        W47134   9.718   3.718  16.654 -0.1774 -0.1740 -0.0605
33721W        W47135   8.813   4.288  15.867 -0.1634 -0.3074 -0.3008
33722W        W47136   4.846   3.010  14.138 -0.3802 -0.0245 -0.1607
33723W        W47137   9.575   2.875  15.585 -0.3475  0.1309 -0.1411
33724W        W47138  13.318   2.360   1.607 -0.0784 -0.0894  0.2880
33725W        W47139  13.049   2.368   4.202  0.0370  0.1217 -0.0213
33726W        W47140  17.173  14.622  11.066  0.1225 -0.0103 -0.2714
33727W        W47141   6.611   0.828   2.196 -0.2384  0.2580  0.0904
33728W        W47142   9.193   8.728   3.234  0.1601 -0.0345  0.1054
33729W        W47143   5.592   6.840   5.371  0.2294 -0.1850 -0.0875
33730W        W47144   5.342   9.322   5.222  0.1310  0.0244  0.1448
33731W        W47145  11.071   4.457   2.709 -0.1115  0.0639 -0.0817
33732W        W47146   9.702  13.605  13.209  0.0493 -0.1374 -0.1552
33733W        W47147  15.290   1.244   3.946  0.0549  0.1842  0.1323
33734W        W47148  13.165  16.543   1.662 -0.1708 -0.1698 -0.1435
33735W        W47149   0.829  17.594  14.948 -0.0134  0.3312 -0.2993
33736W        W47150  10.688   5.297   0.829 -0.1886 -0.0379  0.1891
33737W        W47151   0.364   2.021   4.476  0.0522 -0.2736 -0.1267
33738W        W47152  13.709  12.652   0.556  0.0278 -0.0197  0.0469
33739W        W47153  15.913  14.855  12.399  0.0220  0.0817  0.0929
33740W        W47154   4.739  13.817  10.668 -0.1705 -0.0675  0.1989
33741W        W47155   4.087  17.196  10.999  0.0055  0.0580 -0.0527
33742W        W47156  13.632   2.707   2.297  0.0537 -0.2326  0.0525
33743W        W47157  15.682   6.195  12.921  0.2003  0.1403 -0.3453
33744W        W47158   9.906   2.329   0.449  0.1230  0.2581 -0.2013
33745W        W47159   2.668   8.560   1.894 -0.0164 -0.1553 -0.2908
33746W        W47160  16.920   0.626   0.810  0.0541 -0.1438  0.1869
33747W        W47161   7.629   6.289   3.430 -0.0960  0.2784  0.2139
33748W        W47162   6.284   8.712  14.104  0.1822 -0.3091  0.0935
33749W        W47163  14.095   3.052  12.598  0.0233  0.1642 -0.1702
33750W        W47164  12.138   5.924   2.838 -0.1366  0.1139 -0.3820
33751W        W47165   1.146  14.683   5.263 -0.0496 -0.0127 -0.1654
33752W        W47166   0.602   5.170   3.183 -0.0187  0.1323 -0.2007
33753W        W47167   7.511  16.453   4.831 -0.1108 -0.0544 -0.1086
33754W        W47168  14.704   9.222  13.656  0.0810 -0.2306  0.1853
33755W        W47169   2.973  10.920  11.893  0.0149 -0.2730  0.2619
33756W        W47170   5.761  17.472  11.412  0.1166 -0.0597 -0.1873
33757W        W47171   8.241   3.471   0.151  0.0646  0.1212 -0.1663
33758W        W47172   9.650   6.859   2.588 -0.2284  0.0775  0.1846
33759W        W47173  14.831   0.263  12.262 -0.4447  0.3342 -0.2499
33760W        W47174   5.139   1.407  15.883 -0.2908  0.3035 -0.0246
33761W        W47175   8.360  16.205  14.307  0.0107 -0.0799 -0.0274
33762W        W47176   4.928  17.866   3.252 -0.1419  0.1062 -0.0813
33763W        W47177   9.988  14.698  11.792  0.0273 -0.0832 -0.1261
33764W        W47178   4.859  11.868  10.885  0.0209  0.1683 -0.2814
33765W        W47179   3.909   0.647   1.494  0.3633 -0.0216  0.4767
33766W        W47180   7.200   5.869  12.190 -0.0359 -0.2546 -0.0038
33767W        W47181  10.554   8.376   1.466  0.1936  0.3521  0.1188
33768W        W47182  14.288  15.305  13.564  0.2099  0.3147 -0.0408
33769W        W47183   8.755  15.865  16.357 -0.1673  0.0600  0.2756
33770W        W47184  17.892   0.511  10.321 -0.0519 -0.0441  0.1976
33771W        W47185  13.197  16.081   4.973 -0.0205  0.0172 -0.0041
33772W        W47186  10.403  11.727  14.757 -0.0177 -0.3127  0.0549
33773W        W47187  17.664   4.633  12.836 -0.2368 -0.1288  0.4509
33774W        W47188  16.457   6.122   2.227 -0.0629  0.1510 -0.3259
33775W        W47189   9.035  15.856   2.005 -0.1025 -0.1562  0.0890
33776W        W47190  12.186   0.873  16.722  0.3661  0.0707 -0.0989
33777W        W47191   8.761   9.815   4.696 -0.1194  0.2628 -0.2508
33778W        W47192  11.951  14.069  15.133 -0.1959  0.0659  0.0704
33779W        W47193  13.029   6.746   2.020 -0.0763 -0.1036  0.3187
33780W        W47194  12.572  12.318   4.405 -0.1761  0.0915  0.2990
33781W        W47195   9.741  11.569  13.234 -0.2281  0.0798 -0.0959
33782W        W47196  11.777  16.954   5.921  0.1403 -0.1068 -0.2227
33783W        W47197  13.288  17.897  12.133  0.4123  0.3565  0.2900
33784W        W47198   7.107  15.994   2.815 -0.2230 -0.6361 -0.3024
33785W        W47199  14.160  15.788  12.600  0.4259  0.1077  0.1610
33786W        W47200  16.104   9.937  15.552 -0.0004  0.0587  0.0842
33787W        W47201   7.599  12.935  15.726 -0.3121  0.1136  0.2465
33788W        W47202   0.280  13.811  13.964  0.2196  0.0049  0.1907
33789W        W47203   5.821  13.228  10.317 -0.2176 -0.0380 -0.4448
33790W        W47204  16.847  11.930  14.409 -0.0736 -0.0007  0.3002
33791W        W47205   9.855  12.750   4.130  0.4055  0.0237 -0.2092
33792W        W47206  13.080   1.624  15.948 -0.1832 -0.0210  0.1281
33793W        W47207  11.324  12.318   5.133  0.1703 -0.3310  0.0475
33794W        W47208   5.037   2.723  15.578 -0.2761  0.0517  0.1716
33795W        W47209   9.185   1.522   4.407  0.0257  0.1075 -0.2057
33796W        W47210  12.751  10.431   3.169 -0.0779  0.1637  0.0154
33797W        W47211  14.128   2.264  14.270 -0.1035 -0.0523 -0.1579
33798W        W47212  14.230   2.915  14.525  0.1999 -0.2335 -0.0101
33799W        W47213   5.267  12.233   4.467  0.0985 -0.2161  0.0032
33800W        W47214   5.186  13.678  12.159 -0.2027 -0.0350  0.1573
33801W        W47215   0.984  17.616   3.799 -0.0713  0.1104 -0.1029
33802W        W47216  13.109  10.577   2.360 -0.2583 -0.0806  0.0145
33803W        W47217   5.386   7.805   2.161 -0.1199 -0.1139 -0.0513
33804W        W47218  10.520  15.500   2.200 -0.0889 -0.0680  0.2705
33805W        W47219  10.660  14.464   5.725  0.0874  0.0325 -0.1940
33806W        W47220   8.089  14.917   0.080  0.1274  0.4312  0.0460
33807W        W47221   0.734   0.723   4.843 -0.2545  0.0869  0.2235
33808W        W47222  16.023  14.567   2.376  0.0900  0.0535  0.0704
33809W        W47223  12.292  10.694   3.145 -0.1717  0.1675 -0.4067
33810W        W47224   6.366  16.240   2.475 -0.0808  0.0323  0.1094
33811W        W47225   0.304   5.243  12.298  0.0686  0.0012  0.3178
33812W        W47226  15.569   7.828  14.033  0.0750  0.0225  0.1240
33813W        W47227  14.842  12.982   3.050 -0.0782  0.2344  0.0969
33814W        W47228   8.604   9.948  12.187 -0.0474  0.1388 -0.2193
33815W        W47229  11.690   8.035   1.152 -0.0769 -0.1317  0.0678
33816W        W47230  10.343  17.274  11.577  0.4616 -0.0906  0.4151
33817W        W47231   8.042   0.808  13.775 -0.0205 -0.0703 -0.1144
33818W        W47232  17.140  11.463   3.527 -0.1086  0.6360 -0.0500
33819W        W47233  11.313   0.987  16.261  0.5731 -0.1409  0.0894
33820W        W47234   3.480   9.962   3.809  0.1438 -0.2016 -0.0954
33821W        W47235  12.054   4.793   3.779  0.1241 -0.2061  0.1935
33822W        W47236  17.604  16.884  11.560 -0.0913 -0.0277  0.1237
33823W        W47237  11.307   9.167   5.672  0.2163  0.0432  0.2093
33824W        W47238   3.764   1.365  13.164  0.0277 -0.0403 -0.3242
33825W        W47239   9.985   6.283   0.458 -0.0046 -0.1521  0.0240
33826W        W47240   9.499   9.250  13.028  0.1002 -0.2031 -0.0314
33827W        W47241  17.777   6.465  11.748  0.3867  0.1931 -0.4915
33828W        W47242   6.810   1.215  16.337  0.1715 -0.2369 -0.1217
33829W        W47243   0.880   9.471   1.757  0.0687 -0.1192 -0.0943
33830W        W47244  10.772   3.621  14.002 -0.1461  0.0102 -0.1414
33831W        W47245   4.997  10.641  16.501  0.1270  0.0093 -0.1527
33832W        W47246  12.446   2.670   4.126 -0.0730 -0.0372 -0.0439
33833W        W47247  12.345   7.253   4.433  0.3202 -0.1699  0.4810
33834W        W47248   5.977   5.347  16.428  0.0475 -0.1405  0.4311
33835W        W47249  15.077  17.561   1.725 -0.0947  0.0229 -0.0087
33836W        W47250   9.911   6.549   1.850  0.0824 -0.0319 -0.0172
33837W        W47251   8.981  17.209  11.044  0.0390 -0.0425 -0.0611
33838W        W47252  17.577   8.693  15.288 -0.0282  0.0676 -0.2021
33839W        W47253   4.892  12.091  11.370  0.2055  0.3783 -0.0158
33840W        W47254  14.708   3.279  15.981 -0.1323 -0.0590 -0.0193
33841W        W47255  16.029   8.228   4.124  0.1159  0.0282  0.3698
33842W        W47256  17.042  15.698  13.160 -0.4955  0.1305 -0.0295
33843W        W47257  16.190  15.305  15.503  0.1113 -0.2095 -0.0386
33844W        W47258  14.801   1.943  13.829  0.0979 -0.0314  0.1675
33845W        W47259   3.952   8.746  14.760  0.1090 -0.2352 -0.1672
33846W        W47260  14.502   4.285   4.642 -0.1448 -0.1122 -0.2685
33847W        W47261   4.740  14.418  16.666 -0.0845  0.0106 -0.2471
33848W        W47262   3.614  10.043   2.713  0.5399 -0.3140 -0.1596
33849W        W47263  12.389   5.512   1.646  0.0540  0.3050  0.2003
33850W        W47264  13.402   4.030   6.124  0.0385  0.0523 -0.0019
33851W        W47265   5.925   5.337   0.910 -0.1928  0.3238 -0.4969
33852W        W47266   1.768  17.703  12.451 -0.1632  0.2707  0.1294
33853W        W47267  15.008   2.400  16.415  0.0547 -0.1187  0.2548
33854W        W47268  14.333   1.434   3.762 -0.1168 -0.1094  0.0378
33855W        W47269  10.104  16.881   5.438  0.0527  0.1928  0.0589
33856W        W47270  12.160  14.655   0.454 -0.4140 -0.0685 -0.2968
33857W        W47271   0.571   6.980  15.342 -0.0911  0.0138  0.1156
33858W        W47272   6.957  16.910   1.214  0.0643  0.0111  0.2282
33859W        W47273   6.836   1.976   2.587 -0.1701 -0.1604  0.0359
33860W        W47274  15.244  15.878  15.077  0.1279 -0.1867  0.1761
33861W        W47275  12.999  13.315   3.040 -0.0625 -0.0001  0.1047
33862W        W47276  14.073  11.649  15.350  0.2559 -0.1071  0.4014
33863W        W47277   9.237  11.482  13.293 -0.0688  0.0514  0.2790
33864W        W47278  17.424   0.837  15.345 -0.0322 -0.1387  0.1322
33865W        W47279   0.091  16.497   4.585 -0.1597 -0.0552 -0.1672
33866W        W47280   5.081  16.447   1.251  0.0397  0.1159  0.0757
33867W        W47281  17.458  15.072  16.303 -0.1983  0.0877 -0.1973
33868W        W47282   9.650  12.531  12.293 -0.2789  0.0383 -0.1195
33869W        W47283   1.188  16.534  10.827  0.0926  0.3458 -0.1173
33870W        W47284   0.880  14.518  12.356  0.2146 -0.1211 -0.1050
33871W        W47285   1.776   3.758  11.876  0.0204 -0.3655  0.0341
33872W        W47286   4.246   0.217   5.004 -0.1749 -0.0948  0.0506
33873W        W47287   0.277  10.120   1.865  0.3127  0.0830  0.3776
33874W        W47288   9.560   9.710  12.005 -0.0840 -0.0058 -0.0083
33875W        W47289   7.138  15.924  10.236  0.2107 -0.1085 -0.3072
33876W        W47290   5.731  17.097  10.953 -0.1428 -0.4784 -0.2668
33877W        W47291   5.409   4.761   1.711  0.0253  0.2286 -0.2766
33878W        W47292  12.874  17.049  13.181 -0.0544 -0.0944 -0.1748
33879W        W47293   4.560   5.751   2.628  0.0284 -0.0124  0.1326
33880W        W47294   8.610   0.413   1.850 -0.1976  0.1888  0.2167
33881W        W47295   6.356   1.352  12.606  0.0927 -0.0883 -0.1751
33882W        W47296  12.139  16.766   0.994 -0.0187  0.1149 -0.0974
33883W        W47297  10.195  16.191  14.469  0.0140  0.1080  0.0745
33884W        W47298   3.206  17.340   0.333 -0.1472 -0.1752  0.0478
33885W        W47299   7.095   2.177   3.597  0.2926  0.1196 -0.1294
33886W        W47300  17.714   1.105  12.261 -0.2140  0.1428 -0.1459
33887W        W47301   5.814   2.506   1.182 -0.0377 -0.1032  0.0856
33888W        W47302   2.142   8.908  13.914  0.1167  0.0028 -0.0286
33889W        W47303  11.870   8.481   3.734 -0.0530 -0.1880 -0.2615
33890W        W47304   1.646   6.703   6.097  0.0949 -0.1869 -0.1330
33891W        W47305   2.344  15.097  16.286  0.0043 -0.0156  0.1091
33892W        W47306  17.653   8.870   3.196 -0.1622  0.2583 -0.0958
33893W        W47307   2.975   7.111  12.767  0.1028  0.2467  0.0649
33894W        W47308  14.318   2.151  15.259 -0.2449  0.2088 -0.2688
33895W        W47309   6.329   1.571   4.878  0.0250 -0.2213 -0.0159
33896W        W47310   7.582  12.684  12.715  0.0023 -0.0511  0.1399
33897W        W47311  14.535  16.130   0.635  0.1836  0.3592 -0.0986
33898W        W47312  16.231   5.705  16.267 -0.0939 -0.0337  0.0423
33899W        W47313  12.699  12.341   2.995 -0.1722 -0.1170 -0.0324
33900W        W47314  15.742  12.559  11.567  0.1615  0.1302  0.0754
33901W        W47315   6.321  14.887   0.768 -0.3982 -0.0358 -0.3675
33902W        W47316  15.192  12.799  13.706 -0.1772  0.1171 -0.2400
33903W        W47317  11.757  14.341  13.525  0.1852  0.0080 -0.0290
33904W        W47318   5.619   1.531   3.659 -0.2106 -0.3527  0.4154
33905W        W47319   6.156   8.071  16.426 -0.3378 -0.3170  0.1771
33906W        W47320   9.381   3.670   4.078  0.2721  0.0314  0.1243
33907W        W47321   7.377   5.553   5.066 -0.1217  0.4023 -0.0726
33908W        W47322   2.207  17.158   1.272  0.1726  0.0532  0.0468
33909W        W47323   8.794   9.264  13.746 -0.0386  0.0705  0.2787
33910W        W47324  14.088   4.980  13.437  0.1054  0.0570 -0.0241
33911W        W47325   0.135   6.561  15.030 -0.0879  0.1850 -0.0175
33912W        W47326  16.887   8.916   2.400  0.3025 -0.2148 -0.1086
33913W        W47327   2.549  16.192  10.642 -0.2036 -0.5031  0.1635
33914W        W47328  15.418  16.912   0.738 -0.0658  0.0439 -0.0651
33915W        W47329   0.279   3.407  10.862 -0.1276  0.1906  0.0466
33916W        W47330  17.902   1.009   3.758 -0.0676  0.0465  0.1023
33917W        W47331  12.423   3.743  13.731 -0.1299 -0.0046  0.3050
33918W        W47332   7.837   9.269  14.303  0.0386 -0.0430  0.0205
33919W        W47333   3.312   2.903  16.526  0.2376  0.2311  0.0801
33920W        W47334   0.140   6.195   4.638 -0.2214 -0.0090  0.2803
33921W        W47335   9.618  16.950   5.677 -0.2046 -0.0889  0.2044
33922W        W47336  12.526  16.752  11.599 -0.0118 -0.0960  0.2960
33923W        W47337   4.495  12.169  11.709  0.0183  0.0856 -0.1452
33924W        W47338  12.244   4.639  12.097  0.1253  0.0742  0.0114
33925W        W47339   8.235   1.625   0.825 -0.0511 -0.0013  0.4490
33926W        W47340  17.083   1.531  14.727  0.1287 -0.0892  0.0638
33927W        W47341  12.090   2.510   1.145 -0.3960  0.1437  0.1749
33928W        W47342   3.314   5.074   3.475 -0.0958 -0.1033  0.0924
33929W        W47343   6.829   8.497  11.576  0.0813 -0.2369 -0.2184
33930W        W47344   7.252   7.330   0.776  0.3175  0.1277  0.1222
33931W        W47345   5.518   2.074  15.591  0.2212  0.1081  0.0630
33932W        W47346  14.811  12.094   6.273  0.2852 -0.1199 -0.2492
33933W        W47347   8.700  10.775   6.205  0.0058  0.2346  0.4815
33934W        W47348   5.489  10.312   4.974  0.1297  0.2041  0.0159
33935W        W47349  15.636  16.554  16.413  0.2539  0.0882 -0.2431
33936W        W47350  13.507   6.622   3.896  0.0245 -0.0331 -0.2363
33937W        W47351  13.168   1.255  11.841 -0.3502  0.0966  0.3176
33938W        W47352   0.446  11.282  15.046 -0.1518  0.1360 -0.0318
33939W        W47353   8.951   6.939  12.714  0.1868 -0.0506 -0.1014
33940W        W47354  16.014  16.868  13.936 -0.2739  0.0518 -0.4030
33941W        W47355  12.153  16.912  13.540 -0.0299  0.0559 -0.0509
33942W        W47356  11.838  12.002   0.722  0.1522 -0.0172 -0.0041
33943W        W47357   2.150  14.234   2.778 -0.1116  0.1686  0.1238
33944W        W47358  14.779  10.666   5.904  0.0947 -0.0466 -0.1640
33945W        W47359  14.682   7.420   0.147 -0.1227 -0.2701 -0.1676
33946W        W47360  11.007   6.530   4.320  0.1876  0.1565 -0.1134
33947W        W47361   5.577  15.622   0.067  0.1385  0.2193  0.2645
33948W        W47362  15.683   6.920  15.087 -0.0526 -0.0649  0.0737
33949W        W47363  13.355  14.194  16.086 -0.1444  0.1743  0.0627
33950W        W47364   0.631   4.191  14.791  0.0713 -0.0046 -0.0509
33951W        W47365  11.241  11.317   4.017  0.3361 -0.0912 -0.3394
33952W        W47366  14.486  17.582   1.970 -0.2003 -0.1526  0.3841
33953W        W47367   1.026  16.220  12.491  0.1315  0.1412  0.1932
33954W        W47368   2.696  15.791   2.043 -0.0397  0.1286 -0.0865
33955W        W47369  14.743   1.298   4.098 -0.0551  0.0969  0.1838
33956W        W47370  10.262   0.878   1.577 -0.2101  0.0257 -0.0003
33957W        W47371   1.104   5.090   4.888  0.1137  0.2658 -0.0512
33958W        W47372  17.140   2.717  10.739 -0.0619  0.2244  0.1368
33959W        W47373  10.643   0.766  13.611  0.0436 -0.0423  0.0398
33960W        W47374  17.378   8.456   3.241  0.2873 -0.0684  0.0512
33961W        W47375   7.164  11.446  12.284  0.0320  0.1658  0.0280
33962W        W47376   2.044  14.363  12.593  0.1405  0.0123 -0.0557
33963W        W47377  10.958  17.159  16.007  0.1554 -0.2405  0.0542
33964W        W47378  11.357  15.675   3.940 -0.0619 -0.0031 -0.0138
33965W        W47379   8.761   9.044   0.695 -0.0065 -0.2895 -0.0008
33966W        W47380   8.781   1.539  15.216 -0.0740 -0.1749  0.0038
33967W        W47381   1.923  12.438  13.628 -0.0443  0.0321  0.1367
33968W        W47382   1.922  10.557   2.762 -0.0849  0.0999  0.0036
33969W        W47383  10.964   9.633   0.423  0.0581 -0.1227  0.0522
33970W        W47384   1.428   0.269  13.595 -0.1791 -0.1481  0.1533
33971W        W47385   5.033   8.335   5.542  0.1881 -0.1503 -0.1330
33972W        W47386  14.386  17.496  15.136 -0.0823  0.0154  0.1416
33973W        W47387  17.167   6.631  14.703 -0.1437  0.0766 -0.2743
33974W        W47388  15.500   0.956  12.375 -0.1084 -0.3254 -0.2132
33975W        W47389   4.537  15.043   4.903  0.1793  0.0621  0.1409
33976W        W47390  12.005  13.298   4.120  0.1086  0.0172 -0.1022
33977W        W47391   4.381   1.975  10.180  0.2187 -0.2528  0.2317
33978W        W47392  10.732  11.931   2.749 -0.0191  0.0078 -0.0389
33979W        W47393  12.726  15.870  16.004  0.0892  0.0422 -0.1272
33980W        W47394   2.531  17.903   4.749 -0.2961 -0.3424  0.1193
33981W        W47395   4.036  13.649  15.772 -0.1032  0.0620 -0.0586
33982W        W47396   5.422   7.928  13.510  0.1712 -0.0372  0.1668
33983W        W47397   6.213  16.344  15.953 -0.1506 -0.0422  0.1829
33984W        W47398   5.964   6.030   3.469 -0.0903  0.2216 -0.0392
33985W        W47399   5.496  15.481  14.595  0.2901  0.1605  0.1130
33986W        W47400   1.704   1.135   3.561 -0.1131  0.2604  0.1361
33987W        W47401   9.533   7.157   5.327 -0.1579  0.0145 -0.0557
33988W        W47402   2.612  12.065   9.948 -0.2667  0.0522 -0.0528
33989W        W47403  17.609   5.639   3.686 -0.1594  0.5455  0.0344
33990W        W47404   5.883   6.491  14.209  0.3260 -0.2892 -0.3352
33991W        W47405  17.263  17.054  15.371  0.1044 -0.0897  0.0299
33992W        W47406   8.516   4.325   5.163  0.0098  0.0880 -0.2928
33993W        W47407  14.480  10.848  15.961 -0.0673  0.0648  0.0938
33994W        W47408   8.008   9.437  15.220  0.0416 -0.4480 -0.2527
33995W        W47409  13.795   8.398  11.044  0.0594 -0.0377  0.1489
33996W        W47410  16.895  15.742   4.200 -0.1209 -0.4141 -0.2236
33997W        W47411  11.898   9.366   1.284  0.4102  0.2055 -0.0966
33998W        W47412  10.849   8.320   2.928 -0.3290  0.2859  0.1820
33999W        W47413   5.490   8.816  15.606 -0.4266 -0.0452 -0.4887
34000W        W47414   6.795  17.724   0.625  0.0535 -0.2677  0.0887
34001W        W47415  10.149   8.968   3.952  0.0352 -0.0886 -0.0819
34002W        W47416  12.105   4.942  12.622 -0.0946  0.1602  0.3521
34003W        W47417   6.523   8.942   4.739  0.1263 -0.1262  0.0362
34004W        W47418   3.622  17.902  16.025  0.1148 -0.0639 -0.2325
34005W        W47419   4.451   8.635   0.620 -0.0552  0.1105  0.0196
34006W        W47420   0.061   9.254  10.035  0.0727 -0.0199  0.1505
34007W        W47421  10.699  12.838   2.534 -0.2528  0.1325 -0.0238
34008W        W47422   7.578   8.871  12.774  0.0789 -0.0929 -0.1160
34009W        W47423   7.391  11.677   6.582 -0.0124  0.1419 -0.4365
34010W        W47424   0.129  16.962  11.709  0.0207  0.2648 -0.1631
34011W        W47425  14.002  10.800   0.111 -0.0917  0.0796 -0.0664
34012W        W47426  17.149  17.220  12.141  0.0416  0.1308 -0.1498
34013W        W47427  13.244  17.673  12.671 -0.1692  0.0307 -0.2999
34014W        W47428  11.993  17.049   2.476  0.2033  0.0425 -0.3284
34015W        W47429   7.188   5.686  13.138  0.0320  0.0545 -0.1221
34016W        W47430  11.665  10.407   4.255 -0.2249 -0.0348  0.0967
34017W        W47431   1.298   2.571   4.574 -0.0247 -0.1924 -0.0163
34018W        W47432  12.550   2.303   1.268  0.2402 -0.0241 -0.0388
34019W        W47433   2.112   6.517   3.330 -0.2349 -0.0911 -0.0602
34020W        W47434  12.316   1.630   0.561  0.4708  0.3163 -0.1915
34021W        W47435   0.996  11.887  15.049  0.1777 -0.0652  0.2714
34022W        W47436  16.866  13.919  16.241 -0.2028 -0.1368 -0.1368
34023W        W47437  13.738   9.491   5.041 -0.1684 -0.0387 -0.0687
34024W        W47438   5.849  17.090   2.205  0.0464  0.1263 -0.2884
34025W        W47439   1.884  17.461  14.123 -0.1156 -0.0348 -0.2313
34026W        W47440  10.956   2.822   5.264 -0.1560 -0.2827 -0.1796
34027W        W47441  12.484   4.390   3.635  0.1502  0.4280 -0.0636
34028W        W47442   4.310  12.527  13.747 -0.3067 -0.0122  0.1118
34029W        W47443  15.342  11.901   5.796 -0.3171 -0.1819 -0.0184
34030W        W47444   3.052  15.621  14.238  0.0407  0.0111  0.1855
34031W        W47445   9.100  10.019   1.043 -0.2814  0.3755 -0.2729
34032W        W47446  10.867  15.637   4.055  0.0396  0.0576  0.1145
34033W        W47447  15.856   1.072  15.212 -0.0833  0.3932  0.0723
34034W        W47448   8.979   6.430  13.615  0.2006 -0.2919  0.1938
34035W        W47449  10.314  12.851  11.549 -0.1367  0.1704 -0.0374
34036W        W47450   6.294   7.730  12.603  0.3642  0.1154 -0.2964
34037W        W47451  16.992  16.880  14.227 -0.0315  0.1798 -0.1237
34038W        W47452  13.391  16.756  14.498 -0.1145  0.0823 -0.1513
34039W        W47453  14.588   8.790   3.460 -0.4428  0.0521 -0.0662
34040W        W47454   1.249   9.866  15.541 -0.2357 -0.0034 -0.1825
34041W        W47455   6.265   6.753   6.339 -0.1237 -0.1716 -0.0805
34042W        W47456   8.425  10.688  13.875 -0.0692 -0.3700  0.1346
34043W        W47457  11.363  14.392  13.149  0.1752 -0.1520 -0.0297
34044W        W47458   6.792  12.292   5.257  0.2497 -0.0446  0.1291
34045W        W47459  17.643   1.342  11.393  0.1368 -0.1901  0.1482
34046W        W47460  17.054  11.829   3.114 -0.1064 -0.0345  0.0944
34047W        W47461  11.815   0.304   4.782  0.1800  0.2801 -0.1678
34048W        W47462   4.837  12.885   1.199 -0.1538 -0.2291 -0.1592
34049W        W47463   0.686   6.733   0.450 -0.1765  0.0267 -0.1072
34050W        W47464   3.265  14.557  15.611  0.0045 -0.1676 -0.0436
34051W        W47465  13.375   5.564  11.017 -0.1097  0.0113 -0.1477
34052W        W47466   2.210  15.798  11.943  0.2082 -0.2391 -0.2602
34053W        W47467   6.153   6.506  13.524  0.0088  0.4591 -0.0685
34054W        W47468  12.360  12.741   0.049 -0.1083 -0.0342  0.1333
34055W        W47469   5.716   9.229  14.267  0.0914 -0.3278 -0.1052
34056W        W47470   0.553  11.868  14.265  0.2851  0.3988 -0.2826
34057W        W47471   0.378   1.292  16.078 -0.1151 -0.0507 -0.0446
34058W        W47472   6.884   7.260  16.030 -0.2776  0.0651 -0.0876
34059W        W47473   4.061  15.023   4.941 -0.2608  0.0412  0.2439
34060W        W47474   0.452   3.356   2.119 -0.0165  0.0054 -0.2132
34061W        W47475  10.908  10.642  11.650  0.1289  0.1560  0.2019
34062W        W47476  16.584   5.948   6.101  0.0732 -0.0140  0.0191
34063W        W47477  17.306  10.661  12.694 -0.0796  0.2095  0.0605
34064W        W47478  10.167  13.610   4.665 -0.0721 -0.0983  0.0070
34065W        W47479  10.976  13.613   3.570 -0.0807  0.2000  0.3452
34066W        W47480  13.572   1.189   0.345 -0.0394 -0.2856 -0.1589
34067W        W47481  11.705  13.543   0.805  0.2844 -0.0447  0.1988
34068W        W47482   9.650   2.412  13.260 -0.1214  0.0584 -0.0818
34069W        W47483   8.527  14.681   2.389  0.0587 -0.0199  0.1155
34070W        W47484   8.715  13.136   0.391 -0.0092 -0.1554  0.0437
34071W        W47485  16.719  11.193   5.622  0.3359 -0.1424 -0.0570
34072W        W47486  10.172  17.704  13.532 -0.0403  0.0902 -0.0334
34073W        W47487   9.034   4.369   2.710  0.0289  0.2381 -0.2569
34074W        W47488   3.525  17.384  14.736 -0.1950 -0.2970  0.3859
34075W        W47489   9.973   4.662  14.064 -0.2049 -0.1769  0.1590
34076W        W47490  15.157  16.910   4.774  0.2020 -0.0412 -0.1939
34077W        W47491   2.238  12.135   2.113  0.1101 -0.0396 -0.0737
34078W        W47492  13.181  17.921   2.128 -0.0675  0.3779  0.2067
34079W        W47493   6.257   4.973  12.553 -0.2664  0.2150 -0.2870
34080W        W47494   3.004  16.924   1.059  0.0007 -0.0424  0.0342
34081W        W47495  14.164  15.777   2.700  0.1488 -0.1786  0.1466
34082W        W47496   5.475  11.526   3.468  0.1824  0.0005 -0.1072
34083W        W47497   5.536   7.320  15.980 -0.2381  0.1564 -0.0415
34084W        W47498   6.703  10.448   3.800 -0.1655 -0.0500  0.0292
34085W        W47499   1.127  11.374  11.906  0.3718 -0.1260  0.1070
34086W        W47500  10.479   3.988  11.384 -0.0384  0.0422  0.0288
34087W        W47501   5.489  10.604   5.826  0.1820  0.2331 -0.1449
34088W        W47502   4.008  11.578   5.789 -0.3114  0.1914  0.0814
34089W        W47503  17.135   3.379  13.953 -0.4023 -0.0153  0.1345
34090W        W47504   2.377   1.472  14.737 -0.0733 -0.1848 -0.0349
34091W        W47505   9.539  16.805  12.065 -0.2831 -0.0798 -0.1342
34092W        W47506   1.366  17.016   1.786  0.0046 -0.0395  0.0422
34093W        W47507  16.541   8.910  12.914  0.0347  0.3521 -0.0323
34094W        W47508   0.842   7.859   2.506 -0.2046 -0.1004 -0.1606
34095W        W47509   3.479  17.828  11.386 -0.0136 -0.1406  0.1621
34096W        W47510   8.028  13.026   2.411  0.1315 -0.2720  0.0984
34097W        W47511   8.793   8.080  16.748  0.1824  0.1619 -0.0872
34098W        W47512   8.626   6.734   1.033 -0.1243  0.0284  0.0773
34099W        W47513   4.576  16.902   3.485  0.3131 -0.1891  0.2741
34100W        W47514  17.346   5.019  14.680 -0.2471 -0.1068 -0.1310
34101W        W47515  12.583   7.122  12.636  0.0515  0.0071  0.1975
34102W        W47516  13.570  11.739  11.741 -0.2484  0.0209  0.0081
34103W        W47517   9.008  13.356   1.414 -0.0208  0.1139  0.3856
34104W        W47518  17.493  12.940  12.019  0.1656  0.3768 -0.0753
34105W        W47519  11.878   0.777  12.770 -0.2604  0.1115  0.2616
34106W        W47520   1.600   1.493   3.937  0.2622  0.1119  0.0041
34107W        W47521   1.905   4.088   6.505  0.1323 -0.0706 -0.1864
34108W        W47522  13.927  13.649  10.947 -0.1566 -0.3946 -0.1126
34109W        W47523  11.547   7.106   1.253 -0.1020  0.0080 -0.0473
34110W        W47524  16.632  15.933   3.760  0.2269 -0.2261 -0.2137
34111W        W47525  16.520   4.196   3.625  0.0234 -0.0818 -0.0425
34112W        W47526  13.765   4.063   5.224 -0.1208  0.0519  0.3030
34113W        W47527  15.611   0.349   3.886 -0.0390  0.1047  0.1084
34114W        W47528  15.189  15.758  12.802  0.1181  0.0505  0.0313
34115W        W47529   9.508   5.399  13.827  0.2715 -0.0442 -0.0848
34116W        W47530  13.141   0.847   2.428 -0.1655  0.1323  0.0195
34117W        W47531   4.105  10.628  14.617 -0.1043 -0.0570 -0.1304
34118W        W47532   6.759  15.812  12.004 -0.0940 -0.2128  0.0087
34119W        W47533   7.068  12.253  14.584  0.1797 -0.2019 -0.0103
34120W        W47534   8.971   5.483   3.596  0.2195 -0.0472 -0.0526
34121W        W47535  17.549  11.087   5.562 -0.1105 -0.1682  0.4091
34122W        W47536   0.883   2.738   1.907  0.0737  0.3376  0.0344
34123W        W47537   8.866   8.420  13.031 -0.3084  0.1124  0.2524
34124W        W47538   6.907   9.592   4.124  0.0392 -0.0121  0.3773
34125W        W47539   1.382  16.383  12.216  0.4673  0.1048  0.0864
34126W        W47540  12.860  13.414  14.802  0.1005 -0.1145 -0.0156
34127W        W47541  11.888   9.503  12.116  0.0897 -0.1628 -0.0562
34128W        W47542   7.806   8.213   5.352  0.1856 -0.0717  0.0656
34129W        W47543   2.568  15.643  13.113 -0.1044  0.0780  0.2330
34130W        W47544  15.950   0.285  15.710  0.2653 -0.0883  0.2673
34131W        W47545   7.513  17.871   3.822  0.0157  0.0305  0.0624
34132W        W47546   4.879   4.489  16.004  0.0077 -0.1963  0.0152
34133W        W47547   4.229  15.176   2.066  0.0794  0.0627 -0.3330
34134W        W47548  10.699  11.490   0.438  0.2879  0.0768  0.2435
34135W        W47549  14.705   4.284  11.256 -0.0178 -0.0241  0.0567
34136W        W47550  17.190  12.835  11.449 -0.3135  0.0879 -0.0969
34137W        W47551  16.280   8.134   6.148 -0.1816 -0.3036 -0.0201
34138W        W47552   0.707   8.235  15.150  0.1050  0.0285  0.2526
34139W        W47553   1.771   9.167   2.613  0.1993  0.0483  0.0899
34140W        W47554   4.197  16.521   2.378  0.3151 -0.1338 -0.0676
34141W        W47555   7.914   8.958   3.126 -0.0841 -0.2396  0.0657
34142W        W47556  12.326   1.287  12.972  0.1880 -0.5244  0.0740
34143W        W47557   6.902  10.389  13.129  0.0198 -0.3874  0.0713
34144W        W47558   7.392   6.944  16.024  0.4073  0.0208  0.3352
34145W        W47559   4.341   1.386   5.776  0.1883 -0.0320 -0.1641
34146W        W47560  12.714  15.264   3.908 -0.1768  0.2595 -0.1547
34147W        W47561  13.348  10.062   1.221  0.0903 -0.1397  0.3271
34148W        W47562   6.346   7.052  14.343  0.2030  0.1044  0.0062
34149W        W47563   6.138   7.472  11.919 -0.1297  0.2123 -0.1138
34150W        W47564  16.677   9.771   2.471  0.0216 -0.0493 -0.0312
34151W        W47565  11.458  10.745   1.378  0.1985 -0.0336  0.0752
34152W        W47566   3.390  14.884  12.930 -0.0089 -0.0285  0.1420
34153W        W47567  13.908   9.303   3.059  0.0163 -0.0630  0.1024
34154W        W47568   1.294  11.780  11.039  0.1881 -0.3874 -0.0784
34155W        W47569   8.306  15.451   5.833  0.1033 -0.1704  0.1574
34156W        W47570  14.835  17.912   4.912 -0.2206  0.1084  0.0020
34157W        W47571   2.713  11.583  15.919 -0.0507 -0.0492  0.3092
34158W        W47572  10.426   0.402   5.242  0.2464  0.1285 -0.3069
34159W        W47573  12.863  14.194   0.089 -0.2635  0.2385  0.1019
34160W        W47574   2.140   4.568   1.443  0.3707 -0.4224  0.0263
34161W        W47575   7.496  16.488   6.044  0.3352  0.1168  0.2097
34162W        W47576   0.262   6.881   5.840  0.0452  0.1683 -0.0101
34163W        W47577   2.112   3.638   2.187  0.1500 -0.0489 -0.1521
34164W        W47578   9.325  14.997   2.452  0.0787 -0.0473 -0.0736
34165W        W47579  12.024   9.702  15.834 -0.0381 -0.2221  0.1265
34166W        W47580   4.569   5.458  16.497 -0.0724 -0.1629 -0.3378
34167W        W47581   1.051   4.374  13.807 -0.2486 -0.0265  0.1440
34168W        W47582   0.286   9.539  16.308 -0.2018  0.0895 -0.2962
34169W        W47583  15.228   9.296   2.926 -0.2031  0.1829 -0.0283
34170W        W47584   4.900   7.818  11.289  0.0944  0.3625  0.0522
34171W        W47585  14.104   2.528   1.687 -0.0410  0.1852 -0.3236
34172W        W47586  12.952   4.917  13.905 -0.0674 -0.1141  0.0771
34173W        W47587   1.474   6.565   6.606 -0.2019  0.1351  0.1518
34174W        W47588  13.466  10.910   1.711  0.1157  0.3019 -0.0758
34175W        W47589   6.827   4.406  13.973  0.0037 -0.1423 -0.1653
34176W        W47590   7.535   0.654  13.676 -0.0169 -0.0406  0.1003
34177W        W47591  10.735   5.185  14.284 -0.1852  0.0124 -0.0118
34178W        W47592  12.552   2.260  13.513  0.2833 -0.0140 -0.1268
34179W        W47593   6.943   3.496  10.609  0.0599 -0.0106  0.0133
34180W        W47594   2.547  16.908  13.217  0.1662  0.2991  0.2678
34181W        W47595  12.528  15.510   5.901  0.0435  0.3702 -0.0397
34182W        W47596   4.470  13.175  12.035 -0.0733 -0.2895  0.0913
34183W        W47597   7.852  11.086  15.160  0.0048  0.2413  0.2503
34184W        W47598   1.771   1.078  10.319  0.0779 -0.0534 -0.1910
34185W        W47599  11.932  15.729  12.693 -0.1415 -0.0741 -0.0781
34186W        W47600   0.893   6.528   2.939 -0.0655  0.1955  0.1210
34187W        W47601   3.869   5.925   4.420 -0.1397  0.1469 -0.0172
34188W        W47602   7.605  10.255  12.576  0.0102  0.1083  0.0300
34189W        W47603   5.857  10.447   6.530  0.0068 -0.0200  0.3310
34190W        W47604   8.236  12.132  13.108 -0.1199  0.1309  0.0068
34191W        W47605   0.253  15.115  12.931 -0.0562  0.2193  0.2639
34192W        W47606  10.047  13.509   0.389  0.0808 -0.0505  0.0654
34193W        W47607   6.872   4.684   1.556  0.1315  0.1645  0.1988
34194W        W47608  10.985  14.548  15.510  0.1889  0.0018 -0.0630
34195W        W47609   0.512   8.164   1.653 -0.1418 -0.0087 -0.3739
34196W        W47610  15.567  12.644   1.388 -0.1775 -0.0093  0.0598
34197W        W47611   5.141  16.282  10.821 -0.0589 -0.2275  0.1046
34198W        W47612  11.617  17.106  15.204 -0.4555  0.0958 -0.0815
34199W        W47613  16.362  13.362  13.937  0.0630 -0.2640 -0.1741
34200W        W47614   3.155  10.825   4.712 -0.1249  0.2985 -0.0713
34201W        W47615   2.145  13.635  10.680 -0.0815  0.2954  0.1691
34202W        W47616   5.277   5.561   4.085 -0.0260  0.1820  0.0592
34203W        W47617   5.732  14.787   4.957 -0.0561  0.3241  0.0413
34204W        W47618  15.774   5.219  15.191  0.0734 -0.0438 -0.1638
34205W        W47619  12.514  16.557   1.741  0.1965 -0.0490  0.5855
34206W        W47620   4.881   3.828   0.065 -0.1262 -0.0399 -0.1110
34207W        W47621   7.205   2.367  15.870 -0.0026  0.0674  0.0286
34208W        W47622   8.851   9.176   5.921 -0.2075  0.0362 -0.0029
34209W        W47623   1.152  15.717   5.590  0.1166  0.0444  0.3060
34210W        W47624  17.870   9.513   1.923  0.0285  0.2790  0.0893
34211W        W47625  16.037   2.392  13.580 -0.0062 -0.0649  0.0172
34212W        W47626   9.589   4.296  10.919 -0.1765 -0.2430 -0.0521
34213W        W47627   3.185   7.902   6.248  0.2144  0.0146 -0.1472
34214W        W47628   9.455  10.475  11.498  0.0581  0.1339 -0.1416
34215W        W47629  14.891   2.900  11.549 -0.0719  0.2814 -0.1020
34216W        W47630   2.047   6.821   4.277  0.1719  0.0494 -0.2658
34217W        W47631   3.735   8.126   3.453 -0.2216 -0.2409  0.0623
34218W        W47632  12.190  16.063  12.958  0.1157  0.2980 -0.0335
34219W        W47633  16.598   3.245   0.617 -0.1971  0.0887 -0.1853
34220W        W47634   4.382   5.555  15.912 -0.0332  0.0412  0.0996
34221W        W47635   5.087  17.289   4.876  0.1478 -0.1600  0.1521
34222W        W47636   0.482  14.063  15.002 -0.1291 -0.0782  0.0915
34223W        W47637   4.119  10.039   6.275  0.1454 -0.0321  0.3552
34224W        W47638  11.270   3.698   1.046 -0.2291  0.1224 -0.0342
34225W        W47639   9.600   0.448   2.523 -0.0936  0.1359  0.0286
34226W        W47640   9.199   8.201  12.713  0.1268  0.2347  0.0284
34227W        W47641   8.134  13.761  15.135 -0.1268  0.3130  0.1179
34228W        W47642   6.695  12.984   0.746  0.1058  0.2302 -0.3521
34229W        W47643  14.830   9.059   1.087 -0.1528  0.1965  0.0154
34230W        W47644  12.883  15.219  11.658  0.1855  0.0315  0.0155
34231W        W47645   2.378  14.738  12.712 -0.2679  0.1482 -0.0936
34232W        W47646  13.201  13.771   6.961 -0.0480 -0.0599  0.0249
34233W        W47647  12.156   2.321  15.152 -0.1647 -0.1924  0.0848
34234W        W47648   3.557   6.740   6.797  0.0004  0.3686  0.1576
34235W        W47649  16.134  13.069  13.188 -0.1957 -0.2257 -0.1471
34236W        W47650   0.777   7.477   3.551 -0.1721  0.0934  0.1368
34237W        W47651   6.059   2.955  10.583 -0.2699  0.2757  0.2526
34238W        W47652  11.722  14.656   2.665 -0.0768 -0.0045  0.0957
34239W        W47653   5.788   9.624  15.213  0.3339 -0.0898  0.0702
34240W        W47654  14.913   1.941  11.850 -0.1808  0.0799 -0.0800
34241W        W47655  17.657  14.489  12.906 -0.1461  0.0430  0.0635
34242W        W47656  14.019  11.645   1.598  0.1632  0.1414  0.2064
34243W        W47657  11.854   9.941  12.429  0.0419 -0.2024  0.0697
34244W        W47658   9.123  12.700  13.834 -0.1661  0.0231  0.2483
34245W        W47659  14.764   4.563  11.686  0.0361 -0.0849 -0.1248
34246W        W47660  15.986   5.176  14.326  0.0079  0.0404  0.0963
34247W        W47661  10.230   1.715   2.700 -0.0554 -0.1061 -0.0736
34248W        W47662  11.975   1.456  12.604 -0.3317  0.3054  0.0087
34249W        W47663  15.981  11.546   0.860 -0.0242 -0.1462 -0.1433
34250W        W47664  13.613   8.644   0.467  0.0721 -0.0340 -0.0484
34251W        W47665  17.023  11.493   2.674  0.1981 -0.3500  0.0284
34252W        W47666   5.927   6.233  15.225  0.2177  0.0483  0.1644
34253W        W47667   7.180   9.169  16.196  0.2859  0.2033 -0.3213
34254W        W47668   1.439  13.259   2.289 -0.0620 -0.3932  0.1134
34255W        W47669   5.246   9.199  12.274  0.2855 -0.1653 -0.2060
34256W        W47670   6.839   6.152  13.134 -0.0141 -0.1008  0.0814
34257W        W47671   8.865  17.280   1.051  0.0060 -0.3155 -0.4198
34258W        W47672   8.314  10.021  12.677 -0.0508 -0.0762  0.1099
34259W        W47673  16.975  10.327   0.239 -0.2813  0.3052  0.1878
34260W        W47674  10.336  11.109   0.442 -0.1187 -0.0955 -0.1265
34261W        W47675   9.443   4.746  16.115  0.1007 -0.0401 -0.0800
34262W        W47676   7.870   5.871  11.031 -0.0545  0.0442  0.0682
34263W        W47677  17.282   3.224  14.779  0.1146 -0.2615 -0.1285
34264W        W47678   2.595  15.936   5.050 -0.2171 -0.0591  0.0762
34265W        W47679  16.253  14.328  13.779 -0.0105  0.2645 -0.0218
34266W        W47680   9.177   7.428  11.381 -0.1461  0.0348 -0.1327
34267W        W47681   9.614   3.654   9.825  0.0490  0.0339  0.0323
34268W        W47682  10.116  10.914   3.100 -0.5092 -0.1578 -0.1120
34269W        W47683   2.841   4.779  16.732  0.1347  0.1791 -0.0828
34270W        W47684  13.840  13.396  13.621 -0.1810 -0.1088  0.2418
34271W        W47685   3.817  15.296  10.062  0.0247 -0.0301  0.4170
34272W        W47686   2.542   5.676   5.966 -0.2508  0.3331 -0.0961
34273W        W47687  10.253   8.086  14.784 -0.2668 -0.1235 -0.0881
34274W        W47688  12.172   0.704   4.236  0.0074  0.1642 -0.0473
34275W        W47689  11.104  10.472   3.619  0.0622 -0.0983  0.1904
34276W        W47690   4.816   2.857   5.064  0.2340  0.2936  0.1152
34277W        W47691  16.616  12.376  16.649  0.0387 -0.0566 -0.2299
34278W        W47692   9.263   6.932   3.513  0.0672  0.0136 -0.0436
34279W        W47693  12.493   2.203  12.969  0.1196  0.0540 -0.0590
34280W        W47694  11.011   9.883  14.690  0.2248 -0.1218  0.0446
34281W        W47695  13.568  11.947   1.476 -0.1338  0.0074 -0.1449
34282W        W47696  17.398  13.556  12.706 -0.2561 -0.0659 -0.2309
34283W        W47697   7.504   5.908   3.851 -0.1339  0.2150 -0.2190
34284W        W47698   2.136   9.915  11.062  0.0856  0.2710  0.0925
34285W        W47699   2.325   7.343   0.050 -0.0198 -0.1309 -0.0662
34286W        W47700  17.998  12.704   4.085 -0.0918 -0.0507  0.0507
34287W        W47701   5.174  13.336  14.690  0.1891 -0.1750 -0.3429
34288W        W47702  12.512   7.001   0.596  0.1823  0.1887  0.3269
34289W        W47703   1.393   4.390  12.990 -0.1632 -0.2882  0.0682
34290W        W47704   4.322   0.664   1.797 -0.1793  0.3103  0.0077
34291W        W47705  10.359   0.167  12.634 -0.0874  0.1300 -0.0073
34292W        W47706   9.121  10.234  11.916  0.1545  0.0031  0.0675
34293W        W47707   5.057  12.850   5.834 -0.0592 -0.1902  0.4101
34294W        W47708   1.853   3.669  13.307  0.0956 -0.0129  0.0306
34295W        W47709   5.280  15.332   3.054  0.0433 -0.2417 -0.2234
34296W        W47710   1.487   9.759   4.731  0.1677  0.0765 -0.0701
34297W        W47711  12.929  17.951  13.706  0.0726 -0.2645  0.1708
34298W        W47712   7.348  10.537   1.363  0.1175 -0.2330  0.2992
34299W        W47713   7.748   1.671   4.271  0.0793 -0.0833  0.1134
34300W        W47714  10.869  15.186   1.858  0.1102 -0.0985 -0.2674
34301W        W47715   5.129   4.500   5.328  0.3364  0.2548 -0.1928
34302W        W47716   8.186  17.513  14.738 -0.0560 -0.2373  0.0512
34303W        W47717   2.466  13.274   4.559  0.2271 -0.0574 -0.2429
34304W        W47718   2.583   7.705  10.841 -0.0331  0.0535  0.0843
34305W        W47719  12.400   4.107  14.741 -0.0362 -0.1833 -0.2089
34306W        W47720   7.857   4.959  13.567 -0.1917 -0.6162  0.0638
34307W        W47721   5.342  13.842   5.785 -0.1260 -0.2220 -0.1040
34308W        W47722   5.305  12.358  11.505 -0.0405  0.2386  0.1293
34309W        W47723   0.870   5.843   2.437 -0.1420  0.1730  0.2018
34310W        W47724   0.997  17.022   2.645 -0.1029  0.1158  0.1167
34311W        W47725  17.485  12.020  15.353  0.0932  0.1639  0.2200
34312W        W47726   7.070  12.594  12.562 -0.0986  0.0416  0.0815
34313W        W47727   0.887   7.348   4.947  0.0942 -0.2383  0.0593
34314W        W47728  10.510  14.637   6.480  0.1094  0.1145 -0.4163
34315W        W47729   8.909   2.002  10.955  0.1482 -0.0048  0.0846
34316W        W47730   2.553  12.380  15.236  0.3206  0.1273 -0.1543
34317W        W47731   2.654   4.573   1.577 -0.2796  0.2634 -0.0984
34318W        W47732  17.975   7.395   1.784  0.1365  0.0091 -0.0762
34319W        W47733   9.697   7.355  11.529  0.0436 -0.2084  0.0438
34320W        W47734  17.749  16.527   0.964  0.0833  0.2510 -0.1421
34321W        W47735   0.642   2.749  14.613 -0.2498  0.0320 -0.0145
34322W        W47736  11.464  17.309   0.982  0.0264 -0.1642 -0.1546
34323W        W47737  17.772  17.250   0.373  0.1178  0.2007 -0.1333
34324W        W47738  10.114  15.160   5.379  0.0736  0.3943  0.0784
34325W        W47739   6.745  15.042  16.327  0.0545  0.1706  0.1317
34326W        W47740  14.240   7.128   0.350  0.2775  0.3974  0.2744
34327W        W47741   8.520   7.637  13.033 -0.1448 -0.0262  0.1016
34328W        W47742   5.500   5.546  15.202 -0.1394 -0.1819  0.0205
34329W        W47743   8.541   1.765   2.986  0.2493 -0.0372  0.1706
34330W        W47744   9.620  13.569   7.052  0.1127  0.1586 -0.0053
34331W        W47745  18.007  16.192   3.302  0.0781  0.2135 -0.1845
34332W        W47746   3.095  16.574  16.532  0.0645  0.0507  0.0449
34333W        W47747   4.153  15.999   3.356  0.0984  0.0983  0.4035
34334W        W47748  11.482  17.184  16.127  0.2691  0.0881  0.2878
34335W        W47749   5.700  16.822  13.191 -0.4467 -0.1224 -0.0900
34336W        W47750  12.296  12.739   5.207  0.3352  0.1097 -0.3224
34337W        W47751  15.042  15.434   2.940  0.0094 -0.1089 -0.1879
34338W        W47752  17.708   1.498   1.860 -0.3962 -0.1056  0.3351
34339W        W47753   4.925  14.121   1.734 -0.3307  0.0052  0.0528
34340W        W47754  17.978   7.127   4.696 -0.1129  0.1343 -0.0913
34341W        W47755   7.259   9.478  15.837  0.0348 -0.1037  0.3061
34342W        W47756   3.107   9.846   2.940 -0.1055  0.0189  0.0623
34343W        W47757   7.906  10.387  11.789 -0.0443  0.0248  0.1461
34344W        W47758  15.767   6.293  13.813 -0.0927  0.0224 -0.0723
34345W        W47759   8.380  13.870   5.578 -0.0776 -0.1919 -0.0874
34346W        W47760   2.811   9.757  15.304  0.2138 -0.1037 -0.0424
34347W        W47761   0.400   2.821  16.644 -0.0487  0.2837 -0.0101
34348W        W47762   6.085   1.890  15.917 -0.0260 -0.0505  0.0961
34349W        W47763  17.265  16.012  11.717  0.0832  0.2729  0.0211
34350W        W47764   7.601   4.330   3.112 -0.0641 -0.1293 -0.3700
34351W        W47765  13.377   3.774   5.245  0.1764  0.0906  0.0317
34352W        W47766   5.561  14.333  12.874  0.1668 -0.3056 -0.1403
34353W        W47767   0.435   8.126   6.306 -0.1832  0.0257  0.0380
34354W        W47768   1.908  17.547   2.522 -0.0385  0.0254 -0.3324
34355W        W47769   6.041   8.345  11.526  0.2278 -0.1948  0.0587
34356W        W47770   5.154   7.939  12.403 -0.0570  0.1410 -0.0325
34357W        W47771   5.213  10.006   4.383 -0.0326  0.4130 -0.1317
34358W        W47772   8.581   1.203  15.568  0.0076  0.1624 -0.1144
34359W        W47773   1.774   1.056  12.746 -0.1904  0.0296  0.1420
34360W        W47774  13.827   7.520  13.290 -0.1737  0.0479 -0.3376
34361W        W47775   5.434  15.162  11.752 -0.3491 -0.0801 -0.0862
34362W        W47776  13.162   6.946  16.695 -0.0293  0.0112 -0.3481
34363W        W47777  16.740  14.700  15.988  0.1699 -0.1885 -0.1533
34364W        W47778   8.613   1.919  16.116  0.0517  0.2266 -0.1805
34365W        W47779  10.875  15.109   2.977 -0.0988  0.1866 -0.0071
34366W        W47780   0.116   8.281  10.867  0.2688 -0.1374 -0.0675
34367W        W47781   6.526  13.674   0.531  0.1228 -0.0083 -0.1399
34368W        W47782   6.152  11.363   2.969  0.2138  0.2160  0.0597
34369W        W47783  14.856  11.935   5.738  0.2023 -0.2154  0.0830
34370W        W47784   0.123   9.532  10.470 -0.0505  0.2203  0.0478
34371W        W47785   3.121   5.470  12.207 -0.1338  0.0438  0.1840
34372W        W47786  17.824   5.293  16.695  0.1335  0.1173  0.1786
34373W        W47787   0.872   0.323  13.973 -0.1622  0.1144  0.0017
34374W        W47788   8.496   5.396   2.352  0.0181 -0.1204  0.3642
34375W        W47789   1.549  17.148  16.280  0.1476 -0.2635  0.0706
34376W        W47790   5.640  10.908   6.247  0.2728  0.3945 -0.0329
34377W        W47791   5.933  13.325   5.220  0.3405 -0.0002 -0.1620
34378W        W47792   9.037   9.142   1.335  0.1652  0.0774  0.0585
34379W        W47793  11.516   4.522   1.062 -0.1102 -0.0837  0.1460
34380W        W47794   5.303   1.049   0.599 -0.0303  0.2133  0.1155
34381W        W47795  16.226   7.753   3.549 -0.1255  0.2352 -0.0639
34382W        W47796   4.264   5.061   2.607  0.3745 -0.0571  0.1239
34383W        W47797  14.338  15.634  14.766 -0.1275  0.0570  0.0330
34384W        W47798   6.095  12.220  14.610  0.2907  0.1639  0.0606
34385W        W47799   3.484  15.122   4.023  0.0436  0.0085  0.0289
34386W        W47800   6.896   4.745   3.565 -0.0063  0.6540  0.1016
34387W        W47801  13.238  15.998  11.267 -0.4688  0.0545  0.1782
34388W        W47802  16.237  14.173   2.097 -0.1049 -0.2082  0.1465
34389W        W47803  11.989  14.638   2.018 -0.0395 -0.0501 -0.0636
34390W        W47804  13.384   1.530   3.865  0.2752  0.0638  0.0174
34391W        W47805  12.262   9.003   5.115  0.1467 -0.1230  0.0544
34392W        W47806   9.568  17.380  16.666  0.3100 -0.4071  0.0691
34393W        W47807  13.032   2.475   5.183 -0.0543 -0.0787 -0.1153
34394W        W47808   7.935  16.199   2.136 -0.0009 -0.2279  0.0137
34395W        W47809  16.975   7.696   1.539 -0.0153 -0.1356  0.2417
34396W        W47810  14.177   6.947  16.566 -0.1342  0.3353 -0.2660
34397W        W47811  11.798   4.757   0.490  0.0943  0.1318  0.0947
34398W        W47812   4.340   7.865  16.258  0.0234 -0.1447 -0.0499
34399W        W47813  17.627   3.517  15.462 -0.2737 -0.1321 -0.1152
34400W        W47814  10.259  13.354  12.779 -0.1964  0.0327  0.1722
34401W        W47815   1.833  16.755  12.862  0.2147 -0.2961  0.1881
34402W        W47816  14.941   3.853  13.187 -0.0326  0.3469  0.0850
34403W        W47817  10.811  16.203   5.827  0.1125  0.0393 -0.0646
34404W        W47818   7.405   6.716   5.233 -0.3403  0.0678 -0.3988
34405W        W47819   6.322  17.186  16.214  0.1724 -0.1539 -0.0433
34406W        W47820   6.727  16.650  13.180 -0.1215  0.1471  0.3717
34407W        W47821   4.590  17.734   4.151  0.0441 -0.0990  0.3237
34408W        W47822   4.402  14.449   3.642 -0.0691 -0.4057  0.0700
34409W        W47823   9.933  13.451   1.839 -0.0470 -0.0276  0.0843
34410W        W47824   4.322   3.749  10.680  0.0376  0.0009 -0.1941
34411W        W47825   2.348   4.538   4.466  0.1367 -0.0910  0.1507
34412W        W47826  14.198   9.337   1.072  0.1908 -0.2121  0.0567
34413W        W47827   4.447   7.732   0.570 -0.1036 -0.1641  0.0527
34414W        W47828  17.154  15.313  12.334  0.0931 -0.1155  0.0304
34415W        W47829  16.307   7.375  16.076 -0.0100 -0.0309  0.0144
34416W        W47830  16.501   9.545   4.233  0.4743  0.0297  0.0130
34417W        W47831   9.561  13.560  16.005  0.1091 -0.0391 -0.2251
34418W        W47832   5.537  12.805   0.899 -0.1960 -0.1127  0.2076
34419W        W47833  15.401  15.452   0.716  0.1773 -0.4248 -0.0121
34420W        W47834  17.334  12.599  13.918 -0.1311 -0.0845 -0.0176
34421W        W47835   3.916  13.210   2.304 -0.0941 -0.1617 -0.2153
34422W        W47836   1.860   4.477  14.302 -0.0940 -0.1389  0.0620
34423W        W47837  17.421   8.069  13.589  0.0609 -0.1329 -0.0433
34424W        W47838   2.577  12.813   4.707 -0.0774 -0.1198  0.0933
34425W        W47839   0.191  14.231  12.812 -0.0720  0.1442 -0.2212
34426W        W47840   6.477  11.336   4.377 -0.2879 -0.0641 -0.0404
34427W        W47841   8.673  16.567   4.033 -0.1263  0.1867  0.0263
34428W        W47842   6.873  11.406  15.950  0.1051  0.2659  0.0689
34429W        W47843   8.796   5.349  10.476 -0.4262 -0.3522  0.1189
34430W        W47844  17.776  12.940   0.382 -0.1279  0.3842 -0.1596
34431W        W47845   1.905   9.353  14.238  0.1444  0.3001  0.2017
34432W        W47846  15.658   0.830  10.516  0.1418 -0.3739 -0.1720
34433W        W47847  17.318  11.550   5.120  0.0119 -0.5737  0.1665
34434W        W47848  11.992   4.904   4.578  0.2672  0.1777  0.0903
34435W        W47849   6.065   0.933  12.602 -0.1554  0.1793 -0.0171
34436W        W47850  14.467  16.244  14.219 -0.0343  0.1589 -0.1574
34437W        W47851  17.852   1.656  12.295  0.1668 -0.2620  0.0564
34438W        W47852   5.389  13.956   3.853  0.2078  0.0669  0.0701
34439W        W47853  12.138   5.021  13.522 -0.2312  0.0050 -0.0474
34440W        W47854  13.088  12.898  14.296  0.1117  0.0599  0.0301
34441W        W47855   2.733   1.700  11.934  0.3160  0.4429  0.2565
34442W        W47856  10.173   6.132   1.979  0.0880  0.0655  0.2417
34443W        W47857   3.685   1.456   2.171  0.1985 -0.0040 -0.0207
34444W        W47858  14.208   7.429   4.764 -0.0589 -0.0072  0.0534
34445W        W47859   3.547   1.694  16.681  0.1105  0.1073  0.4127
34446W        W47860   7.884   2.549  13.598 -0.1065 -0.2174  0.1240
34447W        W47861   8.715  14.811   4.553  0.1680 -0.2740  0.0755
34448W        W47862  13.102  14.633   3.121  0.0635 -0.1324 -0.2662
34449W        W47863  12.864  12.792  12.907  0.1516 -0.0603  0.1203
34450W        W47864   2.504   1.342   2.928  0.1115  0.0256 -0.1756
34451W        W47865   2.896   3.124  10.641 -0.3487  0.0430 -0.0469
34452W        W47866  10.149  17.555   1.590  0.0004 -0.0876  0.1857
34453W        W47867  10.302   6.858   3.149 -0.1313 -0.1128  0.5594
34454W        W47868   6.937   8.050  14.152 -0.0994 -0.1971  0.0625
34455W        W47869  15.554   3.406  15.976 -0.0883  0.1476  0.1945
34456W        W47870   8.826   6.557   2.827 -0.0734 -0.1447 -0.2347
34457W        W47871  16.189   5.204  16.113 -0.0008  0.1817 -0.3603
34458W        W47872   9.136  14.134   5.113  0.1430 -0.1439 -0.1221
34459W        W47873   1.204  17.541  16.318  0.0053 -0.0028  0.0302
34460W        W47874   2.278   9.292   5.133  0.1411  0.1661  0.0699
34461W        W47875  13.841  13.748  11.848  0.0366  0.0544 -0.0367
34462W        W47876  13.105  12.380   6.411  0.1259 -0.2440 -0.2212
34463W        W47877  11.707  15.335   6.396  0.0475  0.0111  0.0764
34464W        W47878  17.933   8.296   4.548  0.2952 -0.1778  0.0700
34465W        W47879   4.175  14.910  10.080  0.0002 -0.3901 -0.2750
34466W        W47880  14.420  12.222   0.938  0.0228 -0.0687 -0.2054
34467W        W47881  12.061   1.536   2.777  0.0058  0.3565  0.1730
34468W        W47882   5.664   6.347   3.688  0.0405 -0.0936 -0.1692
34469W        W47883  12.897  11.551  12.512 -0.0906 -0.0729 -0.1311
34470W        W47884   9.087  16.043   0.104  0.0892  0.2919 -0.2617
34471W        W47885  17.683   1.011   3.140 -0.1521  0.1850  0.0896
34472W        W47886   6.050  10.649  12.486  0.0772  0.1268  0.1925
34473W        W47887   0.961  15.047   3.208  0.0428  0.2971  0.0376
34474W        W47888   2.513   8.571  13.858 -0.4345 -0.0024 -0.0644
34475W        W47889   1.514  14.243   3.381 -0.0321 -0.0503 -0.1692
34476W        W47890   3.484   2.856   3.240  0.1866  0.1418 -0.0602
34477W        W47891   7.199  11.540   5.117 -0.0567  0.1040  0.0659
34478W        W47892  10.386   1.273   0.098 -0.2285 -0.2189 -0.0707
34479W        W47893   2.256  17.551   2.893  0.1512  0.1040 -0.0805
34480W        W47894   8.589   1.951  12.487 -0.0776  0.1582 -0.1908
34481W        W47895  17.568  10.174   3.380  0.3298  0.1600 -0.4141
34482W        W47896  14.594  16.224  15.631 -0.1885 -0.1560  0.1878
34483W        W47897   6.790  13.602   5.151  0.3397 -0.0306 -0.1775
34484W        W47898   7.995   6.155   0.759  0.2426 -0.0976 -0.0600
34485W        W47899  10.645   3.041   2.236  0.1553 -0.2040 -0.0144
34486W        W47900   3.734   0.697   0.331 -0.1039 -0.0024 -0.0821
34487W        W47901   1.398   6.681   0.097  0.1140  0.0078  0.0143
34488W        W47902   3.065   0.180   2.778  0.0346  0.1781 -0.1364
34489W        W47903   0.457  15.227  13.947  0.2701 -0.2444 -0.0341
34490W        W47904  17.416   5.716  11.450  0.2273 -0.2648  0.2132
34491W        W47905   2.878   9.769  16.442  0.1020  0.0548 -0.2320
34492W        W47906  12.447   1.884  10.278 -0.0491  0.3683 -0.1996
34493W        W47907   9.249   0.210  13.861  0.0117  0.0699 -0.0631
34494W        W47908   6.012   6.856   5.060  0.1463  0.2014 -0.1514
34495W        W47909   9.100   1.199  12.924 -0.3102  0.2712  0.0132
34496W        W47910   1.527  10.012   2.338 -0.1963 -0.0188 -0.0644
34497W        W47911  15.191   1.413  11.547  0.0127 -0.0381  0.1180
34498W        W47912   0.720  10.919  12.790 -0.2246  0.0707  0.1158
34499W        W47913  11.644  14.275   7.075  0.0678 -0.1739  0.3092
34500W        W47914   8.821  17.057   1.491 -0.0364 -0.0832  0.3901
34501W        W47915   4.181  12.040   3.238  0.0024 -0.0181  0.0349
34502W        W47916   6.186  16.724   2.291  0.1222  0.1996  0.1165
34503W        W47917  17.459   5.106   4.434 -0.0523  0.0913 -0.1541
34504W        W47918  14.294  16.566   0.049  0.0715  0.0841  0.3282
34505W        W47919  11.295  11.501  11.474 -0.1000 -0.0418 -0.2939
34506W        W47920  11.748  12.187   6.474 -0.4383  0.1718  0.3049
34507W        W47921   2.495  17.805  11.094  0.0774 -0.0993 -0.0303
34508W        W47922  12.442   4.256   2.489 -0.1398  0.2381  0.2494
34509W        W47923   6.434   8.577   5.641 -0.1232 -0.0304  0.1387
34510W        W47924   4.576   8.238  13.065 -0.2402 -0.1411 -0.1314
34511W        W47925   5.357   5.702  13.398 -0.0465 -0.0351 -0.0055
34512W        W47926   2.189  13.150  10.832 -0.1044  0.0201  0.0936
34513W        W47927  13.493  17.551   5.263  0.1573 -0.0198  0.2252
34514W        W47928  13.281   8.313  15.821 -0.2474  0.3071  0.1339
34515W        W47929   0.038   2.708   4.151  0.1698  0.2443  0.1673
34516W        W47930   8.781   3.010  12.959 -0.1414  0.2120  0.2315
34517W        W47931  12.215   4.071  15.572  0.0638  0.0123 -0.1069
34518W        W47932  17.616  12.101   2.062 -0.0448  0.1566 -0.0171
34519W        W47933   4.037   8.940  15.278 -0.2407  0.0855  0.0326
34520W        W47934  16.606   0.217  14.521 -0.0122  0.2837 -0.0277
34521W        W47935  12.944   7.690  11.513  0.0404 -0.1824 -0.2511
34522W        W47936   3.155   6.191   0.556  0.0685  0.2365  0.1409
34523W        W47937   3.255  10.200   0.460 -0.2701 -0.0926 -0.0111
34524W        W47938   0.307  10.806   5.736 -0.0505 -0.2295 -0.1882
34525W        W47939   5.629   7.835  15.924  0.0766  0.0035 -0.3201
34526W        W47940   8.435   5.493   2.870  0.0301 -0.0850  0.2749
34527W        W47941  14.118   6.900   2.668 -0.2481  0.0132  0.2259
34528W        W47942   9.306   5.342   2.680  0.0596 -0.1476 -0.0772
34529W        W47943   1.456   2.601  13.354 -0.1059  0.0782  0.0527
34530W        W47944  16.228  12.185   3.062  0.0630 -0.0986 -0.0438
34531W        W47945  13.345   6.312  14.025  0.0333  0.0188  0.3665
34532W        W47946   1.306  15.732  12.204  0.1370  0.0585  0.0992
34533W        W47947   6.363  10.820   0.633 -0.2006  0.0803 -0.0714
34534W        W47948   6.072  17.694   0.342 -0.0735  0.2007  0.1647
34535W        W47949   4.867  15.140  14.612 -0.1986  0.3263 -0.0070
34536W        W47950   1.939  12.725   1.791  0.0017 -0.2855  0.0397
34537W        W47951   3.362   9.021   6.042 -0.0587 -0.1472 -0.1165
34538W        W47952   1.872  13.852   4.320  0.0959 -0.2417  0.1493
34539W        W47953  16.522  11.866  12.686  0.2475  0.0532  0.1024
34540W        W47954  12.268  13.083  13.127 -0.1497  0.0600  0.0661
34541W        W47955  14.278   6.920   5.607  0.1283 -0.0229  0.0818
34542W        W47956   2.953  10.616  16.075  0.1863 -0.0706  0.0117
34543W        W47957   6.683  15.208  15.421  0.1935 -0.1456 -0.0740
34544W        W47958   4.216   7.990  11.758  0.0256  0.2007 -0.1586
34545W        W47959   8.405   3.026   6.135  0.1373  0.1165 -0.1406
34546W        W47960  16.387  10.371   3.968 -0.0923  0.0466 -0.2058
34547W        W47961   7.206   8.230  11.111 -0.0564 -0.0427  0.0348
34548W        W47962   8.811   8.480  15.221 -0.0292  0.2909 -0.1184
34549W        W47963   0.239   8.132  11.792 -0.0328 -0.0922  0.4236
34550W        W47964  16.628   9.040   5.732  0.0500  0.0081  0.1789
34551W        W47965   5.266   7.833   4.757  0.0746  0.1582  0.0986
34552W        W47966   9.521  10.453  15.548  0.0131 -0.2486 -0.1530
34553W        W47967  13.782  16.476   1.894 -0.1335  0.0493  0.1640
34554W        W47968  12.062  12.201   6.043  0.0219  0.1078 -0.1716
34555W        W47969  17.876  16.914   3.849  0.0676  0.2143  0.0225
34556W        W47970   1.740  15.558  13.655  0.1808  0.0849 -0.3793
34557W        W47971   5.074   8.686  11.657  0.0622 -0.0310 -0.2437
34558W        W47972  17.052   5.818   3.860 -0.0301 -0.3213 -0.3022
34559W        W47973   5.457  15.829  16.417  0.0164 -0.0074 -0.0511
34560W        W47974   9.097  10.991  15.911 -0.1506 -0.0680 -0.0470
34561W        W47975   8.421  16.185   5.788 -0.3416  0.0512 -0.0628
34562W        W47976   4.977   0.432   1.612 -0.0791  0.1033 -0.0867
34563W        W47977  10.097  15.890  16.644  0.0136  0.0882 -0.2954
34564W        W47978  11.617   7.071   3.257  0.3231 -0.1778  0.0016
34565W        W47979  11.405   2.553  12.779 -0.0203 -0.1201 -0.2123
34566W        W47980   9.457  16.403   4.836  0.0218  0.0284 -0.1135
34567W        W47981   5.234   2.130   0.973  0.0502 -0.0901  0.1311
34568W        W47982   3.188   9.969  15.647  0.0287  0.1893 -0.1494
34569W        W47983  12.759   5.014   3.183  0.2486 -0.0953 -0.0415
34570W        W47984   8.835   7.596   3.675  0.5493 -0.0960 -0.0790
34571W        W47985  13.835   9.192  14.662  0.2579 -0.4812 -0.2729
34572W        W47986  15.614   9.521   0.673 -0.2842 -0.1416 -0.1724
34573W        W47987   7.755   9.645  15.605  0.4430 -0.0095  0.0977
34574W        W47988  17.851  10.139   6.236  0.0868  0.0360 -0.2369
34575W        W47989   5.111  15.557   3.847 -0.0967  0.1251  0.1513
34576W        W47990   6.227  16.353  14.764 -0.0693  0.0002 -0.1232
34577W        W47991   5.769   9.680   5.835 -0.0214 -0.2235 -0.1457
34578W        W47992   1.729   1.902   3.582  0.0918  0.1730  0.1704
34579W        W47993   8.878   3.570   4.860  0.1913 -0.0898 -0.0679
34580W        W47994   9.067  12.720   3.826 -0.1237  0.1978  0.2446
34581W        W47995   0.962  12.683  13.796  0.1272  0.3339  0.1490
34582W        W47996  11.049   1.830   0.217 -0.0493 -0.0317  0.2930
34583W        W47997  14.649  17.270   6.567 -0.0288  0.1369 -0.3258
34584W        W47998   5.337  14.589   3.548  0.2091 -0.1398 -0.0882
34585W        W47999   9.611   1.973   4.094  0.2984 -0.0648 -0.1845
34586W        W48000   0.716  10.581  13.605 -0.2980 -0.1397 -0.1462
34587W        W48001   2.723   8.401  16.079  0.1150 -0.1244  0.0210
34588W        W48002   5.726   1.979   4.117  0.1877  0.0792  0.3952
34589W        W48003   0.849  13.715  15.855  0.0718  0.0212 -0.0776
34590W        W48004  11.074   1.887  10.878  0.2389 -0.1257 -0.0883
34591W        W48005  10.812  14.978  14.523 -0.1054  0.0927 -0.1490
34592W        W48006   0.081   6.456  16.669  0.1649  0.2488 -0.5665
34593W        W48007   8.447   0.178  11.956 -0.1235 -0.1954 -0.3027
34594W        W48008   0.469  10.489   0.545  0.0196  0.2008 -0.0551
34595W        W48009   1.116   7.789  13.032  0.2557 -0.2550  0.2272
34596W        W48010  11.153  12.654   4.293  0.4590 -0.0760 -0.0596
34597W        W48011   7.128   7.146  12.738 -0.2993  0.0256 -0.0638
34598W        W48012   2.466  12.989  15.563 -0.1573  0.2699  0.2870
34599W        W48013   9.684  13.119  12.704 -0.2645 -0.1168 -0.1239
34600W        W48014   0.462   1.170  10.434 -0.0427  0.1128  0.0500
34601W        W48015  16.573  12.973   2.293  0.0106 -0.1725 -0.2830
34602W        W48016  10.477   0.179   6.407 -0.1403 -0.2414  0.3543
34603W        W48017  17.463   6.063   1.961  0.2653 -0.5876  0.0116
34604W        W48018  13.455  11.670  13.184 -0.1467  0.0416  0.1952
34605W        W48019   5.743   0.220  16.484  0.1753  0.0578  0.2373
34606W        W48020   1.842   9.834  13.910  0.0983  0.1533 -0.2621
34607W        W48021   8.305   0.567   5.234 -0.2791  0.3082  0.1420
34608W        W48022   3.412  16.711  12.693  0.0019  0.0645  0.1764
34609W        W48023   3.973  16.870  13.357 -0.1393  0.2252  0.2243
34610W        W48024  11.973   8.278  13.689  0.1037 -0.2518  0.1983
34611W        W48025  10.050  10.908   1.216 -0.4264  0.1029 -0.2950
34612W        W48026  12.327  15.840   2.967 -0.1395  0.2922  0.0490
34613W        W48027  15.507  12.975   5.042 -0.0616 -0.1078 -0.0529
34614W        W48028   7.239   5.442   4.176  0.0210 -0.0192  0.3263
34615W        W48029   7.889  12.552  10.980  0.0224  0.1760  0.1610
34616W        W48030   8.200   3.153  15.605  0.1077  0.1210  0.3145
34617W        W48031   5.235   0.980  13.956  0.0316 -0.0797  0.0878
34618W        W48032   9.203   4.298   5.243 -0.2430 -0.2445 -0.0894
34619W        W48033  14.418   1.340  15.384  0.0975 -0.3420 -0.3148
34620W        W48034   0.297   5.501   2.220  0.0104  0.1023 -0.1729
34621W        W48035  14.059   4.822  12.662 -0.1114 -0.0058  0.1071
34622W        W48036   9.105   2.152   2.175  0.0230  0.1632  0.0453
34623W        W48037  10.745   1.935   9.949  0.1118  0.1229 -0.1033
34624W        W48038  15.594   4.213   1.143  0.1748 -0.2356 -0.3407
34625W        W48039  14.612   2.468   0.900  0.0915 -0.0321 -0.0242
34626W        W48040  11.927   2.812   2.358  0.0774 -0.0912  0.1026
34627W        W48041   8.307   9.621   4.503  0.1701  0.1062  0.0106
34628W        W48042  12.857   4.509   1.431  0.4806 -0.0854  0.1789
34629W        W48043   3.053  16.247   3.265  0.0508 -0.1281 -0.0168
34630W        W48044   8.608  11.920  11.290  0.1919  0.0273  0.0723
34631W        W48045  15.360  14.704  14.019  0.1467  0.1040 -0.0833
34632W        W48046  15.367  16.293   5.191 -0.1324 -0.0436  0.1012
34633W        W48047  13.622  10.575  14.646  0.0012 -0.4332 -0.2056
34634W        W48048  12.141   4.482  14.250 -0.0889 -0.1363  0.0954
34635W        W48049   2.269   5.617  13.875  0.0058 -0.0222  0.0968
34636W        W48050   0.589  16.011  14.617  0.1705  0.0980 -0.1347
34637W        W48051   4.416  12.062  13.886 -0.1153 -0.0791 -0.1805
34638W        W48052   1.311  12.148  11.441  0.1790  0.0354  0.2244
34639W        W48053  13.157  10.678   3.285 -0.4288  0.1558 -0.0229
34640W        W48054  13.553  15.570  13.777  0.3413  0.1329  0.0692
34641W        W48055   3.555   2.694   1.875  0.1242 -0.0925  0.1176
34642W        W48056  11.619   8.744  10.994  0.0440 -0.0077 -0.4043
34643W        W48057   0.119  15.943   4.364  0.0354 -0.0775 -0.1664
34644W        W48058  12.357   9.313   4.219  0.1283 -0.1017  0.2057
34645W        W48059  16.759  16.819   0.522 -0.1285 -0.1975  0.1007
34646W        W48060   7.483   6.634   1.303  0.1006 -0.1542 -0.1555
34647W        W48061   8.602  11.236  13.191 -0.2043  0.1538  0.2269
34648W        W48062   2.520   5.605  15.549 -0.1665  0.1153 -0.0150
34649W        W48063  16.639   1.813   4.705  0.2521  0.0693  0.0754
34650W        W48064  15.544  15.849   1.445  0.0735 -0.1059 -0.2541
34651W        W48065  14.553  13.391  12.756 -0.1528 -0.2210 -0.2103
34652W        W48066   2.787   5.934   5.615  0.0641  0.0686  0.1730
34653W        W48067  11.150  10.936   3.719  0.4098  0.0411 -0.0198
34654W        W48068   8.428   0.860  15.968  0.1525  0.0773 -0.1118
34655W        W48069   8.777   3.310   0.948 -0.0125 -0.0478  0.0192
34656W        W48070  12.973   2.756   4.497 -0.1210  0.1682 -0.1052
34657W        W48071   3.558   0.997  12.865 -0.0388  0.1956  0.2088
34658W        W48072  15.825  17.037   5.544 -0.0994  0.0201 -0.2280
34659W        W48073  10.995  12.729  16.637 -0.2715  0.1916 -0.2279
34660W        W48074   8.823  15.912  14.247 -0.1628 -0.0224  0.0071
34661W        W48075   1.232  11.030  10.641 -0.1614 -0.2244  0.0493
34662W        W48076  14.833  11.054  13.976 -0.2766 -0.0115  0.1563
34663W        W48077   3.073   1.537  15.306  0.0976  0.0234  0.2832
34664W        W48078  15.923  12.585  14.880  0.1278 -0.1279  0.3195
34665W        W48079   3.715  10.541  12.608  0.1695 -0.1603  0.0097
34666W        W48080   2.985  10.986  14.125  0.0976 -0.0264  0.4357
34667W        W48081  13.541  15.342  10.634  0.1196  0.1078  0.2314
34668W        W48082   2.490   7.020  12.559 -0.0166  0.0590  0.0101
34669W        W48083   6.390   4.272   2.912 -0.0795 -0.0507 -0.1434
34670W        W48084  16.077   2.353   3.324  0.0769 -0.1330 -0.0602
34671W        W48085   4.978  10.547   1.786 -0.2307 -0.0302  0.3276
34672W        W48086  11.641   2.430  10.939  0.1652 -0.1591  0.2269
34673W        W48087   3.429  12.501   4.909  0.1348 -0.1340  0.1943
34674W        W48088  12.504  16.122   3.417  0.0772  0.2503  0.3297
34675W        W48089   7.180   9.736   0.995  0.1837 -0.2232 -0.1133
34676W        W48090  10.843  12.851  13.418 -0.1543 -0.0386 -0.1114
34677W        W48091  15.018  12.579   1.483 -0.1015 -0.0700 -0.3205
34678W        W48092   3.964  10.933   1.191 -0.1354 -0.1085  0.0131
34679W        W48093  10.004   3.987  16.131  0.4812  0.2418 -0.2251
34680W        W48094   7.155  10.085   1.651 -0.0022 -0.2602  0.0699
34681W        W48095   8.806   5.956  11.293  0.0027  0.1389 -0.2055
34682W        W48096   7.537   1.663   3.650 -0.1944 -0.1024 -0.0016
34683W        W48097   7.048  10.490   3.329 -0.2851  0.2811  0.0510
34684W        W48098  13.822   8.710   5.259 -0.1264 -0.0278  0.0686
34685W        W48099   7.249   5.100  14.293 -0.3243 -0.1584  0.1969
34686W        W48100   3.304  10.982   5.521 -0.0897 -0.2878 -0.0865
34687W        W48101   0.777   0.213  12.970  0.0656 -0.1232  0.1782
34688W        W48102   3.986   4.050   4.072  0.1124  0.0878  0.0116
34689W        W48103   5.546   8.287  14.606  0.4384 -0.2092  0.1300
34690W        W48104  11.579  14.925   4.360  0.1665  0.0600 -0.0790
34691W        W48105  12.589  15.226   1.754 -0.0792 -0.1564  0.1588
34692W        W48106  16.184  12.057   0.539 -0.1589 -0.0591  0.0403
34693W        W48107  12.872  16.600  14.516 -0.0536 -0.2004  0.0186
34694W        W48108   6.645   6.568   4.696  0.0274  0.0625 -0.2711
34695W        W48109   8.103   9.026   1.488 -0.1536 -0.2353 -0.1323
34696W        W48110  12.140   2.544  13.333 -0.2685  0.0804  0.2739
34697W        W48111   5.502  14.110   5.412 -0.1684  0.7501 -0.0074
34698W        W48112  13.169   6.955  14.370 -0.1547 -0.1832 -0.0530
34699W        W48113   2.618  15.449   1.100  0.1002  0.1006  0.3252
34700W        W48114   1.195  14.536   1.828  0.1064  0.0175  0.0466
34701W        W48115  12.594  10.136  11.869  0.0876 -0.0273 -0.1520
34702W        W48116   0.706  11.174  13.744  0.1782  0.2313 -0.0675
34703W        W48117  10.173   9.995   2.946 -0.0987  0.0473 -0.0712
34704W        W48118   7.721  10.777  12.345  0.1084 -0.0137  0.0321
34705W        W48119  12.936  16.593  12.982 -0.1833 -0.0015 -0.0514
34706W        W48120   7.193   9.599   5.841 -0.0133  0.0730  0.0104
34707W        W48121  16.835  11.952  15.838 -0.1920  0.1958 -0.0132
34708W        W48122   8.161   8.069   2.640  0.0018  0.2303  0.0855
34709W        W48123  12.652   8.531  12.499  0.0548  0.2482 -0.3256
34710W        W48124  14.457   5.689  14.922 -0.0609 -0.1364  0.0440
34711W        W48125  10.406   3.483  11.455 -0.2570 -0.2432  0.2131
34712W        W48126  11.206  16.251  13.699  0.0009 -0.1012  0.0055
34713W        W48127  13.169  11.378  11.872 -0.1797 -0.1785  0.2048
34714W        W48128  12.931  14.473   1.492 -0.0216  0.0432  0.0497
34715W        W48129  14.906   7.659  11.765 -0.3623  0.0658  0.2775
34716W        W48130   3.535  16.502   0.484 -0.3813  0.0365  0.2576
34717W        W48131  11.738  17.591  15.855  0.3373  0.0305  0.0232
34718W        W48132  10.858  17.479  12.963  0.0220 -0.0244  0.0356
34719W        W48133   2.359   1.361   0.327 -0.1908  0.0517  0.0576
34720W        W48134   0.590  10.177   4.872  0.1523 -0.0896  0.1757
34721W        W48135  15.128  14.049   5.442  0.0720  0.1595  0.1852
34722W        W48136   7.719  14.665  12.647  0.1593  0.1189  0.1761
34723W        W48137   3.475   7.834  15.863 -0.1237 -0.2080 -0.2750
34724W        W48138  10.163   0.641  11.188 -0.1191 -0.0395  0.1192
34725W        W48139  15.132   5.577  11.547  0.0004 -0.3043 -0.3047
34726W        W48140   1.473   8.136   5.013 -0.1105  0.0173  0.3472
34727W        W48141  10.146  17.583   4.580  0.0786  0.0390  0.2138
34728W        W48142   5.640   1.183   5.211  0.2930 -0.0788 -0.0595
34729W        W48143  12.741   1.535   4.019 -0.1425  0.1795 -0.2039
34730W        W48144   0.515   3.727   0.931  0.1242  0.1157 -0.1369
34731W        W48145  10.981   7.682  13.811  0.2739 -0.2182 -0.3729
34732W        W48146  11.368  10.515   3.014 -0.1241 -0.2242  0.1394
34733W        W48147   6.063  10.974   2.694 -0.0376  0.0553  0.0190
34734W        W48148  14.791  14.984   4.985 -0.0313 -0.2075  0.1507
34735W        W48149   1.308   4.826  13.975 -0.1317  0.2541  0.1148
34736W        W48150   9.409  11.244   6.586  0.2153 -0.0356  0.4182
34737W        W48151   2.896  12.766  15.401  0.0337  0.2950  0.0399
34738W        W48152  17.398   8.851   5.081 -0.0461  0.2277  0.0205
34739W        W48153  10.154  14.770   2.909  0.0856 -0.0503  0.0008
34740W        W48154   4.539   3.361   3.856  0.1440  0.1098  0.0934
34741W        W48155  12.895  15.765  11.732  0.1225  0.4274 -0.3606
34742W        W48156   2.375  14.843   0.397  0.1533 -0.0180 -0.0767
34743W        W48157  15.011   1.670   2.493 -0.0935  0.0066  0.0164
34744W        W48158   2.952   8.939   2.310 -0.0862 -0.1688 -0.1053
34745W        W48159  17.968  12.616  15.166 -0.2484  0.3977  0.2889
34746W        W48160  10.140  16.486  16.660 -0.0503  0.3139 -0.0977
34747W        W48161  11.277   0.239  14.033 -0.1293 -0.1895 -0.0976
34748W        W48162  12.698  13.368  12.099  0.0982 -0.1544 -0.0205
34749W        W48163   0.321   7.104   0.543 -0.0481  0.0475  0.4517
34750W        W48164  10.720  15.938  16.723  0.0534 -0.2056  0.1332
34751W        W48165  15.566   8.518  14.371 -0.0518  0.1825 -0.3768
34752W        W48166   9.091   5.143  16.011 -0.2502 -0.3535 -0.0858
34753W        W48167   9.360  16.383  16.560  0.1015 -0.2300  0.0759
34754W        W48168   8.035  16.348  12.214 -0.0149 -0.2870 -0.0124
34755W        W48169   7.020  17.076  13.392  0.1704  0.2508 -0.1169
34756W        W48170   2.554  11.527  11.764  0.0821 -0.0133 -0.2884
34757W        W48171  14.968  13.726  12.556  0.1185 -0.0587 -0.1393
34758W        W48172   3.782   3.692   4.454 -0.3171 -0.1756  0.1567
34759W        W48173   6.034  16.583   0.935 -0.0817 -0.2932  0.3873
34760W        W48174  16.800   1.432  16.257 -0.1053  0.0259 -0.1921
34761W        W48175  12.063   8.027  11.403 -0.0929 -0.0075  0.3094
34762W        W48176  15.678   3.278  13.706 -0.0768  0.1787  0.0663
34763W        W48177   0.518   0.508   1.197  0.0652  0.2468  0.0052
34764W        W48178   2.367   3.418   4.630  0.1281  0.0289 -0.1858
34765W        W48179   3.914   8.959  13.811 -0.2048  0.1793  0.2116
34766W        W48180  14.011   0.843   2.583  0.0509 -0.0759 -0.2899
34767W        W48181  15.790  11.979   3.790  0.0019  0.1444 -0.1937
34768W        W48182  16.293   4.948  11.163  0.1256 -0.1466  0.2667
34769W        W48183   3.784   3.688   1.725  0.0673  0.2947  0.0385
34770W        W48184   6.766  10.283  15.124  0.1829  0.1247  0.3085
34771W        W48185  14.577   0.205  15.218  0.3114 -0.1582 -0.1814
34772W        W48186  15.559   3.680  13.339 -0.1901  0.0180 -0.0253
34773W        W48187  15.253   2.310   5.336 -0.0073 -0.1443  0.2975
34774W        W48188   9.841   1.504  14.469 -0.2024  0.1200 -0.4907
34775W        W48189  13.286   3.904   2.056  0.0110  0.1405  0.1839
34776W        W48190   4.576   2.190  12.163  0.0965 -0.0547  0.1281
34777W        W48191   3.386   9.904   1.959  0.2353  0.1912 -0.0127
34778W        W48192   0.354  14.983  11.419 -0.0001  0.0108  0.1566
34779W        W48193  11.602  16.127  14.677  0.0820  0.1000 -0.0201
34780W        W48194   9.321   8.223  14.941  0.1774  0.5981  0.3662
34781W        W48195   8.942  13.830   4.269 -0.1159 -0.2690 -0.2283
34782W        W48196   0.556   3.271  15.413  0.2557 -0.2235  0.0811
34783W        W48197   9.950   3.231  15.406 -0.2646 -0.0426 -0.0142
34784W        W48198   1.225   6.606   1.892  0.0826  0.2820 -0.0008
34785W        W48199   8.907   9.770  10.924  0.0692 -0.1118  0.3424
34786W        W48200   5.960  16.331  11.917 -0.3859 -0.0996 -0.0339
34787W        W48201   6.099   0.860   2.300  0.1992  0.1731  0.0522
34788W        W48202  11.678   4.519   6.345 -0.0825 -0.1200  0.1251
34789W        W48203   8.271   4.739  12.206 -0.1311  0.0274 -0.0064
34790W        W48204  10.173  11.347  12.584  0.1738  0.3753  0.0869
34791W        W48205  13.654  16.915   3.355 -0.0844  0.1984  0.1684
34792W        W48206   2.394  16.160   0.717  0.0390  0.2728  0.0164
34793W        W48207   4.309   2.704   0.567  0.1376  0.1839  0.1716
34794W        W48208   5.726  16.149   5.022  0.0320 -0.1570  0.1199
34795W        W48209  12.085  10.278   1.252 -0.0040  0.0886  0.0744
34796W        W48210   9.570  17.871   6.755  0.1841 -0.2788  0.2462
34797W        W48211  10.427   6.712  11.076  0.2592 -0.1570 -0.0071
34798W        W48212  16.665   3.559   5.284  0.1729  0.0561 -0.0532
34799W        W48213   6.816   8.805  10.504  0.1523  0.0495  0.1797
34800W        W48214   3.174   3.551  15.267 -0.0524 -0.0675  0.2328
34801W        W48215  17.715  11.948  14.004 -0.0233 -0.0881  0.3226
34802W        W48216   0.885  15.719  12.535  0.0723  0.2142  0.1218
34803W        W48217   2.116   9.118  16.313 -0.0725 -0.0824  0.0556
34804W        W48218   8.219   0.442   2.174  0.0094  0.1174  0.0129
34805W        W48219   7.506   6.328   4.884  0.1273 -0.2630  0.3687
34806W        W48220   2.667   9.340  11.366 -0.0394  0.1317  0.0397
34807W        W48221   3.535  12.081   2.368  0.0426  0.0347  0.2319
34808W        W48222   1.588  10.247   0.721 -0.0419 -0.0974  0.0206
34809W        W48223   0.987  12.991   3.538 -0.1208  0.0454  0.0614
34810W        W48224  10.205   4.239  11.781 -0.0359  0.0106  0.1588
34811W        W48225  13.690  11.506  14.101  0.1014  0.0206 -0.0692
34812W        W48226   3.098   4.022   0.518  0.0372 -0.1578 -0.2246
34813W        W48227  10.481   0.874   3.106 -0.1873 -0.2915  0.1067
34814W        W48228   5.976   1.116  14.760 -0.0297 -0.2541  0.3224
34815W        W48229  10.929  13.846  10.901 -0.0711  0.2956  0.0529
34816W        W48230   9.159  10.798  15.136 -0.1496 -0.1530 -0.0670
34817W        W48231  17.338  10.627   4.965  0.1109  0.0408 -0.0776
34818W        W48232   9.766   2.876   3.174  0.1339 -0.3528  0.1623
34819W        W48233   4.868  14.937  13.261 -0.4474  0.2316 -0.0347
34820W        W48234   9.605   5.607  11.291 -0.1068  0.2940  0.1785
34821W        W48235   4.866  16.000  15.727 -0.2855  0.0671 -0.0199
34822W        W48236   3.175   2.013  11.312 -0.1997 -0.1470  0.3445
34823W        W48237   0.280  14.092  12.347  0.2196 -0.0302 -0.1884
34824W        W48238   8.560  13.801   6.139  0.3379  0.1141 -0.1398
34825W        W48239  15.123   2.765   6.147 -0.0085  0.0161 -0.0615
34826W        W48240  17.559   4.370   4.966  0.3590  0.1141  0.3700
34827W        W48241   2.800  17.457  14.130 -0.1044 -0.0863 -0.2399
34828W        W48242  13.784   6.597   1.703 -0.2885 -0.0739  0.0771
34829W        W48243  13.068   9.602  16.177  0.2096  0.2033  0.0907
34830W        W48244   8.042  15.012  12.485  0.0531  0.2046 -0.0716
34831W        W48245  16.665  11.721  12.096  0.0192  0.0702  0.3379
34832W        W48246   5.877   3.830  16.366  0.3917 -0.2432  0.1360
34833W        W48247   9.892  13.695  12.745  0.2108  0.0918 -0.1626
34834W        W48248  14.502   5.259   4.206  0.1133 -0.0424 -0.1015
34835W        W48249  14.326   4.350   0.187  0.1083 -0.0527 -0.1767
34836W        W48250   2.342   1.198  10.379 -0.0588  0.0383  0.1606
34837W        W48251   1.435   1.498   5.105  0.1680 -0.0802  0.0681
34838W        W48252  11.167   5.663  15.414  0.0491 -0.1372 -0.1949
34839W        W48253   9.875   8.436  16.441  0.1417  0.0517  0.1510
34840W        W48254   3.743   4.778  13.558 -0.1055  0.0625  0.0629
34841W        W48255  15.442   5.575  15.625  0.2879  0.3317 -0.0757
34842W        W48256  13.553  12.689  15.785  0.0289 -0.1237 -0.1818
34843W        W48257   0.072  15.783  14.472  0.3140 -0.1309 -0.1492
34844W        W48258   0.098  15.043  14.487 -0.1795  0.6018  0.0572
34845W        W48259   5.181  17.868   2.488  0.2631 -0.1583 -0.0309
34846W        W48260   9.227  17.962   6.006  0.1453  0.0161 -0.2256
34847W        W48261   6.592  11.458  13.479  0.1076 -0.2243 -0.0013
34848W        W48262   3.487   3.967  12.704  0.3598  0.0154 -0.0118
34849W        W48263  15.556   2.509  15.079  0.0981 -0.0844 -0.1640
34850W        W48264  10.662  10.598   4.304  0.0467 -0.1751  0.0543
34851W        W48265  10.215   1.099   1.061  0.2938 -0.1071  0.4068
34852W        W48266   9.864   3.531  16.213  0.1651 -0.1391  0.0545
34853W        W48267   6.766   3.340  10.108  0.3596 -0.2216 -0.1380
34854W        W48268  13.091   0.647  15.758  0.2906 -0.0842  0.1206
34855W        W48269  12.367   1.878   5.926  0.2916  0.0997  0.1591
34856W        W48270  14.060   0.609  14.291 -0.1594 -0.2027 -0.1543
34857W        W48271   6.204  12.694   0.552  0.1510  0.2339  0.1280
34858W        W48272  13.552   0.889   3.686  0.0374  0.0099 -0.0027
34859W        W48273   7.205   8.722  11.880 -0.3880 -0.1526 -0.0080
34860W        W48274  14.374  17.900  13.624  0.0830  0.1030 -0.3897
34861W        W48275  14.922  15.378   0.495  0.1667  0.1105 -0.0317
34862W        W48276  10.513   1.218  12.423  0.2791 -0.2230  0.1294
34863W        W48277  15.020   2.151   4.163 -0.2483  0.0180  0.2386
34864W        W48278  10.540  14.526  11.727  0.0109 -0.1837  0.3707
34865W        W48279  15.077  15.076  14.863  0.1161  0.0327 -0.1019
34866W        W48280   5.170   4.887  11.654  0.2327 -0.0856  0.1693
34867W        W48281  12.136   5.058   1.811  0.2339 -0.1741 -0.2764
34868W        W48282   7.788  11.166   5.759  0.0171  0.1720 -0.1200
34869W        W48283  16.920  15.657  12.625 -0.1593 -0.1293  0.1998
34870W        W48284   7.627   3.121  16.474  0.0267  0.0378 -0.0922
34871W        W48285   1.510   0.748  12.356 -0.1194 -0.1848 -0.3105
34872W        W48286   5.808  15.544   0.976  0.0074  0.2445 -0.0716
34873W        W48287  17.588   8.896  14.160  0.0573  0.0117 -0.3026
34874W        W48288  10.628   9.313   1.781  0.0047 -0.0620  0.0143
34875W        W48289  12.619  13.620   5.960  0.0308 -0.3706  0.1219
34876W        W48290  15.505   5.501   1.856  0.1783 -0.0275 -0.0034
34877W        W48291  11.422  16.370   0.545  0.0811  0.0120 -0.1080
34878W        W48292   2.341  15.389   9.973  0.0651 -0.0085 -0.0970
34879W        W48293  16.778   4.177  13.747  0.1960 -0.2176 -0.0258
34880W        W48294   3.904  13.263  12.309 -0.2389 -0.0922 -0.0955
34881W        W48295  15.755   1.310   4.347 -0.0165  0.2424  0.2984
34882W        W48296   4.056   2.609  16.268  0.3905  0.2185 -0.0772
34883W        W48297   3.007  13.214  15.736  0.0413 -0.1107 -0.0108
34884W        W48298   9.013   6.440  11.460  0.0226 -0.3075  0.3330
34885W        W48299  11.878   4.139   5.964 -0.1124 -0.3408  0.0910
34886W        W48300  15.997   0.840  16.649 -0.0296  0.4155  0.0650
34887W        W48301   2.723   6.493   0.265  0.3209  0.1022 -0.2260
34888W        W48302   8.323   0.488  14.986 -0.1424  0.0159 -0.1347
34889W        W48303  15.533  16.722   1.737 -0.0522  0.2315  0.0929
34890W        W48304   9.098  14.935  14.268 -0.2491  0.0462  0.1492
34891W        W48305   6.140   1.710   3.164 -0.4464  0.0698 -0.0740
34892W        W48306   1.230   2.942  14.960 -0.2436  0.4461 -0.0622
34893W        W48307   6.862   4.851   5.149  0.0253 -0.3762  0.1320
34894W        W48308   8.195   1.199   2.264 -0.2091 -0.1164 -0.0614
34895W        W48309  10.683  13.519  13.070 -0.1458  0.0201  0.2634
34896W        W48310   3.025  16.182  10.777 -0.0987 -0.4060 -0.1076
34897W        W48311   0.369   9.397   2.007  0.0175 -0.0932 -0.2905
34898W        W48312  17.663  16.567   1.949 -0.0936  0.2436  0.0979
34899W        W48313   2.396  17.433   0.868 -0.0655  0.1013  0.1469
34900W        W48314   7.725   1.906   4.787 -0.1496 -0.0695  0.0746
34901W        W48315   6.470  12.673   5.541  0.1867  0.1597  0.1194
34902W        W48316   8.713   9.629  15.589 -0.0984  0.2561 -0.0103
34903W        W48317  14.376   2.425   2.916 -0.0406  0.0772  0.1760
34904W        W48318  10.743   8.894   2.067  0.5534  0.4320  0.0466
34905W        W48319   0.561   9.033  11.865  0.0754  0.1678  0.1707
34906W        W48320  13.191   5.925  12.989  0.1856  0.0395 -0.0538
34907W        W48321   4.405  11.788   3.683 -0.0349 -0.1131 -0.1958
34908W        W48322   9.840   0.708   3.351  0.0532  0.0283 -0.0371
34909W        W48323  17.237  12.651  15.569  0.0886  0.1515 -0.1676
34910W        W48324   0.134  12.151   4.248 -0.0004 -0.0590 -0.2257
34911W        W48325   5.794  12.133   4.121  0.0620 -0.4328 -0.1439
34912W        W48326   5.012  12.841   2.571  0.0552 -0.1249  0.3675
34913W        W48327  12.934   8.811  16.705 -0.0906 -0.2356 -0.0862
34914W        W48328  11.904  15.757  11.318  0.0725  0.0769  0.0054
34915W        W48329  12.600  11.255  11.220  0.1804 -0.1877 -0.0397
34916W        W48330   1.628   8.563  13.615  0.0112  0.1224  0.0140
34917W        W48331  12.540   2.303  10.568  0.1353  0.2670  0.0161
34918W        W48332  12.172   7.182  13.901  0.1973  0.0104 -0.0781
34919W        W48333   7.830   6.326   2.883 -0.0211 -0.0230  0.0847
34920W        W48334  13.607   2.425  16.478  0.0086  0.1076 -0.0412
34921W        W48335  10.168  13.219  11.959  0.0762 -0.0980 -0.0808
34922W        W48336   8.631   5.517  12.555  0.0819 -0.0281 -0.1749
34923W        W48337  16.386  14.738   0.492  0.0177  0.0141 -0.2181
34924W        W48338   8.361   5.798  15.610 -0.0217  0.0133 -0.1416
34925W        W48339  12.391  16.364  15.424  0.2135 -0.0013 -0.1737
34926W        W48340  11.068  17.078   5.276  0.1173 -0.1313 -0.0449
34927W        W48341   0.652   6.374   2.506 -0.2338  0.0888 -0.1394
34928W        W48342  14.562   4.439  10.786  0.0338  0.1986  0.0703
34929W        W48343   0.459  15.330   4.952  0.0501  0.0965 -0.0057
34930W        W48344   8.469   6.342  11.298  0.0625 -0.0310 -0.0402
34931W        W48345   6.007   3.551   1.837  0.0686  0.4084  0.1134
34932W        W48346  11.625   1.092   0.899  0.0297 -0.2833  0.0816
34933W        W48347  12.947  13.120   2.096  0.2075 -0.1963 -0.1832
34934W        W48348   1.900  17.078  10.642  0.1408 -0.2339  0.0003
34935W        W48349  11.615   7.390  15.524 -0.3008  0.1381  0.1117
34936W        W48350  12.395   6.411   3.002 -0.1102 -0.0949  0.0848
34937W        W48351   5.066   7.524   3.629  0.1024  0.0653 -0.0145
34938W        W48352   3.775  10.334  11.456 -0.0663 -0.2296  0.0676
34939W        W48353   9.628  13.119   6.803 -0.0448 -0.0972  0.0013
34940W        W48354  17.087   1.551   6.211 -0.2340 -0.0442  0.0244
34941W        W48355   8.245   7.167   2.279 -0.3187 -0.1005  0.0519
34942W        W48356   8.355   7.525   4.798 -0.4263 -0.0123  0.0543
34943W        W48357   2.256  13.937  12.761  0.0203 -0.0100 -0.1509
34944W        W48358   0.993   8.857   3.705 -0.2511 -0.1745 -0.0482
34945W        W48359   4.592   6.667  16.036  0.0880 -0.1119  0.2051
34946W        W48360  12.588  12.442   6.147 -0.0042  0.1236 -0.1790
34947W        W48361  11.225   5.254  16.177 -0.1046  0.4000  0.4102
34948W        W48362  13.257  17.830   2.569 -0.1917 -0.0932 -0.1243
34949W        W48363  10.458   7.903   2.335 -0.1427  0.3575  0.1277
34950W        W48364   5.703   8.311   0.773 -0.0316  0.3328 -0.1083
34951W        W48365   3.839   0.206  11.024  0.0623  0.3278 -0.1093
34952W        W48366   2.638   3.405   0.274  0.0667 -0.2634  0.2559
34953W        W48367   4.478   2.657   1.981  0.0581  0.1868 -0.0073
34954W        W48368   5.642   1.909   3.250 -0.1551 -0.4294 -0.3059
34955W        W48369   0.028  16.234   2.040 -0.4431 -0.3304  0.0001
34956W        W48370  13.086   8.370  14.042 -0.0999 -0.2733 -0.3264
34957W        W48371   4.119   3.658  15.042 -0.3219 -0.1197 -0.0013
34958W        W48372  12.508   9.525  14.375  0.2047 -0.0461 -0.0048
34959W        W48373   2.211   5.987   2.593 -0.1881  0.3819 -0.5528
34960W        W48374   1.631   5.548   4.061 -0.1396 -0.1545  0.0366
34961W        W48375   0.529   7.423  14.140  0.0926  0.1629  0.2781
34962W        W48376   5.744   4.469   2.156  0.1009  0.3065 -0.1902
34963W        W48377  11.451   3.615   4.924  0.3283  0.0157  0.0239
34964W        W48378   6.465  12.778  12.543  0.0420 -0.2415 -0.0432
34965W        W48379  14.586  13.296   6.329  0.2013 -0.1533  0.3245
34966W        W48380   4.104   2.082  13.671 -0.0433  0.2346  0.0524
34967W        W48381  15.732   9.868  12.265  0.0435 -0.0846  0.0327
34968W        W48382  15.011  15.660  12.362 -0.0263 -0.0513 -0.0073
34969W        W48383   6.231  17.021   1.333  0.0080  0.0721  0.2280
34970W        W48384  10.316  13.802   3.259 -0.0846 -0.1026 -0.2060
34971W        W48385  12.315   9.193   5.578  0.0386 -0.1544 -0.0628
34972W        W48386  15.335   4.464   4.987 -0.0017  0.1360 -0.2143
34973W        W48387  12.759  16.037  11.355  0.3035  0.1857 -0.0715
34974W        W48388   4.038   5.320   6.144  0.2454  0.0928 -0.1716
34975W        W48389  11.866  13.245   2.575 -0.1500 -0.0978  0.0365
34976W        W48390   9.202  17.482  12.060  0.1945  0.1622 -0.1025
34977W        W48391   4.852   7.089   3.875 -0.0012 -0.1493  0.1221
34978W        W48392   2.213   9.481  16.008  0.2435 -0.1504  0.2414
34979W        W48393   2.716   0.738   1.320 -0.2535  0.2516  0.1470
34980W        W48394  10.441   6.612  13.427 -0.1310 -0.0379  0.1223
34981W        W48395  14.624   2.072  16.542 -0.0955 -0.0192 -0.1770
34982W        W48396  12.483   6.706   1.324  0.0536 -0.0393  0.0618
34983W        W48397   9.293  14.916  15.372 -0.2399  0.0128  0.1583
34984W        W48398  13.124  13.780   0.970 -0.2026 -0.2762 -0.3098
34985W        W48399   1.493   2.431   4.990  0.0289  0.1234  0.0102
34986W        W48400  17.239   6.032   0.162  0.2423  0.1083 -0.2057
34987W        W48401   3.285   7.837   3.583  0.2627  0.0268 -0.3895
34988W        W48402  14.136   3.852   3.659  0.0916  0.1696  0.0529
34989W        W48403  12.111   3.023   0.874  0.1271  0.0296 -0.0629
34990W        W48404  12.238   0.949  12.437  0.0403 -0.4018 -0.0720
34991W        W48405   4.019   6.178  15.068 -0.1582  0.0309  0.0783
34992W        W48406   5.129   1.617  13.257 -0.0724  0.2831 -0.0111
34993W        W48407   2.544   1.791   2.432 -0.0438 -0.0694 -0.2738
34994W        W48408   9.313   3.875   0.574  0.1841  0.0775  0.1083
34995W        W48409   2.619   0.219  12.783  0.2012  0.0821 -0.1983
34996W        W48410   4.104  15.257  10.511  0.0700 -0.1378  0.0530
34997W        W48411   5.194   4.339   4.028 -0.1178  0.1376  0.3090
34998W        W48412  14.068  14.730  15.808 -0.1014 -0.0982  0.0663
34999W        W48413   0.875  17.358  11.777  0.0302  0.1543 -0.2778
35000W        W48414  17.939  16.314  14.971 -0.0174  0.1021 -0.0485
35001W        W48415   0.807   0.497   3.257 -0.1892 -0.0477 -0.1547
35002W        W48416  15.182   7.944  15.434  0.0225 -0.2493  0.0730
35003W        W48417   7.811  12.793  13.582 -0.2175  0.3351 -0.1389
35004W        W48418   1.820  16.532   3.651 -0.0544  0.0664 -0.1195
35005W        W48419   4.280   5.656   3.369  0.1684  0.0797  0.0085
35006W        W48420  16.451   2.638   1.344 -0.0870 -0.0327 -0.0922
35007W        W48421   2.923   7.901  12.759 -0.1715 -0.0710 -0.2145
35008W        W48422  13.879  13.881   4.058 -0.1585  0.4419 -0.0187
35009W        W48423   2.144   0.081  10.914 -0.0323 -0.1628 -0.0855
35010W        W48424   8.717   3.420  13.621  0.3180 -0.1004  0.1314
35011W        W48425   8.120  16.399   1.595 -0.1480  0.0460  0.0328
35012W        W48426  13.504   6.431  12.732  0.1776 -0.0860  0.1158
35013W        W48427   0.283   7.699  11.539  0.3362  0.2302 -0.2437
35014W        W48428  14.175   5.778  15.863 -0.0436 -0.0328  0.2790
35015W        W48429  17.141   8.327  10.638 -0.0038 -0.1212  0.0064
35016W        W48430  12.183  15.171  15.291 -0.0882  0.0187  0.1907
35017W        W48431   1.883   7.809   5.051  0.0113  0.4322 -0.0108
35018W        W48432  11.042   1.180  13.001 -0.0923 -0.3300  0.2077
35019W        W48433   4.871  16.540   4.213 -0.1009 -0.1827  0.1386
35020W        W48434   6.920   6.965  13.162 -0.0487 -0.1240 -0.1653
35021W        W48435   5.136  12.914  12.609  0.3625 -0.3675 -0.0260
35022W        W48436   7.324  14.620   3.316  0.0157 -0.0633 -0.1861
35023W        W48437   6.246  14.956  12.618  0.0745  0.0822 -0.4377
35024W        W48438   4.290   0.770  10.397  0.1660  0.0635  0.0198
35025W        W48439   9.120  15.635   4.791 -0.1123  0.2009 -0.2131
35026W        W48440   2.840   6.039   5.108  0.2686  0.2716 -0.3584
35027W        W48441   6.890   1.995  14.239 -0.1229 -0.1566  0.3207
35028W        W48442  17.147   4.006  14.165  0.2640  0.1323  0.0184
35029W        W48443   3.599   5.859  15.135  0.1782 -0.3196  0.1488
35030W        W48444   2.905  17.426  15.443  0.3066  0.1443  0.2351
35031W        W48445  11.401   9.952  16.530 -0.2149  0.1149  0.1205
35032W        W48446   1.821  17.731  11.082  0.3257  0.0155  0.0341
35033W        W48447   6.774   6.125  10.932 -0.0278  0.0893  0.0651
35034W        W48448  12.842  11.512   2.374  0.0076  0.0836 -0.0419
35035W        W48449  12.662  15.753   1.868 -0.1990  0.2249  0.0781
35036W        W48450   0.890   8.867   3.213  0.0890 -0.0106  0.1471
35037W        W48451   1.887  17.731  15.150  0.2286  0.2714 -0.1004
35038W        W48452   4.914   1.671  12.770 -0.1713  0.0345 -0.2088
35039W        W48453   1.355  10.191  12.425  0.1303  0.0283  0.1712
35040W        W48454   4.736   1.302  13.255 -0.2931 -0.4666  0.1086
35041W        W48455   6.614   2.604   4.210  0.1902 -0.1481  0.0622
35042W        W48456   9.225  13.023  12.991 -0.2341 -0.0737 -0.2073
35043W        W48457  16.010   9.222  13.897  0.0707  0.0236 -0.0385
35044W        W48458   3.647   8.200   1.523  0.1300 -0.1141 -0.0358
35045W        W48459   6.248   3.805  13.724 -0.0878 -0.0178  0.1287
35046W        W48460  17.116   3.270  12.537 -0.4139  0.1301  0.4100
35047W        W48461   5.498  13.485  14.987  0.1030  0.3668  0.4037
35048W        W48462  13.378  11.110  16.422  0.1044  0.3784 -0.0970
35049W        W48463   5.401  10.271   1.706  0.0273 -0.2132  0.1145
35050W        W48464  16.999  14.660  14.392  0.0234  0.1470 -0.1165
35051W        W48465   3.000   5.760   0.861 -0.2315 -0.0414 -0.0795
35052W        W48466   0.486   0.119  13.593 -0.0258  0.1735 -0.0931
35053W        W48467   7.519  12.365   0.705 -0.1708 -0.0840  0.1508
35054W        W48468  11.755  13.766  12.476 -0.0095 -0.0923 -0.0352
35055W        W48469  15.759  15.114   6.086 -0.0682 -0.1654 -0.0805
35056W        W48470  12.898  14.299  14.694  0.0032  0.0894 -0.1143
35057W        W48471  16.013   2.966   3.068  0.0003  0.0501 -0.2089
35058W        W48472   1.793  10.025   3.629  0.2463  0.1716  0.1309
35059W        W48473  13.500  12.710   2.012 -0.2260  0.0011 -0.1798
35060W        W48474  10.658  12.792  11.167 -0.1740 -0.3151 -0.0065
35061W        W48475   4.519  10.377  13.361  0.0810  0.0155 -0.0323
35062W        W48476   0.075  14.719   1.173  0.0749 -0.0330  0.0057
35063W        W48477   3.995  17.810  11.478  0.0389  0.0088  0.1872
35064W        W48478   0.184   1.674   1.820  0.0253 -0.0573 -0.0868
35065W        W48479   0.942  12.582   1.830 -0.1345  0.1645 -0.1295
35066W        W48480   4.306  14.865   3.308 -0.5281  0.0786  0.0181
35067W        W48481  17.019   5.277  16.433  0.1508 -0.3320  0.2195
35068W        W48482   7.992   3.446  13.214  0.2403 -0.1674 -0.1218
35069W        W48483   4.445   1.337   1.756 -0.0062  0.1021  0.0260
35070W        W48484   2.271   1.008   1.141 -0.0502  0.3230  0.2309
35071W        W48485  12.074   4.241   0.491  0.1879 -0.1297  0.0202
35072W        W48486   1.965   5.715  16.122  0.2382 -0.0890  0.4238
35073W        W48487  13.468  14.921   3.045  0.0463  0.0076 -0.0395
35074W        W48488  12.034   8.559  11.957 -0.1756 -0.0290 -0.2920
35075W        W48489   8.840  13.316   2.707  0.1548  0.1175  0.3227
35076W        W48490   7.614  16.527  15.014  0.1559  0.1087 -0.1044
35077W        W48491  12.343  17.790   3.932  0.1941 -0.1484  0.3391
35078W        W48492  15.385   8.401  12.122 -0.1259  0.0596 -0.0237
35079W        W48493  10.258   1.980  13.655  0.1711  0.3167  0.0510
35080W        W48494   0.086   8.834   2.900  0.4819  0.2919  0.2214
35081W        W48495   4.891   8.000  16.564 -0.0092  0.0260 -0.1635
35082W        W48496  13.298  10.857  13.711  0.0022 -0.0407 -0.1041
35083W        W48497   7.642  17.785  13.406 -0.3433 -0.4185  0.4759
35084W        W48498  17.499   1.927   5.868 -0.1263 -0.1887  0.0116
35085W        W48499   6.385  10.264   6.327 -0.3095 -0.0506 -0.1261
35086W        W48500  10.097   2.393  11.544  0.1104 -0.0105 -0.0744
35087W        W48501  17.721  15.545   0.846 -0.1000  0.2266 -0.2054
35088W        W48502  12.013  16.714  11.819 -0.0574 -0.1236  0.3030
35089W        W48503  16.800   3.150  14.830 -0.1791  0.1462  0.1097
35090W        W48504  13.754   9.881   3.903 -0.1888 -0.0172  0.0507
35091W        W48505   5.602   4.697  14.544  0.2819  0.1793  0.2362
35092W        W48506  13.324  16.415   2.112 -0.0320 -0.0531  0.2929
35093W        W48507  17.201   0.891  13.040 -0.2398  0.1363 -0.1641
35094W        W48508  11.299   7.150  12.702 -0.0547  0.0753 -0.1688
35095W        W48509   4.143   8.211   5.625  0.0607  0.2620  0.1467
35096W        W48510  12.151  12.596   6.444 -0.0029 -0.0619  0.0489
35097W        W48511   5.122   4.568   1.325  0.2329 -0.0755  0.0006
35098W        W48512   0.706  12.237  16.683  0.0517 -0.0693  0.1882
35099W        W48513   8.116   1.397   1.238  0.0992 -0.1631 -0.0368
35100W        W48514   1.175  10.568  10.052 -0.0559 -0.1735 -0.0141
35101W        W48515   4.009   0.680  12.779 -0.3554 -0.3130  0.2321
35102W        W48516  15.542   3.798  11.993 -0.0096  0.1025 -0.0248
35103W        W48517   9.326  15.942   0.976  0.2856 -0.0655  0.0275
35104W        W48518   6.428   0.963  12.955 -0.0843 -0.0382  0.0177
35105W        W48519  13.103  10.503  14.138  0.1946  0.0306  0.0800
35106W        W48520   9.450  11.137   4.662  0.2977 -0.0580  0.2261
35107W        W48521  10.843  12.582  15.313 -0.0735  0.2996 -0.1986
35108W        W48522   2.639   6.436   5.812 -0.1843 -0.1428  0.1926
35109W        W48523  13.076   9.342  12.478  0.1488 -0.1072 -0.1798
35110W        W48524  12.974  10.280   4.157 -0.1283 -0.1765  0.0781
35111W        W48525   8.424  12.195   3.001 -0.0134  0.2070  0.0867
35112W        W48526   9.699   1.012   3.716  0.0592 -0.0818  0.0318
35113W        W48527  16.054  10.920   4.955  0.0659 -0.1090  0.0107
35114W        W48528   4.492   0.269  14.626  0.0192 -0.0704  0.1401
35115W        W48529   0.725   8.657   5.047  0.1481 -0.0570  0.1047
35116W        W48530   1.191  14.641  15.852  0.2965 -0.1758 -0.0555
35117W        W48531  10.206  16.150   4.311  0.0514  0.0394  0.4064
35118W        W48532  11.346  11.652  15.438  0.1125 -0.0695 -0.4680
35119W        W48533   3.119   8.101   1.369 -0.0002 -0.2584  0.1083
35120W        W48534  15.782   9.009  14.335 -0.0247 -0.1770  0.0291
35121W        W48535   9.842   3.428   4.078 -0.1215 -0.1059 -0.3867
35122W        W48536   4.480  11.777   6.602 -0.0932 -0.1942 -0.2979
35123W        W48537   3.879  10.148  15.628  0.3030 -0.5021 -0.4326
35124W        W48538   6.234  17.218  14.614  0.1517  0.2105  0.1143
35125W        W48539   6.436   4.555   0.422  0.3203  0.1880  0.1376
35126W        W48540   2.296  17.180  15.606 -0.0701 -0.2626  0.1053
35127W        W48541   9.946  13.446  12.362 -0.0897 -0.3971  0.0787
35128W        W48542   6.613   4.421  15.614 -0.0104 -0.1331 -0.0076
35129W        W48543  12.969  12.370  13.217 -0.3484 -0.0257  0.1935
35130W        W48544  17.183   1.387   1.877  0.1800 -0.1024 -0.1178
35131W        W48545  14.513  15.799  15.391  0.2020  0.2155  0.1714
35132W        W48546   2.637  16.806  16.335  0.0642  0.0187 -0.5434
35133W        W48547  16.786   7.586  15.876  0.2928 -0.0773  0.5368
35134W        W48548   6.072  10.566   2.361 -0.2580 -0.2831  0.0331
35135W        W48549   8.131   7.828   3.895 -0.0509  0.1018  0.1216
35136W        W48550  16.608  17.905  14.900  0.4033 -0.1360 -0.1957
35137W        W48551   7.028  11.392  14.444  0.1761  0.1708  0.1431
35138W        W48552  11.605   4.063   4.714 -0.0863 -0.1302  0.0886
35139W        W48553   8.607   5.066  14.227  0.0414 -0.1237  0.0688
35140W        W48554  14.145  10.389   3.180  0.1625 -0.1191 -0.0818
35141W        W48555   4.634   4.898   0.131 -0.3018 -0.0834  0.0514
35142W        W48556  13.774   7.437  14.751  0.0509  0.1597  0.3049
35143W        W48557  10.579  16.445   3.113  0.1643  0.0404  0.1495
35144W        W48558  13.128  15.481  16.278  0.2759 -0.0835 -0.1461
35145W        W48559   2.495  16.960   0.897 -0.1827  0.0312  0.0820
35146W        W48560  10.068   4.922   2.792  0.0724  0.0367  0.4441
35147W        W48561   1.625  17.509   5.194 -0.2590 -0.0439 -0.1032
35148W        W48562   1.854  11.892   4.886  0.0897  0.2881 -0.0975
35149W        W48563  17.053  13.292   5.491  0.0584  0.1120  0.0103
35150W        W48564   6.413  11.605   5.858 -0.3652 -0.0483  0.0104
35151W        W48565  11.596  11.410   0.122 -0.1609  0.2001  0.0808
35152W        W48566  13.793  13.460   0.014 -0.4174 -0.0425 -0.1322
35153W        W48567  15.362   3.123   2.778  0.2182 -0.2034  0.0603
35154W        W48568   4.519  16.214   2.161 -0.0071 -0.3442  0.0242
35155W        W48569  16.665  13.242  14.308 -0.2048  0.0918 -0.3631
35156W        W48570   9.296   4.467  14.169  0.1523 -0.0066 -0.2775
35157W        W48571   2.567   7.139  11.064  0.1973  0.1450  0.2776
35158W        W48572   9.329   0.424  11.572 -0.0829 -0.0990 -0.2720
35159W        W48573  14.880  16.897   3.194  0.2726  0.0515 -0.1814
35160W        W48574  15.408   1.650   4.363  0.2586  0.1042  0.2211
35161W        W48575  15.464   6.845   2.930  0.0145  0.0392  0.0973
35162W        W48576   8.026   8.633   5.689  0.0679  0.0568 -0.2745
35163W        W48577   6.420  16.726   0.047  0.0003 -0.3461 -0.3857
35164W        W48578   1.122  11.292  11.294  0.1580 -0.2803  0.0599
35165W        W48579   6.133  11.110   4.009  0.3242  0.0755  0.0571
35166W        W48580   9.997   9.440  12.166  0.0179 -0.2018 -0.0423
35167W        W48581   2.099   5.992  15.477  0.1093 -0.1044  0.0582
35168W        W48582  10.087   7.941   1.994 -0.2116  0.0036  0.1899
35169W        W48583   3.173  11.910   0.890 -0.2309 -0.3269 -0.1353
35170W        W48584   6.881  11.159   5.313 -0.1038 -0.0366  0.1576
35171W        W48585   7.571   6.425   2.285 -0.2013 -0.0557 -0.2290
35172W        W48586   4.362   3.048   5.253  0.0463 -0.0882 -0.0981
35173W        W48587  12.931   1.354   6.038 -0.2652  0.2810  0.1104
35174W        W48588  16.390  12.110   1.103  0.1624  0.0145 -0.3166
35175W        W48589  15.740  10.028  12.755 -0.0258 -0.0697 -0.0484
35176W        W48590  15.886   2.374   0.586  0.1464  0.1778 -0.0673
35177W        W48591  16.819  12.883  12.646  0.0721  0.3157  0.1106
35178W        W48592  10.365  13.034   1.014 -0.0633 -0.3378 -0.3113
35179W        W48593   7.475   1.590  11.160  0.2096  0.0543  0.0476
35180W        W48594   9.563  13.583   0.563  0.1046 -0.1024 -0.2527
35181W        W48595   5.243  17.381  12.179 -0.0814  0.0948  0.0726
35182W        W48596   5.673  17.288  13.724  0.0301  0.1771  0.1930
35183W        W48597  11.073  13.488   4.080 -0.0148  0.1625  0.1276
35184W        W48598  17.630  13.880  13.194  0.1268 -0.1016 -0.0405
35185W        W48599  15.224  14.447   2.940 -0.0660  0.2122 -0.1364
35186W        W48600   7.029   7.896  15.581 -0.1814 -0.1250 -0.0484
35187W        W48601  16.762  10.465   4.412  0.2397  0.1164 -0.1674
35188W        W48602   1.707   8.184   2.913 -0.0166 -0.1893 -0.1615
35189W        W48603   5.593  16.826  14.095 -0.1890 -0.1253  0.0273
35190W        W48604  17.894  13.160  11.868  0.2398  0.1465  0.1125
35191W        W48605  10.840   2.343  10.881 -0.1678  0.1470 -0.2163
35192W        W48606   1.335  15.680  11.037  0.2721  0.0645  0.0697
35193W        W48607  14.074   4.430   5.532 -0.1297 -0.1912 -0.3114
35194W        W48608   9.722  13.413  13.654  0.1276  0.0338  0.0120
35195W        W48609   4.384  15.744   2.107 -0.1797 -0.1837 -0.2189
35196W        W48610   8.791   0.316  11.090  0.1259 -0.2344 -0.0605
35197W        W48611   3.123   3.244  16.205 -0.2594 -0.1397 -0.0574
35198W        W48612   0.796   5.322  12.918  0.1210  0.2791 -0.0069
35199W        W48613  16.463   1.695   5.529  0.0194  0.1772 -0.1650
35200W        W48614  16.844  16.294   3.200 -0.0403 -0.0168 -0.2262
35201W        W48615   8.933  15.693  12.685 -0.1208 -0.0190 -0.0486
35202W        W48616   5.197   1.581   9.915 -0.0839 -0.2584 -0.0826
35203W        W48617  11.071   5.714  12.510  0.1514 -0.1182  0.0923
35204W        W48618  15.371  14.819  12.506  0.0420 -0.2856  0.1566
35205W        W48619   8.040   6.787  13.183 -0.2605 -0.0320  0.1283
35206W        W48620   8.590  13.911  16.496  0.0085 -0.1988 -0.0120
35207W        W48621  11.015   1.291   3.103 -0.0314  0.2209 -0.0227
35208W        W48622   9.284   6.419  15.678  0.1415  0.1497 -0.1273
35209W        W48623  12.083   9.756   4.082 -0.1284 -0.3123 -0.0095
35210W        W48624   1.107  16.209   1.951 -0.3120  0.0590 -0.1858
35211W        W48625  17.970  10.416  13.226 -0.3247 -0.1172  0.0671
35212W        W48626  16.212  14.539  15.906  0.2832  0.2357  0.3757
35213W        W48627   1.394  12.605   0.728  0.1258 -0.0612  0.1456
35214W        W48628  17.483   3.515   1.086  0.0942 -0.0850  0.2058
35215W        W48629   6.102  16.761  14.441  0.1590  0.1093  0.2704
35216W        W48630   9.186  12.564  11.565 -0.0103  0.1138 -0.0778
35217W        W48631  14.954   1.926  12.978 -0.2022 -0.2536 -0.0936
35218W        W48632  13.080  13.274   1.193  0.0953  0.0195  0.1622
35219W        W48633   9.270   9.722   4.848 -0.1800 -0.0569 -0.2340
35220W        W48634  11.087  12.974  15.200 -0.2782  0.2701 -0.1601
35221W        W48635  14.400  17.573   4.832  0.2989  0.0940  0.0674
35222W        W48636  14.630  10.999  16.390 -0.0836  0.0969 -0.0904
35223W        W48637   4.921   9.603  12.080 -0.1383  0.0605 -0.0771
35224W        W48638  16.049   7.694   5.376  0.1165  0.1380  0.3126
35225W        W48639  13.503   1.481  13.493 -0.2885  0.0574  0.2435
35226W        W48640   6.625  10.240  14.144 -0.1023 -0.2114  0.0385
35227W        W48641   4.958   6.297  16.405  0.0101  0.0401 -0.0530
35228W        W48642   4.656   7.901  12.412  0.1776 -0.0958  0.0901
35229W        W48643  11.559  12.258  13.217  0.4049  0.4278  0.1865
35230W        W48644  14.424   0.658  15.477  0.1483  0.2216  0.0645
35231W        W48645   3.583   2.410   1.427 -0.0129 -0.2024  0.0063
35232W        W48646   3.094   3.242  15.683 -0.2925  0.2390 -0.3956
35233W        W48647   4.150   3.297   0.189  0.0319  0.0258 -0.3880
35234W        W48648  15.224  11.482   3.007 -0.0502  0.0202  0.1109
35235W        W48649   6.542  13.122   5.322 -0.1431  0.0506 -0.1475
35236W        W48650   5.903  12.330   0.362 -0.2027  0.2166  0.1689
35237W        W48651   6.830  13.577  15.363  0.0912 -0.1587 -0.1311
35238W        W48652  16.098   0.540  14.773 -0.2308  0.1555 -0.0968
35239W        W48653   1.807   1.497  11.033 -0.0717  0.1083  0.0287
35240W        W48654  17.156   6.217   1.585  0.2496 -0.0258  0.1395
35241W        W48655   9.045  16.599  11.691 -0.0469 -0.0114 -0.0790
35242W        W48656  13.262  14.471  14.266 -0.2057  0.0755 -0.0685
35243W        W48657   1.872  17.878  10.520 -0.0651 -0.0271  0.0322
35244W        W48658   6.674   3.861  14.866  0.0713  0.0179 -0.4462
35245W        W48659  17.580  14.875   6.008  0.4422 -0.2796  0.2563
35246W        W48660   1.262  12.848  16.031  0.3889 -0.1182 -0.0031
35247W        W48661   8.784  16.041   4.836  0.0703 -0.0909 -0.1492
35248W        W48662   0.054   1.015  10.137 -0.0222  0.0236  0.3014
35249W        W48663   9.914  16.861   2.049  0.2618  0.0278 -0.1055
35250W        W48664   1.823   3.438  15.658  0.2966  0.0799  0.2003
35251W        W48665  16.650  14.667   4.216 -0.0091  0.1230  0.0440
35252W        W48666  10.273   5.514   0.092  0.0760 -0.3037  0.0771
35253W        W48667   6.065  14.890   4.595 -0.0322 -0.1534  0.1171
35254W        W48668  17.555  11.178  10.881  0.0220  0.1101  0.2588
35255W        W48669   5.874  17.849   1.188  0.0807 -0.3475 -0.0520
35256W        W48670  16.760   2.196   4.448  0.3912 -0.3930 -0.0342
35257W        W48671   0.660   1.094   0.245 -0.0082  0.2628  0.0943
35258W        W48672   6.272   1.465  16.260  0.3344 -0.0963  0.2742
35259W        W48673   1.356   9.281   4.028  0.0809 -0.3536  0.1250
35260W        W48674  10.682   4.735   1.361 -0.2767 -0.3415 -0.1262
35261W        W48675  17.423  16.315  14.906  0.0279 -0.2312  0.0587
35262W        W48676  16.925   4.835   2.368 -0.0142 -0.2727  0.2359
35263W        W48677  13.836  14.493  14.350 -0.2348 -0.1428 -0.0637
35264W        W48678  15.810  13.176   5.342 -0.1808  0.3498 -0.0635
35265W        W48679   8.234   1.012  11.499 -0.0140 -0.1569  0.1198
35266W        W48680  11.748  13.539   4.919  0.0520  0.0095  0.0223
35267W        W48681   7.734   5.197   1.107 -0.1679  0.0665 -0.0788
35268W        W48682  10.371   1.107  13.805  0.1086  0.2684 -0.2456
35269W        W48683   5.915   0.303  11.705  0.2831  0.0579  0.2462
35270W        W48684   1.028  13.788  14.891  0.0096  0.1901  0.1825
35271W        W48685  10.075  11.043  15.788 -0.2236  0.0585 -0.0193
35272W        W48686   9.317  17.209   1.743  0.2470 -0.0699 -0.0200
35273W        W48687  16.040   7.589   1.182 -0.1602 -0.0506  0.3304
35274W        W48688   5.983   4.776  11.103  0.1237  0.2412 -0.1391
35275W        W48689  13.882  15.346   0.995  0.2030  0.1824  0.0179
35276W        W48690  13.694  10.483  11.265  0.2033 -0.3250 -0.0500
35277W        W48691  10.948  12.192   5.431 -0.3775  0.0683  0.0866
35278W        W48692  16.108   8.352   6.572 -0.2264  0.2847 -0.0551
35279W        W48693   8.779   6.912  16.171  0.1694  0.2300  0.0765
35280W        W48694  17.594  13.377   3.302  0.1922  0.1162 -0.0814
35281W        W48695   5.517  16.531   3.623  0.2749  0.1611  0.1536
35282W        W48696  11.740   6.848  12.949 -0.0450 -0.0761  0.1356
35283W        W48697   4.020  12.253   0.826  0.3079  0.1048  0.2026
35284W        W48698  15.904   5.273   3.093  0.0046  0.3098  0.1518
35285W        W48699  17.389  13.827  14.593 -0.1985 -0.0766 -0.4515
35286W        W48700   4.974  14.671   1.702 -0.0679  0.0987  0.2583
35287W        W48701   5.627   2.187   5.005  0.1089  0.0376 -0.2631
35288W        W48702   0.007  14.712   5.074 -0.3242 -0.3880 -0.2983
35289W        W48703   1.033   3.416   2.269 -0.1516  0.3271  0.3147
35290W        W48704  12.082  14.621   1.515 -0.2471  0.0548 -0.0892
35291W        W48705  17.800   7.752   5.880  0.1571 -0.1831  0.0089
35292W        W48706  15.235   6.634  12.834  0.3206  0.3627  0.1202
35293W        W48707  11.501  10.651  11.744 -0.2371  0.3928  0.2521
35294W        W48708   8.306   8.353  12.313  0.3434 -0.0375 -0.0139
35295W        W48709   3.151  11.851   2.090 -0.1594 -0.2479 -0.0954
35296W        W48710  16.906   4.820   3.716 -0.0073  0.2014  0.0499
35297W        W48711  12.653  15.666   3.651 -0.3275  0.2909  0.0502
35298W        W48712   6.404   2.727  11.449  0.3590 -0.2707 -0.0345
35299W        W48713   4.600   3.780  13.023 -0.2878 -0.0707  0.0412
35300W        W48714  17.651  13.388  11.044  0.2283 -0.2191  0.1982
35301W        W48715   3.156   8.884  11.170 -0.1448 -0.0101  0.0028
35302W        W48716  13.914  11.988   5.193 -0.1494 -0.4021  0.0231
35303W        W48717   9.081   4.355  16.307 -0.1267 -0.0504  0.0893
35304W        W48718   5.439   2.699   9.607 -0.2485 -0.0856  0.2740
35305W        W48719  17.348   9.143  12.731  0.2517  0.2390  0.1029
35306W        W48720  11.142  13.966   1.605  0.1597  0.0136  0.1333
35307W        W48721   1.880  12.830   0.693  0.0503 -0.3067 -0.0161
35308W        W48722  10.160   2.226   5.247 -0.0019  0.1193  0.1021
35309W        W48723   2.959  10.448  10.906  0.0492 -0.0620 -0.1408
35310W        W48724   9.083   6.893  11.217  0.0040 -0.0564  0.2234
35311W        W48725   1.067   7.501  15.866  0.3059 -0.1724  0.3003
35312W        W48726   6.329  15.444  10.198 -0.3216 -0.2047  0.1470
35313W        W48727  14.115   1.541   1.848  0.0010  0.3949  0.3435
35314W        W48728  11.085   1.239   1.712  0.1107  0.3448  0.1784
35315W        W48729   3.308  12.203  11.077  0.0636  0.1028  0.0814
35316W        W48730  17.100   7.294  13.280 -0.1258 -0.1107 -0.1736
35317W        W48731  13.295   9.343  15.228  0.3354 -0.0221 -0.1847
35318W        W48732  10.388  15.021   0.435 -0.2177  0.1875  0.5434
35319W        W48733   1.963  16.092  12.881 -0.1293 -0.0431  0.0487
35320W        W48734  17.543   3.165   3.353 -0.2910  0.1735  0.0729
35321W        W48735   7.121   2.335  13.946 -0.0493  0.0146  0.0445
35322W        W48736   5.041  13.332   5.656 -0.0230  0.0596  0.2451
35323W        W48737   6.862  15.589   0.332  0.0672  0.2022  0.1044
35324W        W48738   1.526   0.028  15.203  0.2854  0.0638  0.0448
35325W        W48739   3.644   6.933   0.453 -0.1092  0.4449 -0.2468
35326W        W48740   1.251  10.818  11.094  0.2385 -0.1489 -0.4993
35327W        W48741   7.185   8.119  15.148 -0.0833  0.0398 -0.3025
35328W        W48742  13.375   1.373  11.392 -0.3008  0.0211 -0.0827
35329W        W48743  10.179   2.617  16.051 -0.0169 -0.0540 -0.1162
35330W        W48744   4.488   4.195  16.125  0.1496  0.0389  0.1040
35331W        W48745   4.760   0.070   0.767  0.2465  0.1317 -0.0777
35332W        W48746  14.852  17.711   4.186 -0.1947  0.0188 -0.0166
35333W        W48747   6.404   5.095   2.724  0.1867 -0.0819 -0.3049
35334W        W48748  13.109   7.778   1.949  0.0520  0.2341  0.1078
35335W        W48749   8.011  12.800  12.915 -0.0735  0.4725 -0.0658
35336W        W48750   7.871   7.803  14.417 -0.0713 -0.0769  0.0624
35337W        W48751  13.259  15.532  11.488 -0.0049 -0.0468  0.1189
35338W        W48752  10.372   9.290   3.003 -0.2600 -0.2258 -0.1512
35339W        W48753   2.641  16.639   3.162 -0.3623  0.0153 -0.2328
35340W        W48754  14.199  10.758  15.502  0.2354 -0.2496  0.1793
35341W        W48755   4.562  15.055  15.017  0.1057 -0.0229  0.0477
35342W        W48756   7.557   3.578   1.498 -0.1047 -0.2552 -0.2035
35343W        W48757   5.791  13.661   5.610  0.1951  0.4427 -0.0098
35344W        W48758   2.852   6.663   0.700  0.2629  0.0107 -0.0332
35345W        W48759  11.657   1.333   4.706  0.1126  0.0357 -0.0277
35346W        W48760   9.498   9.503  13.508 -0.1460  0.0601 -0.2048
35347W        W48761  10.257   5.317   0.587 -0.1107 -0.0686  0.1667
35348W        W48762  14.456   4.375  14.604  0.2805  0.1474 -0.1879
35349W        W48763   6.418  14.902   3.658 -0.0104  0.0509  0.0143
35350W        W48764   1.035   1.494  16.753 -0.1653  0.0017 -0.1234
35351W        W48765   3.276  10.660  13.862 -0.0048 -0.0630 -0.1470
35352W        W48766   0.722   1.359  15.350 -0.2188  0.3078 -0.1515
35353W        W48767   9.408  12.632   4.343  0.2978  0.0238 -0.0561
35354W        W48768   8.103   5.673  16.775 -0.1906  0.1691  0.0771
35355W        W48769  12.666   5.657   1.246 -0.2211 -0.2048  0.4102
35356W        W48770  12.106   3.606  15.958 -0.1405  0.2439 -0.0459
35357W        W48771   7.429  12.426   4.520  0.2768  0.0743 -0.1647
35358W        W48772  12.091   8.433   0.986  0.1965 -0.0656  0.0758
35359W        W48773  10.435   5.654  11.228  0.0883 -0.0998 -0.0182
35360W        W48774   5.991  16.482   5.266  0.0284 -0.2578  0.1569
35361W        W48775  13.180   3.685  11.361  0.0522  0.1058 -0.2395
35362W        W48776   6.632  17.906  14.989  0.0139 -0.0711 -0.0685
35363W        W48777  17.558   7.872   0.336 -0.1825 -0.2011 -0.0480
35364W        W48778  16.394  12.923   5.971  0.0385  0.2549 -0.0303
35365W        W48779   2.143   7.548   2.254 -0.0923 -0.2774 -0.0975
35366W        W48780  11.675   4.683  14.389  0.0290 -0.1534 -0.1133
35367W        W48781  16.105   7.990   3.110  0.1823  0.1854 -0.0344
35368W        W48782   0.986  11.236  12.497  0.4882  0.3577 -0.2610
35369W        W48783   9.683  11.083   2.949  0.3344 -0.0759  0.1896
35370W        W48784  11.196   4.316   1.726  0.1297 -0.1733 -0.0114
35371W        W48785   4.475  14.465  15.070  0.0739  0.2610  0.0325
35372W        W48786  13.999   1.498   0.401 -0.1236  0.1060 -0.0007
35373W        W48787  12.945  10.793   5.914  0.4317 -0.3693  0.0253
35374W        W48788   5.984   2.693   3.472  0.0156  0.1355 -0.0972
35375W        W48789   7.450   4.966  15.758 -0.0822  0.0192  0.0874
35376W        W48790  17.474   9.735   3.683  0.0787 -0.0284 -0.1703
35377W        W48791  10.525  14.517  14.476  0.1726 -0.0639 -0.0632
35378W        W48792   4.108   1.457  14.305  0.1334 -0.3507  0.0437
35379W        W48793   9.718   4.102  11.789  0.0886 -0.1226 -0.1386
35380W        W48794  16.447   0.879  15.113 -0.1595  0.0614 -0.2840
35381W        W48795  11.626   4.041  11.016  0.2876  0.1521  0.0835
35382W        W48796   4.854  10.905  15.031  0.0155 -0.0101  0.1294
35383W        W48797  17.503   9.868  12.069 -0.3712 -0.1540 -0.0566
35384W        W48798  17.858   9.718   5.750 -0.4755  0.0221  0.1407
35385W        W48799   7.372  14.409   1.618 -0.1756 -0.1772  0.1383
35386W        W48800   0.955  16.789  10.434 -0.0179  0.1400  0.0179
35387W        W48801   9.962   0.980   0.162  0.1685 -0.1781  0.3589
35388W        W48802  14.021  14.034  14.303 -0.0572 -0.3094  0.2718
35389W        W48803   9.800  14.106   0.562  0.0213 -0.2116 -0.1815
35390W        W48804   0.526   9.331  15.075  0.1074  0.0041 -0.3294
35391W        W48805  14.610  11.438   0.522  0.5093  0.1334 -0.0879
35392W        W48806   9.198   9.888   4.295  0.0512 -0.1953  0.0916
35393W        W48807  11.134  11.844   3.123  0.0278  0.1304 -0.1974
35394W        W48808   8.648  11.098   1.031 -0.1057  0.0040 -0.2266
35395W        W48809  11.196   1.721   5.500  0.1249  0.2024  0.0420
35396W        W48810   4.541  13.727  12.891  0.0105  0.2160 -0.1216
35397W        W48811  16.859  15.964   2.258  0.3387 -0.0685 -0.0567
35398W        W48812  10.241   5.247  12.049  0.2469 -0.0343  0.2431
35399W        W48813  13.208   9.936   6.165 -0.2368  0.1435  0.1195
35400W        W48814  11.315  11.554   5.950  0.3116 -0.0952 -0.0239
35401W        W48815   8.427   3.096   4.852 -0.2566  0.1855 -0.0700
35402W        W48816   3.468  15.869  13.818  0.0429  0.0458  0.0725
35403W        W48817  10.165   6.738   6.453 -0.1911 -0.0836  0.0374
35404W        W48818  11.972   6.359   5.442 -0.0772 -0.0597  0.0077
35405W        W48819  14.635  17.498  13.056  0.2246 -0.0623 -0.1660
35406W        W48820  15.348   7.888   0.647 -0.1556 -0.0017  0.0811
35407W        W48821   4.590   6.334   1.589 -0.1253 -0.0311 -0.2298
35408W        W48822   2.704  14.160   4.568  0.1992  0.2118 -0.1093
35409W        W48823   9.871   1.276  10.601 -0.2781 -0.1038 -0.0811
35410W        W48824  11.054  15.611   0.132 -0.0375 -0.0505 -0.1604
35411W        W48825  16.406  10.268  15.993  0.2049 -0.2494 -0.1084
35412W        W48826   9.444   2.279  16.358 -0.1288 -0.2385 -0.4384
35413W        W48827   6.759  11.731   2.883  0.1998 -0.0349  0.0916
35414W        W48828   1.994   7.096  16.365  0.1129 -0.0578 -0.3040
35415W        W48829   0.264   0.424  11.742 -0.1348 -0.2822  0.1701
35416W        W48830  14.186   5.883  11.428  0.2129  0.0496  0.0911
35417W        W48831   4.625   2.100  11.688  0.0165 -0.0106 -0.0701
35418W        W48832  11.643  15.744   4.890 -0.2935  0.0712 -0.0929
35419W        W48833  15.834  10.612   3.637  0.1289 -0.0444  0.0641
35420W        W48834  13.448   8.479   4.420  0.1183 -0.0461 -0.0352
35421W        W48835  10.355   0.952  13.266  0.1343 -0.0912 -0.0428
35422W        W48836  13.416  12.497   3.983  0.1775 -0.1518 -0.3615
35423W        W48837   0.769  13.475  16.328  0.0528 -0.0106  0.0919
35424W        W48838   5.465   1.250  14.540  0.0874  0.1025 -0.1206
35425W        W48839   2.791   8.679  12.125 -0.2283  0.0737 -0.2099
35426W        W48840   4.244   2.101   4.764  0.1415  0.0408 -0.1360
35427W        W48841  17.388   6.360   6.042 -0.0386  0.3466 -0.2863
35428W        W48842  12.783  10.827  13.466 -0.1098 -0.2219  0.1193
35429ION     NA48843   2.721   7.220   6.485 -0.1543  0.0988 -0.3141
35430ION     NA48844   5.149   7.519   3.097  0.3410 -0.0980 -0.0123
35431ION     NA48845  13.524   4.142   2.405  0.2055 -0.0250  0.3535
35432ION     NA48846   0.821  15.459  16.749  0.1059  0.2285 -0.0783
35433ION     NA48847   8.581  10.789   7.125 -0.0103  0.1967 -0.2876
35434ION     NA48848  10.278  12.057  11.012 -0.0399  0.0294 -0.0274
35435ION     NA48849   9.335   9.871   1.501  0.2365 -0.0087 -0.0843
35436ION     NA48850  11.282   0.936  14.172 -0.0857  0.0577 -0.1884
35437ION     NA48851   7.938   3.622   5.506 -0.2221 -0.1184  0.0043
35438ION     NA48852   1.327   6.847  12.664  0.1492 -0.1905 -0.4924
35439ION     NA48853  15.341   4.394   4.189  0.0429 -0.1199 -0.3949
35440ION     NA48854   1.198   4.406  11.515 -0.1881 -0.1566 -0.4510
35441ION     NA48855   4.132  11.699   4.083 -0.0313 -0.0887 -0.2167
35442ION     NA48856  13.171   4.153   6.532 -0.2750  0.0214 -0.1361
35443ION     NA48857  10.700   2.565   4.490 -0.3063 -0.0435  0.0148
35444ION     NA48858  14.891   7.097  14.784 -0.2467  0.1739  0.0559
35445ION     NA48859   6.493  17.357   6.098  0.0026  0.1690  0.0189
35446ION     NA48860  13.966  14.286   0.569 -0.0472  0.0806 -0.1113
35447ION     NA48861  15.377   9.705  10.943 -0.0181 -0.2609  0.0174
35448ION     NA48862   0.364   9.096  10.435  0.2512  0.0361  0.1377
35449ION     NA48863   2.690   9.364  10.391  0.3007 -0.1516  0.1368
35450ION     NA48864  15.716   7.391   6.418  0.0941 -0.1121  0.1536
35451ION     NA48865  13.626   6.558  11.829  0.0282 -0.0490  0.1120
35452ION     NA48866   8.874   1.803   9.985  0.3279 -0.1617 -0.0786
35453ION     NA48867   7.409  11.099   6.608 -0.0385 -0.0841 -0.2134
35454ION     NA48868  11.848   9.547  13.200 -0.2630 -0.0370 -0.0338
35455ION     NA48869   8.774   4.852  15.268 -0.1105  0.0502  0.0418
35456ION     NA48870   7.652  13.526  16.559  0.0231 -0.1546 -0.2270
35457ION     NA48871  11.813  17.112  15.695 -0.0543 -0.1807  0.0114
35458ION     NA48872   7.048  11.097  16.349 -0.3819 -0.0957 -0.0036
35459ION     NA48873   7.260   5.559   9.992 -0.1059 -0.0750  0.2285
35460ION     NA48874  13.201   1.481   5.671 -0.3629  0.1640 -0.1740
35461ION     NA48875   4.045  11.428   6.377  0.3045 -0.0856  0.2648
35462ION     NA48876  12.394  12.014  14.463  0.1463 -0.0701  0.0575
35463ION     NA48877   9.435   8.362   6.029 -0.1957 -0.0813  0.4142
35464ION     NA48878   0.516   2.756  13.547  0.0231 -0.1342  0.3058
35465ION     NA48879   0.805  13.012  13.299  0.1458  0.0727  0.0759
35466ION     NA48880   0.130  13.788   1.687 -0.0262  0.1203  0.2012
35467ION     NA48881  13.427   3.650   3.517  0.0779 -0.1443 -0.0448
35468ION     NA48882   9.742  12.905  13.748  0.0079  0.0503  0.2648
35469ION     NA48883  13.454   2.393  16.019 -0.2178  0.1675 -0.2288
35470ION     NA48884  16.604  17.886  11.612  0.0239  0.0235  0.2849
35471ION     NA48885   4.251   2.418  11.867 -0.0915 -0.0089 -0.2318
35472ION     NA48886   7.293  16.122   6.310 -0.0939 -0.5930  0.0219
35473ION     NA48887   5.231   5.722   1.137  0.1497  0.0478 -0.0560
35474ION     NA48888  13.427   6.554   5.222  0.0394  0.0283  0.0007
35475ION     NA48889   2.393  14.592   5.712  0.0218 -0.2591 -0.0075
35476ION     NA48890   2.108   1.365   4.598  0.0982  0.2800 -0.1515
35477ION     NA48891   4.459   3.978   5.618 -0.0452 -0.1513  0.2853
35478ION     NA48892  16.966   8.045   2.314  0.0082 -0.1686  0.1111
35479ION     NA48893  16.028  16.153   6.425  0.1607  0.0413  0.3672
35480ION     NA48894   8.276  14.996  10.712  0.0804 -0.1766  0.0131
35481ION     NA48895   4.907   1.924  10.103 -0.0364 -0.2896  0.0937
35482ION     NA48896   4.517   5.928  10.632  0.0067 -0.1264  0.1487
35483ION     NA48897   7.275   2.290  12.261 -0.1898 -0.1905  0.0586
35484ION     NA48898   8.531  16.314  10.761 -0.2652  0.1639 -0.0967
35485ION     NA48899   2.273   9.998  10.195  0.0530  0.1930  0.1633
35486ION     NA48900   4.960   9.367  10.517 -0.1007 -0.0470 -0.2076
35487ION     NA48901  14.779   2.433   9.999  0.1205 -0.0130 -0.0359
35488ION     NA48902   0.364  12.843  10.324  0.0146 -0.1357 -0.3703
35489ION     NA48903   6.161   7.881  11.612  0.0170  0.0347  0.2400
35490ION     NA48904   9.312   6.576  10.365  0.2813  0.1948 -0.0716
35491ION     NA48905   8.034  11.659   2.051 -0.1771 -0.1728  0.0612
35492ION     NA48906   8.786   5.403   5.971 -0.1276  0.0107 -0.2303
35493ION     NA48907   6.010   7.153  10.672 -0.2478 -0.0327 -0.0229
35494ION     NA48908   7.773   6.201  10.182 -0.0016 -0.3143  0.0296
35495ION     NA48909   9.723  14.828   2.319 -0.2676  0.2749 -0.0382
35496ION     NA48910   3.455  17.310   1.815  0.1672  0.0015  0.0619
35497ION     NA48911  14.585   6.230   1.242  0.2803  0.0378 -0.1020
35498ION     NA48912   1.032   2.062   1.797 -0.1536  0.0007 -0.0592
35499ION     NA48913  13.692  12.296   6.985  0.0044 -0.0377  0.3186
35500ION     NA48914   7.351  12.982   6.654  0.1569 -0.1084 -0.1387
35501ION     NA48915   7.967   9.099   6.932 -0.1573 -0.1853  0.2143
35502ION     NA48916  10.718   4.927   6.311  0.1412 -0.1132  0.1291
35503ION     NA48917   9.902  14.898   6.736  0.1209 -0.1880  0.1180
35504ION     NA48918   8.392  13.745  13.535 -0.0656  0.1806  0.0820
35505ION     NA48919   8.758  11.490  11.063  0.5185 -0.1035 -0.0284
35506ION     NA48920  17.355  17.750  10.828 -0.0429  0.1313  0.4250
35507ION     NA48921  15.073   4.770   6.363 -0.1648 -0.2111 -0.0538
35508ION     NA48922  12.880   9.508  10.765 -0.0234 -0.0169 -0.2277
35509ION     NA48923   7.432   9.654   6.799  0.1975 -0.3320  0.1486
35510ION     NA48924  14.949   1.447   3.588 -0.4310  0.1172 -0.2966
35511ION     NA48925  13.206   4.808   0.134 -0.1611  0.1599 -0.1700
35512ION     NA48926  11.716  14.851  14.467 -0.0856  0.2171  0.1284
35513ION     NA48927  15.828   5.648   2.697 -0.1038 -0.2150 -0.1614
35514ION     NA48928   1.960  14.805   0.867  0.2098 -0.0507 -0.2752
35515ION     NA48929  15.085   9.709   6.527 -0.1891 -0.2518 -0.1917
35516ION     NA48930   2.622  11.269   6.279 -0.0534  0.1799  0.0384
35517ION     NA48931   3.686  17.185  10.040  0.1118 -0.1223 -0.2602
35518ION     NA48932   2.360   2.417   5.557  0.1344  0.0498 -0.0868
35519ION     NA48933  10.007   0.280   6.096 -0.4111 -0.1560 -0.0669
35520ION     NA48934  11.215  17.198  13.983  0.3467  0.0480 -0.1813
35521ION     NA48935   6.360   9.768   6.859  0.0720 -0.1078 -0.1211
35522ION     NA48936  16.040   0.179   3.631  0.1445  0.0645 -0.0568
35523ION     NA48937   5.309   5.472   3.599 -0.0360 -0.3548 -0.0406
35524ION     NA48938  14.518  13.608  14.995  0.0620  0.1093 -0.0674
35525ION     NA48939   3.325   9.499  14.455 -0.1867  0.0844  0.0543
35526ION     NA48940  16.976   4.161  10.098 -0.0163 -0.1384  0.0908
35527ION     NA48941  16.183  14.004   6.349 -0.1211 -0.1064  0.1697
35528ION     NA48942  15.230   4.147  10.434 -0.0995 -0.1029 -0.2277
35529ION     NA48943  17.306  16.244   6.012 -0.2476  0.0339 -0.2439
35530ION     NA48944  17.832  14.564   2.282 -0.0686 -0.1079  0.0991
35531ION     NA48945  16.588  15.806  10.654  0.1829 -0.0909 -0.4072
35532ION     NA48946   5.470   6.073   6.089 -0.1508  0.0514 -0.2908
35533ION     NA48947   5.342  16.363  14.927 -0.0813 -0.1142  0.1421
35534ION     NA48948  13.520  18.002  10.461  0.1083  0.0244  0.0094
35535ION     NA48949  10.630   1.284   2.758 -0.0756  0.1055  0.1200
35536ION     NA48950  13.555  13.928  11.166  0.3256  0.0850 -0.1651
35537ION     NA48951   5.492   8.518  10.579 -0.1595 -0.3385  0.3961
35538ION     NA48952   0.419  17.444   9.821  0.2981  0.2782  0.0906
35539ION     NA48953   3.587   3.549  10.262  0.2070  0.2957  0.2222
35540ION     NA48954  13.339  10.758   4.874 -0.1057 -0.1060 -0.1046
35541ION     NA48955   5.056  10.730  10.889 -0.0755 -0.2309  0.2062
35542ION     NA48956   8.853   8.115  14.642 -0.1175  0.3859 -0.1288
35543ION     NA48957   6.981   9.330   6.958 -0.0455  0.1777 -0.1438
35544ION     NA48958  16.425  14.345   2.526 -0.4493 -0.0531  0.0876
35545ION     NA48959  14.355  15.167   2.132 -0.1188 -0.0428  0.2384
35546ION     NA48960   3.068  13.012   6.122 -0.2565  0.1531  0.1861
35547ION     NA48961  13.655  17.750   6.478  0.1998  0.0205 -0.1020
35548ION     NA48962  13.183  11.297  15.547  0.1983  0.1213 -0.2086
35549ION     NA48963  11.863   8.575  13.233  0.2321 -0.0622  0.1790
35550ION     NA48964  12.027   7.780   6.627 -0.1763 -0.2711 -0.1851
35551ION     NA48965   1.596   4.293  10.274 -0.0023 -0.0020 -0.0968
35552ION     NA48966   2.374  16.085   4.268  0.1670 -0.1323 -0.0707
35553ION     NA48967   6.042   1.668  11.399  0.3200  0.2288 -0.0792
35554ION     NA48968   5.629  11.369   6.481 -0.2727 -0.1951 -0.0763
35555ION     NA48969   4.571  11.448  10.817 -0.1112 -0.1814  0.2083
35556ION     NA48970   4.782  16.779   1.567  0.0424 -0.0657  0.0019
35557ION     NA48971  13.006   8.869   3.548  0.1268 -0.2980  0.1039
35558ION     NA48972   8.792   7.872   2.016 -0.0086 -0.2247  0.0025
35559ION     NA48973  13.608   1.370   1.985 -0.1959  0.1510 -0.0668
35560ION     NA48974   7.705   0.413   1.338 -0.0931  0.0072 -0.1442
35561ION     NA48975   4.709   7.783   3.331  0.1485  0.0371  0.1280
35562ION     NA48976  17.042   9.654   6.351  0.2968 -0.0152 -0.0498
35563ION     NA48977   2.308   1.055  16.224 -0.0871 -0.0739 -0.0657
35564ION     NA48978  12.095   1.841  10.644 -0.1196  0.2287  0.0008
35565ION     NA48979  13.058   5.111   6.146  0.0666 -0.0139  0.0844
35566ION     NA48980   3.278  15.053  11.195 -0.1081  0.3418 -0.0377
35567ION     NA48981  10.774  10.918  10.591  0.0602  0.0710  0.0175
35568ION     NA48982   2.626  12.193   5.982  0.2896  0.1169 -0.1966
35569ION     NA48983  15.299  10.656   6.612 -0.1469 -0.1877  0.0148
35570ION     NA48984   2.688  10.351  16.413 -0.0264  0.0079 -0.3664
35571ION     NA48985  16.383   7.919   6.611 -0.3587 -0.1276  0.0701
35572ION     NA48986   7.903  17.875   6.332  0.2937  0.2036  0.1963
35573ION     NA48987  12.445   2.175  11.334  0.0690  0.2702  0.1142
35574ION     NA48988   1.787   9.836   3.129  0.0167 -0.0875 -0.3119
35575ION     NA48989  11.730   6.160  10.392  0.0785 -0.0469  0.1105
35576ION     NA48990   3.889  13.642   1.917  0.1088 -0.0441  0.0362
35577ION     NA48991  15.026  17.284  10.596 -0.2114  0.0142  0.0286
35578ION     NA48992  17.109   1.054   6.080 -0.3340  0.1497  0.0539
35579ION     NA48993  15.823   5.660   4.285  0.4108 -0.0573  0.0102
35580ION     NA48994  10.634   4.503   5.972  0.1432  0.1800  0.0235
35581ION     NA48995   6.633  17.189  14.218 -0.3213 -0.0480 -0.1537
35582ION     NA48996   0.306  12.130   1.261  0.0271  0.0528 -0.1336
35583ION     NA48997  12.018   7.373   3.440 -0.0917 -0.0121 -0.0793
35584ION     NA48998   5.259   7.162  10.616 -0.0688 -0.0559 -0.0316
35585ION     NA48999   5.010  13.747  10.239  0.1423  0.1617  0.0179
35586ION     NA49000  17.033   1.772   5.733 -0.0841 -0.0512 -0.2852
35587ION     NA49001  16.613  12.135   6.556 -0.3403  0.1989  0.4013
35588ION     NA49002  17.831  13.956   0.779 -0.1547  0.1582 -0.0750
35589ION     NA49003  11.080   3.127   5.889  0.1074 -0.2559 -0.0010
35590ION     NA49004  13.630  12.556  11.360 -0.3441  0.1705  0.0723
35591ION     NA49005  12.877  12.017   3.345  0.1481 -0.0142 -0.1196
35592ION     NA49006  14.286   4.573  10.158  0.0274 -0.0383 -0.1517
35593ION     NA49007   5.924   1.403   5.642  0.1325 -0.3870  0.1006
35594ION     NA49008   0.488   6.253  12.507  0.0359 -0.2171 -0.0494
35595ION     NA49009   6.078   6.605   3.753  0.1116 -0.0747  0.1901
35596ION     NA49010   4.070  14.265  15.344 -0.0782  0.1602 -0.0672
35597ION     NA49011  16.493  15.731   0.292  0.2512  0.0877 -0.0222
35598ION     NA49012   2.701  16.408  10.080  0.1467  0.0718 -0.1167
35599ION     NA49013  12.632   6.180  10.989 -0.2004  0.2735 -0.1398
35600ION     NA49014   1.989  14.077  10.957 -0.4590  0.0824 -0.0290
35601ION     NA49015  15.164  13.879  10.964 -0.0827  0.2615  0.1814
35602ION     NA49016  16.472  16.914   1.064  0.0513  0.0756  0.1973
35603ION     NA49017  10.246   8.652  11.056 -0.2329  0.1370  0.1314
35604ION     NA49018   6.790   5.024   5.606  0.1877  0.1283  0.2446
35605ION     NA49019   8.585   7.284   6.361 -0.1080  0.2604 -0.2030
35606ION     NA49020   9.740   9.256  10.860 -0.0114  0.0334 -0.2185
35607ION     NA49021  13.771  17.205   1.367 -0.1416 -0.0032 -0.1101
35608ION     NA49022   3.226   0.796   5.427 -0.0573 -0.2360 -0.1068
35609ION     NA49023  12.532   5.964  10.520  0.1135  0.1989 -0.4528
35610ION     NA49024   2.905  14.732   2.131 -0.0267 -0.1561  0.0926
35611ION     NA49025   7.995  16.163   3.050  0.1629 -0.0474  0.1476
35612ION     NA49026   8.822   4.760   9.888 -0.1249  0.5069 -0.2031
35613ION     NA49027  15.318   5.112  14.950  0.1803  0.2265 -0.1330
35614ION     NA49028  17.747   0.755   9.877  0.0983 -0.1976 -0.0362
35615ION     NA49029  11.535   5.664   1.880 -0.0325  0.1681  0.0399
35616ION     NA49030  13.158   0.888  11.440  0.2798  0.1247  0.2935
35617ION     NA49031   6.250  15.959  10.562  0.3312 -0.2173 -0.1569
35618ION     NA49032   9.482   6.911  12.946 -0.0546 -0.0340  0.0712
35619ION     NA49033  10.575  17.660  10.576 -0.1216  0.3366  0.0716
35620ION     NA49034  16.413   4.580   6.106 -0.0263 -0.1210  0.2266
35621ION     NA49035   6.558   3.510   9.720 -0.0268  0.0227  0.1904
35622ION     NA49036   2.679   9.511   6.531  0.1585 -0.0224 -0.2545
35623ION     NA49037  16.251   2.178   2.855 -0.1027 -0.2281 -0.1115
35624ION     NA49038   7.962   8.195   0.225  0.0227 -0.1504 -0.3765
35625ION     NA49039  14.348  12.662   6.791 -0.2468 -0.0536 -0.1585
35626ION     NA49040   8.663  13.221   6.928 -0.3273  0.6841  0.1181
35627ION     NA49041  15.101  14.082   0.353  0.0720 -0.0886  0.1840
35628ION     NA49042  14.499  12.019   4.560  0.3015 -0.1333 -0.0873
35629ION     NA49043  13.275   2.725   9.966  0.0798  0.0126  0.0672
35630ION     NA49044  10.241   4.106   1.290  0.2830 -0.0306 -0.2366
35631ION     NA49045   6.763  16.932  15.149  0.0446 -0.2089  0.1133
35632ION     NA49046   7.981   3.251   4.574 -0.2718  0.2078  0.0654
35633ION     NA49047   4.974   0.204   5.709  0.0921 -0.2885  0.2278
35634ION     NA49048   2.001   2.969   2.394  0.2914 -0.1516 -0.1007
35635ION     NA49049  17.991  14.366   4.190  0.0700  0.1304  0.0251
35636ION     NA49050  11.122  15.229  11.764  0.0410  0.0428 -0.0612
35637ION     NA49051   0.260   3.996  10.285  0.2852 -0.3694  0.0085
35638ION     NA49052   1.846  11.917   9.919  0.0717  0.0480 -0.3954
35639ION     NA49053  10.266   5.349   6.169  0.0737 -0.1564  0.0142
35640ION     NA49054   6.446   0.097   0.518 -0.1327 -0.0673  0.2030
35641ION     NA49055   6.939  10.774  10.861  0.0779 -0.0518 -0.1133
35642ION     NA49056   3.998  16.087  13.512 -0.1026  0.0756  0.4252
35643ION     NA49057   9.003   8.601   0.794 -0.0101 -0.0484  0.1076
35644ION     NA49058   0.257   2.002  10.877  0.0121  0.0097  0.1661
35645ION     NA49059   4.792   7.552  14.328  0.1076  0.0219  0.0814
35646ION     NA49060   8.466   9.089   6.979 -0.0039 -0.0249 -0.0137
35647ION     NA49061  13.118  17.631  15.483 -0.1568  0.3241  0.0720
35648ION     NA49062   8.082  10.889  10.576  0.2121  0.1627 -0.1995
35649ION     NA49063   7.602  14.270  16.761  0.0893 -0.0179  0.1297
35650ION     NA49064   4.577  17.468   3.734  0.1221 -0.3259 -0.2901
35651ION     NA49065   6.334   6.579  14.496 -0.1393 -0.1393  0.1873
35652ION     NA49066   0.956  15.656  10.050  0.2343 -0.2194 -0.2192
35653ION     NA49067   9.765  12.143   6.458  0.3342 -0.0752 -0.3518
35654ION     NA49068   6.167   8.725   6.868  0.0761  0.4025 -0.0191
35655ION     NA49069   0.910  17.065  12.791  0.0269 -0.0642 -0.0400
35656ION     NA49070   5.613   6.647  13.666 -0.1808  0.4138  0.2821
35657ION     NA49071   0.269  16.060  10.333  0.0053  0.1516 -0.3433
35658ION     NA49072  10.052   1.243  11.074  0.0507  0.0993 -0.1255
35659ION     NA49073   3.554  17.429  15.223  0.0577 -0.0267 -0.1822
35660ION     NA49074   9.782  14.223  11.090 -0.0572 -0.0276 -0.0881
35661ION     NA49075   3.826   4.158   2.008 -0.1951 -0.1598 -0.2170
35662ION     NA49076  14.246   3.137   6.098 -0.1297  0.1534 -0.1056
35663ION     NA49077   4.060  14.788   5.441  0.0691  0.2863  0.4234
35664ION     NA49078   5.628   0.971  12.924  0.2408 -0.1290 -0.1047
35665ION     NA49079   9.265  13.925   7.015  0.0354  0.1314 -0.1212
35666ION     NA49080   8.257   9.320   3.172 -0.1554  0.2136 -0.0177
35667ION     NA49081  14.577   4.846  12.735 -0.1440  0.2918 -0.1097
35668ION     NA49082  17.446   3.245  15.818  0.0202 -0.0723 -0.0754
35669ION     NA49083   1.413  12.794   1.216  0.1488  0.1298 -0.0928
35670ION     NA49084  10.758   4.565  10.093  0.0491  0.2303 -0.0573
35671ION     NA49085   4.375  13.452  12.442 -0.1925 -0.0747  0.0709
35672ION     NA49086   9.684   7.210   4.703  0.0075  0.0641  0.3030
35673ION     NA49087   0.522   2.893   4.404  0.2244  0.0616  0.0176
35674ION     NA49088   0.876   1.377  15.826  0.0312 -0.0278 -0.1070
35675ION     NA49089  12.447   2.376  10.092  0.3418  0.3457  0.2334
35676ION     NA49090  14.721   4.002   6.320 -0.0617  0.0267  0.0083
35677ION     NA49091  16.973   6.396   0.667  0.1632  0.3065 -0.3076
35678ION     NA49092   3.114   4.297  12.495 -0.0676 -0.2077  0.1530
35679ION     NA49093   6.784  10.503  15.693  0.0404 -0.0443 -0.2417
35680ION     NA49094  15.899  17.664  12.602 -0.0410  0.1380 -0.0287
35681ION     NA49095  10.897  12.891  15.756  0.2745  0.2939  0.3115
35682ION     NA49096  14.369  15.972  11.085  0.0139  0.0658  0.0926
35683ION     NA49097  14.727   3.840   4.822  0.1237  0.1045  0.1877
35684ION     NA49098   3.657   1.178  10.951  0.0412 -0.0185  0.2238
35685ION     NA49099  14.906   6.414   0.508  0.1066 -0.3475  0.2184
35686ION     NA49100  14.769  15.245   6.637  0.3412  0.1191  0.2623
35687ION     NA49101   9.112  16.817  15.737 -0.2804 -0.0555 -0.1155
35688ION     NA49102  15.065   2.045   0.153 -0.0772 -0.1615  0.0782
35689ION     NA49103  10.321  17.114   0.165  0.0338  0.1756  0.0287
35690ION     NA49104   5.544   0.720  10.399  0.1096  0.0595  0.2658
35691ION     NA49105  17.998   0.136   5.720  0.3361 -0.0189 -0.1182
35692ION     NA49106  11.899  12.828  11.035 -0.0208  0.0654 -0.2979
35693ION     NA49107  11.720  10.114   5.771 -0.1159 -0.1215 -0.2132
35694ION     NA49108  10.930  15.710  16.337 -0.2752  0.3961 -0.1204
35695ION     NA49109  15.559  13.799  13.887  0.1048  0.1555 -0.1738
35696ION     NA49110  13.515  17.511  11.756  0.3181 -0.0998 -0.0913
35697ION     NA49111   3.452   4.778   6.048 -0.1212 -0.0718  0.1625
35698ION     NA49112  17.901  13.486   5.924 -0.1515  0.1076  0.0747
35699ION     NA49113   6.371  15.692  14.053 -0.1678 -0.0931 -0.0406
35700ION     NA49114  13.264  16.708  10.603 -0.0992 -0.1868 -0.0411
35701ION     NA49115   6.715   4.968   1.109  0.0147 -0.3487 -0.0990
35702ION     NA49116   2.324   7.096  11.567 -0.0605  0.0527 -0.0738
35703ION     NA49117  17.373   7.351   1.649 -0.1793 -0.1386 -0.0867
35704ION     NA49118   0.612  14.620   3.579 -0.0903  0.0129  0.3004
35705ION     NA49119   8.966   0.208  10.233  0.1635 -0.0799 -0.0647
35706ION     NA49120  15.310   2.156  11.603 -0.1761  0.1973  0.0615
35707ION     NA49121  11.192   6.249  16.331  0.2284 -0.0494  0.0358
35708ION     NA49122  12.339  12.549  11.014 -0.2277  0.0621 -0.2823
35709ION     NA49123  13.587  10.428   6.926 -0.1106  0.2024 -0.0982
35710ION     NA49124  12.153   8.001  10.748 -0.4017  0.2520 -0.1297
35711ION     NA49125   9.521   0.651   4.713 -0.3725  0.2384 -0.2425
35712ION     NA49126  15.264   2.870  12.944  0.3126 -0.1877  0.2387
35713ION     NA49127  11.947   3.608  10.317 -0.0258  0.0603  0.2455
35714ION     NA49128  14.800  10.224  16.653  0.0925  0.0256 -0.1921
35715ION     NA49129  11.118   5.901   6.443  0.0001 -0.1521  0.2548
35716ION     NA49130   0.773   0.163   0.778 -0.1859 -0.0678 -0.0890
35717ION     NA49131   0.145  17.554   0.874  0.1469  0.0569 -0.0379
35718ION     NA49132  10.128  12.938   6.766  0.2150  0.0829 -0.1877
35719ION     NA49133   8.616  11.327   6.945  0.0897  0.0418  0.0559
35720ION     NA49134  13.103   8.680   5.130  0.2020  0.1441  0.2452
35721ION     NA49135  15.557   8.897   6.488 -0.3114 -0.4400 -0.2141
35722ION     NA49136   7.301  11.746   1.462 -0.3923 -0.1036  0.2147
35723ION     NA49137  15.740   9.901   2.840 -0.1463  0.3566 -0.1306
35724ION     NA49138  15.387  17.518   4.133 -0.0097  0.0056  0.0431
35725ION     NA49139   9.149   5.192   3.221 -0.1596 -0.1004 -0.1718
35726ION     NA49140  12.830   7.210   5.657  0.2641  0.0954 -0.0168
35727ION     NA49141  17.550   8.611   2.288 -0.1523  0.1897 -0.1152
35728ION     NA49142  12.880   8.051  11.095 -0.0167  0.0498  0.0633
35729ION     NA49143   8.268   1.468  15.270 -0.0821  0.0928 -0.4870
35730ION     NA49144  12.711   2.847   6.113 -0.0343  0.2862 -0.1885
35731ION     NA49145   4.341   3.176  14.923 -0.0004 -0.0360 -0.1456
35732ION     NA49146   1.949   6.638   6.474  0.0477 -0.0072 -0.0499
35733ION     NA49147  11.781   3.167  14.969 -0.2370  0.0438 -0.0107
35734ION     NA49148   6.633   0.264   1.291 -0.1717 -0.3144 -0.1196
35735ION     NA49149   5.831  14.593   1.834 -0.2180  0.1480  0.1427
35736ION     NA49150  12.037   5.382  10.742  0.0687 -0.0949  0.1975
35737ION     NA49151   7.024   8.799   4.001 -0.1239 -0.0799  0.0244
35738ION     NA49152   0.492  15.356   5.755  0.1435  0.3086  0.0399
35739ION     NA49153  17.473  11.865  16.638  0.0743 -0.0160 -0.3473
35740ION     NA49154   0.717   9.932  10.376  0.1764 -0.0880  0.0540
35741ION     NA49155  15.659  15.027  10.982  0.3129  0.5599  0.1778
35742ION     NA49156   0.907  12.087   6.098  0.0858  0.0273 -0.2711
35743ION     NA49157   3.204   5.919   4.643 -0.0415  0.0740 -0.0625
35744ION     NA49158   4.915   0.264   9.816 -0.0042 -0.1145 -0.0258
35745ION     NA49159  13.185  12.925   7.108 -0.1315 -0.1593  0.3163
35746ION     NA49160   7.433  16.927   4.982  0.0851  0.2906 -0.2502
35747ION     NA49161  10.936   3.307  15.542  0.0482  0.1713 -0.2100
35748ION     NA49162   3.855   1.180  10.005  0.1550  0.1129  0.0820
35749ION     NA49163  14.536   9.420  10.837  0.4083 -0.0857  0.3767
35750ION     NA49164  12.967   6.991  10.614 -0.2064  0.1982  0.1238
35751ION     NA49165  16.532   7.172   4.237  0.3153 -0.0225  0.2590
35752ION     NA49166   1.000   2.429  10.193 -0.2374  0.2730  0.1466
35753ION     NA49167  11.899   9.292   6.344  0.1002  0.1121 -0.1386
35754ION     NA49168   5.634   9.763  14.097 -0.1812 -0.0031 -0.0234
35755ION     NA49169   9.443  10.221  12.777 -0.0937  0.1353  0.3122
35756ION     NA49170  15.520   3.682   0.187 -0.1814  0.2200  0.1131
35757ION     NA49171  17.571   6.418  15.796 -0.1228  0.0262 -0.0794
35758ION     NA49172  15.070   0.825   0.449  0.2325 -0.0103  0.2424
35759ION     NA49173  15.925   3.105  10.486  0.0808  0.0886  0.0144
35760ION     NA49174  11.793   5.655   0.199 -0.1297  0.1775 -0.1258
35761ION     NA49175  12.931   8.722  15.751 -0.0578  0.5304  0.2477
35762ION     NA49176   8.264   8.071   5.597 -0.1156 -0.0587  0.2323
35763ION     NA49177  18.007   6.428  10.255 -0.1089 -0.1191 -0.0783
35764ION     NA49178   9.165   4.749   5.470 -0.2159  0.1110 -0.1146
35765ION     NA49179   7.261  15.761  15.441 -0.1378 -0.2563 -0.0519
35766ION     NA49180  11.936   2.366  15.988  0.0931  0.3650 -0.0563
35767ION     NA49181   4.627   2.759  10.123  0.0048 -0.4166 -0.0158
35768ION     NA49182   1.622   6.701  13.749 -0.2495 -0.1327  0.0444
35769ION     NA49183  14.797   4.304   2.925  0.2362 -0.1855 -0.0364
35770ION     NA49184  14.987  10.473   4.034  0.0429  0.0066 -0.0679
35771ION     NA49185  11.263   6.543   4.759 -0.1269 -0.2330  0.0264
35772ION     NA49186   0.980   5.091   5.690  0.0147  0.1754  0.0331
35773ION     NA49187   0.680   4.793  10.335 -0.0837  0.1217  0.2593
35774ION     NA49188   8.080  14.067   6.888  0.3308  0.0679 -0.3979
35775ION     NA49189   0.963   5.743   6.194 -0.0352 -0.2525  0.1117
35776ION     NA49190   6.998  15.908   1.488  0.2901  0.0059 -0.3160
35777ION     NA49191  12.544   9.697   6.713  0.0588 -0.2833 -0.0398
35778ION     NA49192   2.649  15.665   0.648 -0.2089 -0.2039 -0.0880
35779ION     NA49193   1.871   8.359   4.317 -0.3911  0.0291 -0.2577
35780ION     NA49194  17.879   2.771   1.413 -0.0940  0.3348  0.0826
35781ION     NA49195   5.103  13.390   2.086 -0.0879  0.3415 -0.0018
35782ION     NA49196  16.383   8.666   1.585 -0.1717 -0.3978 -0.3593
35783ION     NA49197   1.214  12.628  10.056  0.0711 -0.1665 -0.0672
35784ION     NA49198   5.093   0.032  13.742  0.1349  0.2802 -0.0022
35785ION     NA49199   3.012  12.374  10.058 -0.1104  0.1192 -0.0591
35786ION     NA49200   7.968   0.379  10.170  0.0095  0.2931  0.0996
35787ION     NA49201   4.466   2.026   3.300  0.1460 -0.0354  0.0849
35788ION     NA49202   5.513  10.039  10.662  0.0484  0.4764 -0.0710
35789ION     NA49203   3.289  11.471  10.418 -0.2954  0.1845  0.1936
35790ION     NA49204   8.448  12.892  15.664  0.0011 -0.0137  0.0032
35791ION     NA49205  15.385   3.192   5.375 -0.1066 -0.1171 -0.1906
35792ION     NA49206   2.876   1.103   5.766  0.0237 -0.0554  0.0657
35793ION     NA49207  11.382  17.179  10.606  0.3083 -0.3647  0.3322
35794ION     NA49208   8.221  11.550   7.149 -0.2294 -0.0845 -0.1587
35795ION     NA49209  16.918  15.079   2.525  0.0842  0.1983 -0.0167
35796ION     NA49210   4.748  15.860  10.015 -0.0643  0.3484  0.0184
35797ION     NA49211   7.372  11.026  13.052 -0.0205  0.2058  0.1362
35798ION     NA49212   9.157   1.035  10.151 -0.0129 -0.1774 -0.4777
35799ION     NA49213  16.189  11.552  10.712  0.0216 -0.3835  0.1914
35800ION     NA49214  17.309   5.668  10.662 -0.1889 -0.0966  0.0074
35801ION     NA49215  17.103   1.670   3.850  0.0018 -0.1332  0.2871
35802ION     NA49216   3.506  10.891   3.398 -0.0797 -0.1176 -0.0582
35803ION     NA49217   9.910   5.858  10.180 -0.2211 -0.0815 -0.2512
35804ION     NA49218  16.813   0.396  10.552 -0.1063 -0.0842 -0.0445
35805ION     NA49219   1.846   0.598   9.561  0.2283  0.1640 -0.1008
35806ION     NA49220   8.357   9.583  11.914  0.0031 -0.4048  0.1189
35807ION     NA49221  12.117   1.103   6.440  0.1988 -0.2166 -0.1024
35808ION     NA49222  11.985   1.988   6.212  0.1910  0.1548  0.0418
35809ION     NA49223   2.017   5.816  10.724  0.0238 -0.0957 -0.1413
35810ION     NA49224   5.048   4.704   3.136  0.0282  0.0909  0.1247
35811ION     NA49225   4.402  15.044   5.729 -0.0763 -0.0765  0.1495
35812ION     NA49226   9.110  10.730   6.484 -0.3023 -0.0721  0.1172
35813ION     NA49227   4.362  12.958   3.021  0.0234 -0.0382  0.2825
35814ION     NA49228  14.179  11.711  16.384  0.2656  0.1131 -0.2617
35815ION     NA49229  13.284   5.303   2.636  0.2315 -0.3112 -0.0071
35816ION     NA49230   9.480   1.169  15.750 -0.1732 -0.2162  0.1925
35817ION     NA49231   5.412  12.611  11.058  0.0238  0.0525 -0.1694
35818ION     NA49232  17.851   5.090   1.784  0.1777 -0.0431 -0.0486
35819ION     NA49233   7.694  14.268  10.819  0.1749  0.3369  0.0388
35820ION     NA49234  16.548   1.819  16.044 -0.2079  0.0335 -0.1370
35821ION     NA49235   8.235   6.405  10.293 -0.0665  0.0012 -0.0899
35822ION     NA49236   2.700   9.484  13.833 -0.1114  0.1320 -0.0811
35823ION     NA49237  17.359   5.618  16.646  0.1192  0.1753 -0.1058
35824ION     NA49238   7.578   8.698  10.833 -0.0801 -0.1824  0.3212
35825ION     NA49239   2.928   4.638  10.589  0.0277 -0.0012 -0.0786
35826ION     NA49240   1.884  15.316   9.922  0.2759 -0.0920 -0.0605
35827ION     NA49241  17.940   1.735   5.924 -0.0834  0.2610  0.1191
35828ION     NA49242  10.329  12.233  16.654  0.0055 -0.0647  0.0484
35829ION     NA49243  13.986   9.238   5.402 -0.1505  0.2765  0.2183
35830ION     NA49244   2.076   3.300  12.146  0.3967  0.1185  0.0387
35831ION     NA49245   1.726   5.353  14.409 -0.1431 -0.0339 -0.1175
35832ION     NA49246   0.932  15.236   4.478  0.1325 -0.0537  0.3125
35833ION     NA49247  10.997  10.852  14.817  0.3180 -0.0634  0.0805
35834ION     NA49248  13.633  15.344  11.125 -0.1930 -0.0305  0.2430
35835ION     NA49249   3.551   9.577  10.593 -0.0513  0.0705  0.1064
35836ION     NA49250   4.462   1.961   5.768 -0.1791 -0.1176  0.2154
35837ION     NA49251   8.832   2.634  12.617 -0.0636  0.2312 -0.1989
35838ION     NA49252  12.171  16.941   1.513  0.2391 -0.1666 -0.0392
35839ION     NA49253   8.388  15.806  13.100  0.3191 -0.1192  0.1625
35840ION     NA49254  12.386  14.162   5.911  0.1839 -0.0805  0.0641
35841ION     NA49255   5.221   1.698   0.695  0.0734  0.0341  0.0974
35842ION     NA49256   2.947   2.414   5.460 -0.2841  0.2207 -0.0919
35843ION     NA49257  17.679  17.898   9.730  0.0501 -0.1242  0.0861
35844ION     NA49258   1.641   7.221  10.322  0.2702 -0.1800  0.0476
35845ION     NA49259   4.638   5.135  15.111 -0.0521 -0.3114  0.3869
35846ION     NA49260  17.215  14.352   0.223 -0.0996  0.0231 -0.0685
35847ION     NA49261   7.595   0.548   6.068 -0.1889  0.1055 -0.1774
35848ION     NA49262   8.088  16.860   4.556 -0.0045  0.1701  0.0380
35849ION     NA49263   8.846   6.129   4.927  0.1138 -0.0938  0.2806
35850ION     NA49264  13.911   0.200   1.767 -0.0569 -0.0546  0.0842
35851ION     NA49265   9.392  17.600   6.295 -0.0362  0.1780  0.0924
35852ION     NA49266  17.746  10.374   5.251  0.1066  0.2215  0.2143
35853ION     NA49267   5.861   5.740  15.491  0.1309  0.0924  0.2165
35854ION     NA49268   6.157   6.542   2.012 -0.0541 -0.4914 -0.0669
35855ION     NA49269  16.891   9.667   2.908  0.1252 -0.0261 -0.1557
35856ION     NA49270  12.131   3.332   1.381 -0.0538 -0.1816  0.1039
35857ION     NA49271   3.880   0.368  15.723 -0.0920  0.0353  0.0390
35858ION     NA49272   3.209   7.480   6.652  0.0901  0.1724 -0.5152
35859ION     NA49273   1.244  13.329  10.005  0.1938 -0.1250 -0.1733
35860ION     NA49274   9.243  15.770  15.120  0.1119 -0.2065 -0.0990
35861ION     NA49275   4.403   3.814  15.589 -0.0402 -0.2286  0.0673
35862ION     NA49276   1.255  13.090   0.806 -0.2348  0.4082 -0.0203
35863ION     NA49277   6.231  16.769  11.555  0.0545 -0.2105 -0.0087
35864ION     NA49278  17.289   1.607   4.700 -0.1444 -0.1385 -0.3868
35865ION     NA49279  10.026   2.524  10.284  0.0758 -0.1374 -0.0169
35866ION     NA49280  17.226   1.492   9.823 -0.0448 -0.2008 -0.0713
35867ION     NA49281  16.852  10.165  11.482 -0.2874  0.0313  0.1803
35868ION     NA49282  13.755   8.113  13.560 -0.1503  0.3157  0.1721
35869ION     NA49283   9.241  17.075   5.916  0.2054  0.1056  0.0541
35870ION     NA49284   5.393   0.277  15.474 -0.1639 -0.1903 -0.3865
35871ION     NA49285   2.965   0.291   9.892 -0.3094  0.2199 -0.0503
35872ION     NA49286   1.281   1.905   0.957 -0.1383 -0.1259  0.1546
35873ION     NA49287   6.496  14.182  16.144  0.1362  0.1131  0.1808
35874ION     NA49288   4.241  10.055  11.135 -0.3233  0.0460  0.0380
35875ION     NA49289   2.866  16.870   5.900  0.1734  0.1217  0.0412
35876ION     NA49290  16.519  13.484  10.535  0.0184 -0.1614 -0.2417
35877ION     NA49291   7.429   7.327  11.986  0.0284 -0.2144 -0.0738
35878ION     NA49292   5.703   7.481   2.365 -0.2185 -0.1380 -0.0147
35879ION     NA49293  15.612  13.845  15.734 -0.0348 -0.2487 -0.0499
35880ION     NA49294   2.059   7.818  10.791  0.1770 -0.3449 -0.1619
35881ION     NA49295   9.910   0.279  10.293  0.0574  0.3085  0.3664
35882ION     NA49296   3.572   8.530   5.025  0.1225  0.0922  0.1159
35883ION     NA49297  10.832  11.857  15.494  0.0153  0.2068 -0.2196
35884ION     NA49298  13.908   1.033   6.379 -0.0937  0.2208 -0.0043
35885ION     NA49299  13.974   0.817   0.538  0.1345  0.1234 -0.1913
35886ION     NA49300  15.722  12.084   6.951  0.0727 -0.0468 -0.1491
35887ION     NA49301  11.776  15.044   6.828  0.1121 -0.1183 -0.0990
35888ION     NA49302  16.259  12.901  10.858 -0.0947 -0.3586  0.1869
35889ION     NA49303   3.710   1.042  14.614 -0.1710 -0.1197 -0.0653
35890ION     NA49304  15.675   5.869  10.679  0.2613 -0.1107 -0.1648
35891ION     NA49305   8.750   5.672  10.066  0.0649  0.1071  0.2846
35892ION     NA49306  12.160  15.456   6.696 -0.1992 -0.0971  0.1116
35893ION     NA49307   3.137  13.627  15.471  0.0275 -0.2338 -0.0828
35894ION     NA49308  16.285  13.249  16.481 -0.1441 -0.0891  0.1104
35895ION     NA49309   8.953   3.447  15.319 -0.0346  0.4941 -0.0894
35896ION     NA49310  16.776   6.404   5.807 -0.2345 -0.1637  0.0143
35897ION     NA49311   2.606   0.765  12.848  0.0607 -0.0579  0.3318
35898ION     NA49312   2.904   2.248  14.447  0.1514 -0.2251  0.0639
35899ION     NA49313   7.391   6.485  10.309  0.1889 -0.0825 -0.0358
35900ION     NA49314   8.126  10.343   5.073 -0.0840  0.0592  0.0498
35901ION     NA49315   0.856   0.696   9.626 -0.2355  0.4588 -0.0365
35902ION     NA49316  15.015  10.492  10.868 -0.0474 -0.0065 -0.0462
35903ION     NA49317  11.562  13.028   6.938 -0.2567 -0.1168 -0.0057
35904ION     NA49318   6.218   7.728   6.610 -0.1490 -0.0684 -0.1709
35905ION     NA49319   0.541  13.038  11.075 -0.0255  0.1933  0.0417
35906ION     NA49320   3.071   7.444   0.414 -0.2543  0.2101 -0.0428
35907ION     NA49321  13.408   6.499  10.680 -0.0350 -0.0305 -0.1858
35908ION     NA49322   0.606  13.029   1.300  0.2329 -0.1994 -0.0862
35909ION     NA49323  14.000  11.593   2.723 -0.3066  0.1359 -0.2403
35910ION     NA49324   9.456   6.721   4.709  0.0763  0.0169 -0.1872
35911ION     NA49325   2.326  13.267   6.068 -0.2642  0.0193 -0.0269
35912ION     NA49326   5.564  14.619   5.412 -0.2550 -0.1404  0.1077
35913ION     NA49327  14.992  13.032  11.126 -0.1502 -0.2262 -0.4711
35914ION     NA49328   1.946   7.246   6.191  0.1237 -0.1876 -0.0618
35915ION     NA49329  14.090   1.289  10.480  0.1391  0.0962  0.1148
35916ION     NA49330   2.266   2.628   4.121  0.1972  0.0430 -0.1653
35917ION     NA49331  17.194  12.791   5.691 -0.2184  0.0781  0.0442
35918ION     NA49332   4.494  11.171  15.304 -0.0705  0.0857  0.1891
35919ION     NA49333   5.057   0.808   3.918  0.1257 -0.2392  0.1575
35920ION     NA49334  17.938   1.957  10.131 -0.1423 -0.1095  0.3375
35921ION     NA49335   8.381  14.959   6.785 -0.1277 -0.0539  0.1778
35922ION     NA49336   0.868   8.859   0.280  0.2187  0.1999  0.0098
35923ION     NA49337  14.369  10.610  12.738  0.1621 -0.1376 -0.1318
35924ION     NA49338  14.402   7.107   6.438 -0.0972 -0.2626  0.0650
35925ION     NA49339  13.049   2.977  15.303  0.1209 -0.2469  0.1137
35926ION     NA49340   8.513  17.165   6.569 -0.0474  0.0920 -0.1521
35927ION     NA49341   3.726   5.480  10.613  0.1002  0.1337  0.1744
35928ION     NA49342   0.882   5.807  15.013  0.2638 -0.1487  0.0795
35929ION     NA49343  17.554   7.754   3.350  0.0047 -0.2107  0.0747
35930ION     NA49344   2.769   1.602   4.871  0.2152  0.1787  0.0867
35931ION     NA49345   9.709  15.760   6.710  0.0149 -0.0019 -0.1652
35932ION     NA49346  10.810   1.385   6.532 -0.1906 -0.2947 -0.0166
35933ION     NA49347  13.219   1.296  10.421  0.0043  0.2313  0.2357
35934ION     NA49348   8.395  16.959  13.506 -0.0116  0.2179 -0.0808
35935ION     NA49349  10.128   8.370   1.066  0.4939  0.2090  0.0521
35936ION     NA49350   7.925   8.495  12.587  0.0519 -0.1276  0.2218
35937ION     NA49351  15.432   7.744  11.588 -0.0821 -0.2290  0.1658
35938ION     NA49352   2.704   4.706  11.218 -0.1188  0.0433 -0.1887
35939ION     NA49353   4.323  14.744   4.503 -0.0378  0.0627 -0.3601
35940ION     NA49354  15.662   4.141   5.944 -0.1105 -0.1928 -0.1830
35941ION     NA49355  12.090  12.368   4.559  0.2096  0.1459 -0.1420
35942ION     NA49356  13.570   0.067   2.849  0.0093  0.0766 -0.1059
35943ION     NA49357   7.761   6.887  15.075  0.2093 -0.0544 -0.3221
35944ION     NA49358   2.505   7.351  15.059 -0.0738  0.1326  0.1634
35945ION     NA49359  11.692  12.117   6.978  0.1269 -0.2597 -0.0945
35946ION     NA49360  11.580  13.240  14.477 -0.2212  0.0591  0.0347
35947ION     NA49361   4.298   6.833   3.395  0.0163  0.2265  0.1377
35948ION     NA49362   3.910  15.975   2.748 -0.1775 -0.0277 -0.2188
35949ION     NA49363  16.277  11.690   4.473  0.0242  0.2193  0.0172
35950ION     NA49364   9.744  16.147  14.148  0.2086  0.0876  0.1477
35951ION     NA49365   7.482   1.601   9.858 -0.0229 -0.0627 -0.0125
35952ION     NA49366   7.590  16.503   6.617 -0.0741  0.2860  0.0057
35953ION     NA49367   4.896   6.269   6.530  0.1428 -0.0558  0.0581
35954ION     NA49368  13.423  13.650  16.485 -0.0019  0.0779  0.2618
35955ION     NA49369  16.679   7.128  10.425 -0.0969  0.1800  0.3236
35956ION     NA49370   9.206   9.995  14.271 -0.0357 -0.3281  0.0481
35957ION     NA49371  17.739   4.985   6.314  0.0807 -0.4506  0.1037
35958ION     NA49372   7.663   5.642   4.315 -0.0006 -0.0820  0.1470
35959ION     NA49373  16.737   1.890   0.971  0.1758  0.2779 -0.0017
35960ION     NA49374   9.665   1.980   5.160 -0.1328  0.0887  0.0647
35961ION     NA49375   3.461   8.897   3.110  0.1138  0.0092 -0.0711
35962ION     NA49376   3.686   6.238  13.849 -0.1035  0.1492 -0.0731
35963ION     NA49377   3.468  16.702   5.710  0.1209 -0.0327  0.1087
35964ION     NA49378   2.820  17.443   9.834 -0.2813 -0.0747 -0.0990
35965ION     NA49379   3.271   6.697  12.705  0.0387  0.0539  0.1299
35966ION     NA49380   3.203   3.405   5.951  0.0655  0.1425 -0.3540
35967ION     NA49381   3.011   5.419   5.969  0.1001 -0.0249  0.0888
35968ION     NA49382   1.389   7.685   5.341 -0.0970 -0.0219 -0.2966
35969ION     NA49383  12.241  15.594  13.080 -0.1292 -0.0136  0.1947
35970ION     NA49384   5.522  16.942  12.700 -0.1269  0.0315  0.3136
35971ION     CL49385   0.169  17.656   4.891 -0.2177 -0.0181 -0.1475
35972ION     CL49386  10.269   9.896   1.970 -0.1177 -0.1086 -0.0753
35973ION     CL49387   8.072  13.515   5.808  0.1132  0.2030 -0.1201
35974ION     CL49388   6.693   8.497  16.571  0.1683  0.3821  0.0301
35975ION     CL49389   5.782  10.217  13.940  0.0676  0.2262 -0.0409
35976ION     CL49390  13.328  12.084   3.474 -0.0565 -0.1445 -0.1348
35977ION     CL49391  15.093   7.885  11.266 -0.2197  0.0566  0.0883
35978ION     CL49392  13.891   2.288  12.231  0.1377 -0.1023  0.0323
35979ION     CL49393  16.941  17.013   1.245  0.4997 -0.2046 -0.1871
35980ION     CL49394   4.361  13.913  12.309  0.1771  0.3163  0.0310
35981ION     CL49395  12.811  16.225  11.857 -0.0295 -0.1582 -0.0953
35982ION     CL49396   5.099   5.634   3.193  0.1837  0.4206  0.2385
35983ION     CL49397   6.034   3.861  11.697  0.0051 -0.2220  0.1726
35984ION     CL49398  16.968   1.730   4.332 -0.1651 -0.2087 -0.0398
35985ION     CL49399   9.175   2.342  16.769 -0.1310  0.2405 -0.1615
35986ION     CL49400   8.800   2.556  13.117  0.3265 -0.2080  0.2979
35987ION     CL49401   6.383  10.212  15.492 -0.1499 -0.0987 -0.1288
35988ION     CL49402   3.199   9.659  13.914  0.1997  0.0909 -0.0800
35989ION     CL49403   1.541   6.371   1.559 -0.0072  0.0365 -0.0444
35990ION     CL49404   0.991   0.617  15.773  0.2333  0.1537 -0.1394
35991ION     CL49405   2.437  10.367  10.659 -0.0066  0.0258  0.0455
35992ION     CL49406  12.511   2.584  11.054  0.0738  0.0851 -0.3500
35993ION     CL49407  12.646  15.397  16.181  0.1378 -0.0366 -0.0212
35994ION     CL49408   8.431  17.087  15.898  0.1443  0.2399 -0.0224
35995ION     CL49409  10.342   9.261  11.702  0.1527 -0.0082 -0.0276
35996ION     CL49410  10.675   3.113  12.386  0.1450  0.1548  0.1223
35997ION     CL49411  11.705   4.052  15.416 -0.2438 -0.1946 -0.3117
35998ION     CL49412  14.530   5.947   0.856 -0.1703 -0.2131 -0.0830
35999ION     CL49413   6.462   1.765  10.643  0.2620  0.0788 -0.0021
36000ION     CL49414   4.988  15.166  11.593 -0.0225  0.0487  0.1015
36001ION     CL49415  13.839  16.390  11.754  0.2067 -0.1991 -0.1025
36002ION     CL49416  15.097   6.723   2.087  0.2411  0.1148 -0.0724
36003ION     CL49417   2.530  16.574   4.111  0.0937  0.0227  0.2002
36004ION     CL49418  13.133   3.832   5.679 -0.1634 -0.0947 -0.2326
36005ION     CL49419   2.556  14.826   1.797  0.0890 -0.0134  0.1468
36006ION     CL49420   8.935   4.397  15.342 -0.0852  0.0439 -0.3455
36007ION     CL49421   4.522   3.359  15.330 -0.1530 -0.1888  0.4032
36008ION     CL49422   9.866   4.224  15.583 -0.1027  0.2149  0.1056
36009ION     CL49423  10.212  14.681   2.389 -0.1363 -0.1529  0.0929
36010ION     CL49424  14.061  16.204  13.348 -0.1691  0.0989 -0.2057
36011ION     CL49425   1.225   9.542   5.928  0.0280  0.1987  0.2013
36012ION     CL49426   7.175   5.976  14.276 -0.4112  0.2256 -0.0336
36013ION     CL49427  17.080   7.599   2.026  0.2513  0.1197 -0.0358
36014ION     CL49428  13.343   1.983  16.311 -0.0507  0.0253  0.0483
36015ION     CL49429   8.370  15.559  11.357 -0.0392 -0.0059 -0.2117
36016ION     CL49430   4.303  16.252   2.901 -0.0660 -0.0147 -0.0173
36017ION     CL49431  11.300   6.323   0.039  0.0641 -0.3105  0.3670
36018ION     CL49432  12.928  12.984   0.781  0.1192  0.0806 -0.1412
36019ION     CL49433   9.535  11.523   0.902 -0.1665  0.1977  0.2248
36020ION     CL49434   5.904   5.199  15.271  0.1587  0.1773  0.0969
36021ION     CL49435  15.212   2.384  12.762  0.2926  0.0241  0.1173
36022ION     CL49436  15.201  13.714   5.782 -0.0632  0.0261 -0.0390
36023ION     CL49437   7.064   0.603  12.183  0.1843 -0.0899 -0.0661
36024ION     CL49438   8.321   9.065   3.595  0.4293  0.0578  0.3256
36025ION     CL49439  14.248   4.046  13.828 -0.3091  0.4204  0.0767
36026ION     CL49440  14.847  11.171   4.632  0.1082 -0.0759 -0.0246
36027ION     CL49441  11.778  12.018   4.329  0.0600 -0.0688  0.0533
36028ION     CL49442  13.824   6.200  11.559  0.0099  0.4323 -0.0375
36029ION     CL49443   5.576  11.489  11.290 -0.1281 -0.1895 -0.0345
36030ION     CL49444   2.082   1.658  16.134  0.1938 -0.1131  0.2208
36031ION     CL49445  15.604   2.586  11.660 -0.0640 -0.0443 -0.3646
36032ION     CL49446   9.457   5.582   3.127 -0.0128 -0.0889 -0.0629
36033ION     CL49447   1.517   2.000   1.539  0.1537 -0.0028 -0.1302
36034ION     CL49448  11.192  13.056  14.688  0.1189 -0.1005  0.0577
36035ION     CL49449   5.004   5.806   6.347 -0.1326 -0.0497 -0.2835
36036ION     CL49450   8.326  13.978   5.074 -0.0450  0.1121  0.0909
36037ION     CL49451   1.021   5.430   2.736 -0.0124 -0.3123 -0.2214
36038ION     CL49452   0.095  14.024   0.397 -0.3000  0.1315 -0.0035
36039ION     CL49453  15.964   2.174   2.415  0.0911 -0.1372  0.1128
36040ION     CL49454   9.280   8.248   3.101  0.3625 -0.1475 -0.3598
36041ION     CL49455   5.246  12.129   5.411  0.0725  0.1295  0.1222
36042ION     CL49456   2.139   0.653  12.684  0.1658 -0.1214  0.1141
36043ION     CL49457  17.495   6.958  15.644 -0.1248 -0.4529  0.0074
36044ION     CL49458  14.896   1.036  16.770  0.1346  0.0027 -0.0196
36045ION     CL49459  11.704   1.430  15.480  0.1303  0.3812  0.1245
36046ION     CL49460   0.521  11.933   5.809  0.0019  0.1388 -0.0140
36047ION     CL49461   0.928  10.874   5.201 -0.1553 -0.0753 -0.2379
36048ION     CL49462   7.388   5.865   4.706  0.0505 -0.0958 -0.1107
36049ION     CL49463   8.621   7.768  16.383  0.0638 -0.0014  0.0682
36050ION     CL49464   2.954  14.281   1.902 -0.2701  0.1661  0.0987
36051ION     CL49465  16.740  11.604   4.443 -0.0753  0.1606 -0.1263
36052ION     CL49466   3.447   6.254  14.877  0.0661  0.0331 -0.0135
36053ION     CL49467  15.697  16.520  13.997  0.0125 -0.1819  0.1105
36054ION     CL49468  10.925  13.162   5.157  0.0627  0.2912 -0.1550
36055ION     CL49469   1.303   4.992   5.358 -0.3232  0.2574  0.0684
36056ION     CL49470  10.308   0.406   1.844  0.0098 -0.1914 -0.1109
36057ION     CL49471   9.254  17.286  15.613 -0.0037 -0.0546  0.1709
36058ION     CL49472   0.511   9.199   0.218 -0.2340  0.4146  0.1406
36059ION     CL49473   4.702  13.120   3.390  0.0474  0.0693  0.0374
36060ION     CL49474   7.234   0.245   1.228  0.0036 -0.0411  0.0516
36061ION     CL49475  12.963   9.597   0.270  0.0328  0.0168 -0.0081
36062ION     CL49476   1.806   1.123   4.958 -0.0236 -0.2085  0.0297
36063ION     CL49477  13.244  15.923   1.254  0.1599  0.1594  0.0043
36064ION     CL49478   4.584  17.854  15.900  0.1968  0.0290  0.0575
36065ION     CL49479   1.051  15.082   0.056  0.2902 -0.1658  0.0444
36066ION     CL49480  14.329   3.872   4.502  0.1955  0.1088 -0.0076
36067ION     CL49481  16.939  12.233  12.247  0.1115  0.2160 -0.0123
36068ION     CL49482   5.741  17.765  16.667  0.1199 -0.0394 -0.2579
36069ION     CL49483   4.753   2.350  10.390 -0.1551 -0.0636  0.3314
36070ION     CL49484   6.907  14.867   1.027 -0.1370  0.1051  0.0183
36071ION     CL49485  15.075   7.163   3.531  0.1862 -0.1301 -0.1994
36072ION     CL49486   9.345   3.804   1.130 -0.0865  0.1892 -0.2341
36073ION     CL49487   0.125   2.346  10.418 -0.0664 -0.0153  0.2224
36074ION     CL49488  11.948  12.448   1.168 -0.2045  0.1112 -0.0484
36075ION     CL49489   3.752   0.048   4.951 -0.3985  0.0858  0.0643
36076ION     CL49490   5.509   6.137  13.602  0.0671  0.2530 -0.1144
36077ION     CL49491   6.884  17.123  14.671 -0.0504 -0.3096  0.0474
36078ION     CL49492  14.692  11.620   6.085 -0.0443 -0.2543 -0.0885
36079ION     CL49493   6.657  10.906  15.981  0.1064  0.1871 -0.2852
36080ION     CL49494   6.199  13.969  16.478  0.2966 -0.0484 -0.0370
36081ION     CL49495   3.728  12.917  14.778  0.2568  0.0456  0.1997
36082ION     CL49496   0.215  10.838  12.807 -0.0214  0.2641 -0.0955
36083ION     CL49497  16.547   6.855   6.053  0.0253 -0.1588 -0.1102
36084ION     CL49498   0.392   8.876  14.945  0.1336 -0.0803  0.0217
36085ION     CL49499   4.436   7.997  11.259  0.0188  0.1443  0.1200
36086ION     CL49500  11.436   9.342  15.831 -0.1912 -0.0838  0.0963
36087ION     CL49501   6.261   5.190  11.266  0.2191 -0.0725 -0.1049
36088ION     CL49502  10.069   5.026  12.476  0.2051 -0.2285 -0.1267
36089ION     CL49503   7.278  13.910  16.736  0.2452 -0.0229  0.1143
36090ION     CL49504   6.222  17.059   4.308  0.1192  0.2342 -0.1128
36091ION     CL49505  14.344  17.488   3.301  0.3228 -0.0806  0.2756
36092ION     CL49506   0.360  11.480  14.555  0.1849 -0.0151  0.0445
36093ION     CL49507  13.541  16.016  14.570 -0.1248  0.2084  0.0127
36094ION     CL49508   1.831   7.818   5.516 -0.1200  0.0236 -0.2731
36095ION     CL49509  12.084   9.068  13.186 -0.0477  0.0200 -0.1350
36096ION     CL49510  10.411   1.354  10.736 -0.1192  0.0540  0.1409
36097ION     CL49511   2.533  16.393  15.875  0.0195  0.1500 -0.1147
36098ION     CL49512   0.470  13.542  11.261 -0.0999  0.2139 -0.1764
36099ION     CL49513   8.272  16.118  14.795  0.2268 -0.4187 -0.1558
36100ION     CL49514  14.750   1.067   0.780 -0.3031 -0.0054  0.0762
36101ION     CL49515  15.757   3.250   5.024  0.0552  0.1453  0.3217
36102ION     CL49516   9.116   6.267   5.719  0.0546 -0.1122 -0.3587
36103ION     CL49517   6.002  10.727   1.056  0.1982  0.1043  0.0552
36104ION     CL49518  17.382  10.062  11.591  0.1510 -0.3105 -0.0383
36105ION     CL49519  17.709  14.602   2.748 -0.0234  0.2321  0.0245
36106ION     CL49520   6.428  11.694  14.021  0.0178 -0.0745 -0.0798
36107ION     CL49521   4.701   3.517  11.597  0.1538  0.0467 -0.0243
36108ION     CL49522   5.720  12.096   1.620 -0.0623  0.1534 -0.2201
36109ION     CL49523  16.409   9.905  11.508  0.0951  0.1115  0.1205
36110ION     CL49524   5.378  14.347   1.912  0.1909  0.2080  0.1153
36111ION     CL49525   4.515  15.531  11.290 -0.1754  0.1642  0.0343
36112ION     CL49526   3.879   6.263  13.396  0.0660  0.1028 -0.0947
36113ION     CL49527  15.441   7.169  12.877 -0.0916 -0.0345  0.1576
36114ION     CL49528   4.598  16.736  13.823  0.1303  0.1434  0.3242
36115ION     CL49529   2.899   1.981   5.164  0.1623 -0.0758  0.3458
36116ION     CL49530   0.866   5.287  16.657 -0.2536  0.4886 -0.3058
36117ION     CL49531  15.723   8.070  11.858 -0.0232  0.0433  0.0330
36118ION     CL49532   7.820  11.709   1.583  0.1047 -0.0260  0.0623
36119ION     CL49533   8.061  10.657  13.224  0.0203  0.0015  0.0597
36120ION     CL49534  14.485  10.159  12.436  0.3787  0.0150 -0.4913
36121ION     CL49535   1.505  13.905  11.070  0.0966 -0.0612  0.2845
36122ION     CL49536   1.132   7.299  12.585 -0.3487  0.0331  0.0714
36123ION     CL49537   4.540   9.690  12.360  0.3402 -0.0473  0.1057
36124ION     CL49538   0.210  15.476   4.481 -0.0898 -0.1054 -0.0383
36125ION     CL49539  12.654  12.860  11.901 -0.3196  0.2277  0.0727
36126ION     CL49540   7.875   5.277  14.900 -0.0296 -0.0434 -0.1497
36127ION     CL49541  15.988  14.801   1.588 -0.0426  0.0491  0.1611
36128ION     CL49542  15.181   6.743  15.187 -0.2066  0.1477 -0.2012
36129ION     CL49543  11.249  16.779  13.694 -0.2960  0.0434  0.0071
36130ION     CL49544   8.484   1.629  14.809 -0.0437  0.2331 -0.2114
36131ION     CL49545   2.426   0.264   0.016 -0.0434 -0.0458 -0.2796
36132ION     CL49546  13.078   6.729   5.524 -0.2797 -0.1622 -0.1073
36133ION     CL49547   3.855  16.450  13.113 -0.3623 -0.1600 -0.0732
36134ION     CL49548   4.752  10.893   0.686  0.2430  0.0095  0.2068
36135ION     CL49549  13.904  13.825  16.532  0.4355  0.2264  0.2305
36136ION     CL49550  16.361  14.946   3.818 -0.2195 -0.0153 -0.2492
36137ION     CL49551   7.680   6.646  13.604 -0.0461  0.0948  0.3761
36138ION     CL49552   6.301   0.238   0.978 -0.0075 -0.0180  0.1982
36139ION     CL49553  14.702  15.193   3.594 -0.0385  0.0386  0.4777
36140ION     CL49554  17.822  17.604  11.005  0.3552  0.1063 -0.1709
36141ION     CL49555   7.814   2.313  12.320  0.0138  0.1359 -0.0508
36142ION     CL49556   2.484   8.198  13.544 -0.0313 -0.0130 -0.0315
36143ION     CL49557   5.273   0.344   3.662  0.3112  0.0737 -0.0005
36144ION     CL49558   7.937   3.404   5.018  0.0778  0.0582 -0.0198
36145ION     CL49559   0.804  15.341  16.235 -0.0802 -0.4044 -0.2344
36146ION     CL49560  11.039   4.249  15.267 -0.2714 -0.1855  0.1368
36147ION     CL49561   7.791  15.230   2.053 -0.0453  0.0476 -0.0069
36148ION     CL49562   5.316   0.533   4.711 -0.3589  0.0483  0.2164
36149ION     CL49563  14.005   8.400  13.263 -0.1199  0.0124  0.0836
36150ION     CL49564   3.496   8.030   4.978 -0.1573 -0.0704 -0.5324
36151ION     CL49565   0.518  13.513   1.327  0.3392  0.1343  0.1511
36152ION     CL49566   2.038  11.167  15.312 -0.2729  0.0554 -0.1213
36153ION     CL49567   9.490   1.283   5.492 -0.1667 -0.0386 -0.3729
36154ION     CL49568   6.284   8.896  10.845  0.0344  0.2568  0.3641
36155ION     CL49569  15.531  17.401  12.338  0.0427 -0.1252  0.0327
36156ION     CL49570  15.502   2.726   5.371  0.0010  0.1482 -0.1268
36157ION     CL49571  12.837   0.638  14.781 -0.0529  0.3138  0.1102
36158ION     CL49572   4.553   7.245   3.482  0.0997 -0.2404 -0.0424
36159ION     CL49573  14.677  16.382  14.843  0.5409 -0.3563 -0.1694
36160ION     CL49574   6.649   2.313  11.836  0.1846 -0.0213  0.1073
36161ION     CL49575  14.740  14.197   0.058 -0.1859 -0.0805 -0.2006
36162ION     CL49576   2.547  11.558  12.297  0.1540 -0.0188 -0.1559
36163ION     CL49577   5.060  16.091   5.535  0.2091  0.1680  0.1329
36164ION     CL49578  13.916   6.550  13.055 -0.0508  0.3688 -0.2558
36165ION     CL49579  17.835  14.690   4.556 -0.3850 -0.0099 -0.0790
36166ION     CL49580   3.369  12.284   4.360  0.2815 -0.1488  0.1666
36167ION     CL49581  13.296   8.025  13.638  0.0893 -0.1856  0.0053
36168ION     CL49582   1.877  12.878   1.233 -0.1422  0.0169 -0.2737
36169ION     CL49583   3.115   1.369  16.100  0.0331 -0.0732  0.1211
36170ION     CL49584  12.133  14.990  14.712 -0.1621  0.2193  0.0368
36171ION     CL49585   2.775   0.280   1.150  0.1915 -0.1538 -0.2367
36172ION     CL49586   8.019  15.598  12.875  0.0965  0.2487  0.0191
36173ION     CL49587   8.377   7.880  14.584 -0.0320 -0.2346  0.5154
36174ION     CL49588  13.030  13.734  13.851  0.0015  0.2699 -0.0916
36175ION     CL49589   1.924   6.676  11.519 -0.2194  0.2190 -0.0824
36176ION     CL49590   0.818   0.894  12.932  0.0883 -0.2944  0.2418
36177ION     CL49591   1.669   6.189  13.967 -0.2403 -0.1731 -0.1097
36178ION     CL49592   4.650  11.582   4.081 -0.1880 -0.0662 -0.0447
  18.01220  18.01220  16.78430
